<event>
 8    1  0.2432279E-006  0.9118800E+02  0.7816164E-02  0.1184000E+00
        -11   -1    0    0    0    0  0.00000000000E+00  0.00000000000E+00  0.45593999997E+02  0.45594000000E+02  0.51100000000E-03 0. -1.
         11   -1    0    0    0    0 -0.00000000000E+00 -0.00000000000E+00 -0.45593999997E+02  0.45594000000E+02  0.51100000000E-03 0.  1.
         23    2    1    2    0    0  0.00000000000E+00  0.00000000000E+00  0.00000000000E+00  0.91188000000E+02  0.91188000000E+02 0.  0.
    9900012    2    3    3    0    0  0.27193713563E+02  0.15185465941E+02  0.19638747827E+02  0.54367124815E+02  0.40000092640E+02 0.  0.
         12    1    3    3    0    0 -0.27193713563E+02 -0.15185465941E+02 -0.19638747827E+02  0.36820875185E+02  0.00000000000E+00 0. -1.
         11    1    4    4    0    0  0.13648114637E+01 -0.55438743427E+01  0.82000968370E+01  0.99919388237E+01  0.51100000000E-03 0. -1.
        -11    1    4    4    0    0  0.27891164201E+02  0.20117323754E+02  0.17036717096E+02  0.38378033889E+02  0.51100000000E-03 0.  1.
        -12    1    4    4    0    0 -0.20622621020E+01  0.61201652994E+00 -0.55980661059E+01  0.59971521021E+01  0.00000000000E+00 0.  1.
</event>
<event>
 8    1  0.2432279E-006  0.9118800E+02  0.7816164E-02  0.1184000E+00
        -11   -1    0    0    0    0  0.00000000000E+00  0.00000000000E+00  0.45593999997E+02  0.45594000000E+02  0.51100000000E-03 0.  1.
         11   -1    0    0    0    0 -0.00000000000E+00 -0.00000000000E+00 -0.45593999997E+02  0.45594000000E+02  0.51100000000E-03 0. -1.
         23    2    1    2    0    0  0.00000000000E+00  0.35527136788E-14  0.00000000000E+00  0.91188000000E+02  0.91188000000E+02 0.  0.
    9900012    2    3    3    0    0  0.25933951973E+02 -0.17626620874E+02 -0.19300403903E+02  0.54367174110E+02  0.40000205018E+02 0.  0.
        -12    1    3    3    0    0 -0.25933951973E+02  0.17626620874E+02  0.19300403903E+02  0.36820825890E+02  0.00000000000E+00 0.  1.
         11    1    4    4    0    0  0.64692101164E+01 -0.35778371933E+01 -0.11414698491E+02  0.13599519859E+02  0.51100000000E-03 0. -1.
        -11    1    4    4    0    0  0.33697502281E+01 -0.19474726352E+02  0.38329215798E+01  0.20132348874E+02  0.51100000000E-03 0.  1.
        -12    1    4    4    0    0  0.16094991629E+02  0.54259426716E+01 -0.11718626993E+02  0.20635305377E+02  0.00000000000E+00 0.  1.
</event>
<event>
 8    1  0.2432279E-006  0.9118800E+02  0.7816164E-02  0.1184000E+00
        -11   -1    0    0    0    0  0.00000000000E+00  0.00000000000E+00  0.45593999997E+02  0.45594000000E+02  0.51100000000E-03 0. -1.
         11   -1    0    0    0    0 -0.00000000000E+00 -0.00000000000E+00 -0.45593999997E+02  0.45594000000E+02  0.51100000000E-03 0.  1.
         23    2    1    2    0    0  0.35527136788E-14  0.00000000000E+00  0.00000000000E+00  0.91188000000E+02  0.91188000000E+02 0.  0.
    9900012    2    3    3    0    0 -0.27161265157E+02 -0.15551201314E+02  0.19396037052E+02  0.54367076049E+02  0.39999981470E+02 0.  0.
        -12    1    3    3    0    0  0.27161265157E+02  0.15551201314E+02 -0.19396037052E+02  0.36820923951E+02  0.00000000000E+00 0.  1.
         11    1    4    4    0    0 -0.10230630334E+02  0.13530592877E+01  0.10358361915E+01  0.10371572849E+02  0.51100000000E-03 0. -1.
        -11    1    4    4    0    0 -0.53143839754E+01 -0.91083264735E+01 -0.86093548903E+01  0.13613422791E+02  0.51100000000E-03 0.  1.
         12    1    4    4    0    0 -0.11616250848E+02 -0.77959341285E+01  0.26969555750E+02  0.30382080410E+02  0.00000000000E+00 0. -1.
</event>
<event>
 8    1  0.2432279E-006  0.9118800E+02  0.7816164E-02  0.1184000E+00
        -11   -1    0    0    0    0  0.00000000000E+00  0.00000000000E+00  0.45593999997E+02  0.45594000000E+02  0.51100000000E-03 0.  1.
         11   -1    0    0    0    0 -0.00000000000E+00 -0.00000000000E+00 -0.45593999997E+02  0.45594000000E+02  0.51100000000E-03 0. -1.
         23    2    1    2    0    0  0.00000000000E+00 -0.35527136788E-14  0.00000000000E+00  0.91188000000E+02  0.91188000000E+02 0.  0.
    9900012    2    3    3    0    0 -0.23023031061E+01  0.26160034659E+02 -0.25809549915E+02  0.54367070085E+02  0.39999967873E+02 0.  0.
        -12    1    3    3    0    0  0.23023031061E+01 -0.26160034659E+02  0.25809549915E+02  0.36820929915E+02  0.00000000000E+00 0.  1.
         11    1    4    4    0    0  0.63324226825E+01  0.18624822502E+00 -0.13022174272E+01  0.64676143917E+01  0.51100000000E-03 0. -1.
        -11    1    4    4    0    0  0.10681375016E+02  0.12439329071E+02 -0.45833251983E+01  0.17024557266E+02  0.51100000000E-03 0.  1.
        -12    1    4    4    0    0 -0.19316100805E+02  0.13534457363E+02 -0.19924007290E+02  0.30874898427E+02  0.00000000000E+00 0.  1.
</event>
<event>
 8    1  0.2432279E-006  0.9118800E+02  0.7816164E-02  0.1184000E+00
        -11   -1    0    0    0    0  0.00000000000E+00  0.00000000000E+00  0.45593999997E+02  0.45594000000E+02  0.51100000000E-03 0.  1.
         11   -1    0    0    0    0 -0.00000000000E+00 -0.00000000000E+00 -0.45593999997E+02  0.45594000000E+02  0.51100000000E-03 0. -1.
         23    2    1    2    0    0 -0.71054273576E-14 -0.35527136788E-14 -0.35527136788E-14  0.91188000000E+02  0.91188000000E+02 0.  0.
    9900012    2    3    3    0    0 -0.27975032174E+02 -0.12083786948E+02 -0.20667836187E+02  0.54367084954E+02  0.40000001770E+02 0.  0.
        -12    1    3    3    0    0  0.27975032174E+02  0.12083786948E+02  0.20667836187E+02  0.36820915046E+02  0.00000000000E+00 0.  1.
         11    1    4    4    0    0 -0.16785807882E+02 -0.22845464217E+02 -0.38149341449E+01  0.28604760169E+02  0.51100000000E-03 0. -1.
        -11    1    4    4    0    0  0.23214331007E+01  0.23434063837E+00 -0.16184629193E+01  0.28396108286E+01  0.51100000000E-03 0.  1.
        -12    1    4    4    0    0 -0.13510657393E+02  0.10527336631E+02 -0.15234439123E+02  0.22922713956E+02  0.00000000000E+00 0.  1.
</event>
<event>
 8    1  0.2432279E-006  0.9118800E+02  0.7816164E-02  0.1184000E+00
        -11   -1    0    0    0    0  0.00000000000E+00  0.00000000000E+00  0.45593999997E+02  0.45594000000E+02  0.51100000000E-03 0.  1.
         11   -1    0    0    0    0 -0.00000000000E+00 -0.00000000000E+00 -0.45593999997E+02  0.45594000000E+02  0.51100000000E-03 0. -1.
         23    2    1    2    0    0  0.00000000000E+00  0.00000000000E+00  0.35527136788E-14  0.91188000000E+02  0.91188000000E+02 0.  0.
    9900012    2    3    3    0    0  0.80817463751E+01 -0.27576590652E+02 -0.23021655443E+02  0.54367087521E+02  0.40000007621E+02 0.  0.
        -12    1    3    3    0    0 -0.80817463751E+01  0.27576590652E+02  0.23021655443E+02  0.36820912479E+02  0.00000000000E+00 0.  1.
         11    1    4    4    0    0 -0.17014002702E+01 -0.16097896041E+02  0.11063988164E+00  0.16187935671E+02  0.51100000000E-03 0. -1.
        -11    1    4    4    0    0  0.18902234343E+02 -0.67095465129E+01 -0.14552092217E+02  0.24780554185E+02  0.51100000000E-03 0.  1.
         12    1    4    4    0    0 -0.91190876977E+01 -0.47691480982E+01 -0.85802031078E+01  0.13398597665E+02  0.00000000000E+00 0. -1.
</event>
<event>
 8    1  0.2432279E-006  0.9118800E+02  0.7816164E-02  0.1184000E+00
        -11   -1    0    0    0    0  0.00000000000E+00  0.00000000000E+00  0.45593999997E+02  0.45594000000E+02  0.51100000000E-03 0. -1.
         11   -1    0    0    0    0 -0.00000000000E+00 -0.00000000000E+00 -0.45593999997E+02  0.45594000000E+02  0.51100000000E-03 0.  1.
         23    2    1    2    0    0  0.00000000000E+00  0.35527136788E-14  0.00000000000E+00  0.91188000000E+02  0.91188000000E+02 0.  0.
    9900012    2    3    3    0    0  0.23527657232E+02  0.16938611877E+02 -0.22700506053E+02  0.54367079286E+02  0.39999988847E+02 0.  0.
         12    1    3    3    0    0 -0.23527657232E+02 -0.16938611877E+02  0.22700506053E+02  0.36820920714E+02  0.00000000000E+00 0. -1.
         11    1    4    4    0    0  0.65417519768E+01  0.84811191339E+01  0.16385751888E+00  0.10712177661E+02  0.51100000000E-03 0. -1.
        -11    1    4    4    0    0  0.24515282848E+02  0.51023893896E+01 -0.24740283724E+02  0.35201066882E+02  0.51100000000E-03 0.  1.
        -12    1    4    4    0    0 -0.75293775925E+01  0.33551033538E+01  0.18759201520E+01  0.84538347430E+01  0.00000000000E+00 0.  1.
</event>
<event>
 8    1  0.2432279E-006  0.9118800E+02  0.7816164E-02  0.1184000E+00
        -11   -1    0    0    0    0  0.00000000000E+00  0.00000000000E+00  0.45593999997E+02  0.45594000000E+02  0.51100000000E-03 0. -1.
         11   -1    0    0    0    0 -0.00000000000E+00 -0.00000000000E+00 -0.45593999997E+02  0.45594000000E+02  0.51100000000E-03 0.  1.
         23    2    1    2    0    0  0.00000000000E+00  0.00000000000E+00  0.00000000000E+00  0.91188000000E+02  0.91188000000E+02 0.  0.
    9900012    2    3    3    0    0 -0.18621899220E+02  0.25976012554E+02  0.18282548249E+02  0.54367082993E+02  0.39999997299E+02 0.  0.
        -12    1    3    3    0    0  0.18621899220E+02 -0.25976012554E+02 -0.18282548249E+02  0.36820917007E+02  0.00000000000E+00 0.  1.
         11    1    4    4    0    0 -0.13959169851E+02  0.23691166326E+02  0.20976630173E+02  0.34585384174E+02  0.51100000000E-03 0. -1.
        -11    1    4    4    0    0 -0.19849076554E+01  0.10517767100E+02 -0.30095621969E+01  0.11118486770E+02  0.51100000000E-03 0.  1.
        -12    1    4    4    0    0 -0.26778217130E+01 -0.82329208717E+01  0.31548027293E+00  0.86632120492E+01  0.00000000000E+00 0.  1.
</event>
<event>
 8    1  0.2432279E-006  0.9118800E+02  0.7816164E-02  0.1184000E+00
        -11   -1    0    0    0    0  0.00000000000E+00  0.00000000000E+00  0.45593999997E+02  0.45594000000E+02  0.51100000000E-03 0. -1.
         11   -1    0    0    0    0 -0.00000000000E+00 -0.00000000000E+00 -0.45593999997E+02  0.45594000000E+02  0.51100000000E-03 0.  1.
         23    2    1    2    0    0 -0.35527136788E-14  0.35527136788E-14  0.35527136788E-14  0.91188000000E+02  0.91188000000E+02 0.  0.
    9900012    2    3    3    0    0 -0.18004534042E+02  0.22587133067E+02  0.22834807327E+02  0.54367214404E+02  0.40000296876E+02 0.  0.
        -12    1    3    3    0    0  0.18004534042E+02 -0.22587133067E+02 -0.22834807327E+02  0.36820785596E+02  0.00000000000E+00 0.  1.
         11    1    4    4    0    0 -0.16337909727E+02  0.14058622892E+02  0.14407732088E-01  0.21553941164E+02  0.51100000000E-03 0. -1.
        -11    1    4    4    0    0 -0.54593448240E+01  0.13932820005E+02  0.21311785669E+02  0.26040739772E+02  0.51100000000E-03 0.  1.
        -12    1    4    4    0    0  0.37927205083E+01 -0.54043098305E+01  0.15086139256E+01  0.67725334680E+01  0.00000000000E+00 0.  1.
</event>
<event>
 8    1  0.2432279E-006  0.9118800E+02  0.7816164E-02  0.1184000E+00
        -11   -1    0    0    0    0  0.00000000000E+00  0.00000000000E+00  0.45593999997E+02  0.45594000000E+02  0.51100000000E-03 0.  1.
         11   -1    0    0    0    0 -0.00000000000E+00 -0.00000000000E+00 -0.45593999997E+02  0.45594000000E+02  0.51100000000E-03 0. -1.
         23    2    1    2    0    0  0.00000000000E+00  0.17763568394E-14 -0.35527136788E-14  0.91188000000E+02  0.91188000000E+02 0.  0.
    9900012    2    3    3    0    0 -0.21819078809E+02 -0.55138278041E+01  0.29142836477E+02  0.54367089975E+02  0.40000013216E+02 0.  0.
         12    1    3    3    0    0  0.21819078809E+02  0.55138278041E+01 -0.29142836477E+02  0.36820910025E+02  0.00000000000E+00 0. -1.
         11    1    4    4    0    0 -0.85048821190E+01 -0.56369077349E+01  0.11870260928E+01  0.10272136091E+02  0.51100000000E-03 0. -1.
        -11    1    4    4    0    0  0.65859090308E+01  0.78085924103E+01  0.17674268974E+02  0.20413919203E+02  0.51100000000E-03 0.  1.
        -12    1    4    4    0    0 -0.19900105721E+02 -0.76855124795E+01  0.10281541410E+02  0.23681034681E+02  0.00000000000E+00 0.  1.
</event>
<event>
 8    1  0.2432279E-006  0.9118800E+02  0.7816164E-02  0.1184000E+00
        -11   -1    0    0    0    0  0.00000000000E+00  0.00000000000E+00  0.45593999997E+02  0.45594000000E+02  0.51100000000E-03 0. -1.
         11   -1    0    0    0    0 -0.00000000000E+00 -0.00000000000E+00 -0.45593999997E+02  0.45594000000E+02  0.51100000000E-03 0.  1.
         23    2    1    2    0    0  0.35527136788E-14 -0.88817841970E-15  0.00000000000E+00  0.91188000000E+02  0.91188000000E+02 0.  0.
    9900012    2    3    3    0    0 -0.27249882099E+02  0.64789277871E+01 -0.23900837158E+02  0.54367046773E+02  0.39999914728E+02 0.  0.
         12    1    3    3    0    0  0.27249882099E+02 -0.64789277871E+01  0.23900837158E+02  0.36820953227E+02  0.00000000000E+00 0. -1.
         11    1    4    4    0    0 -0.13947854011E+01  0.13109430894E+01 -0.27583274949E+01  0.33574348734E+01  0.51100000000E-03 0. -1.
        -11    1    4    4    0    0 -0.31814532346E+02  0.99636904156E+01 -0.25709921009E+02  0.42100351942E+02  0.51100000000E-03 0.  1.
         12    1    4    4    0    0  0.59594356482E+01 -0.47957057179E+01  0.45674113462E+01  0.89092599571E+01  0.00000000000E+00 0. -1.
</event>
<event>
 8    1  0.2432279E-006  0.9118800E+02  0.7816164E-02  0.1184000E+00
        -11   -1    0    0    0    0  0.00000000000E+00  0.00000000000E+00  0.45593999997E+02  0.45594000000E+02  0.51100000000E-03 0. -1.
         11   -1    0    0    0    0 -0.00000000000E+00 -0.00000000000E+00 -0.45593999997E+02  0.45594000000E+02  0.51100000000E-03 0.  1.
         23    2    1    2    0    0  0.00000000000E+00  0.17763568394E-14  0.00000000000E+00  0.91188000000E+02  0.91188000000E+02 0.  0.
    9900012    2    3    3    0    0 -0.28943170518E+02 -0.14687352339E+02 -0.17388300806E+02  0.54367103172E+02  0.40000043300E+02 0.  0.
         12    1    3    3    0    0  0.28943170518E+02  0.14687352339E+02  0.17388300806E+02  0.36820896828E+02  0.00000000000E+00 0. -1.
         11    1    4    4    0    0  0.64958862289E+01  0.81276829843E+00 -0.11146523209E+01  0.66407514833E+01  0.51100000000E-03 0. -1.
        -11    1    4    4    0    0 -0.24004753240E+02 -0.71022707507E+01 -0.21101460978E+02  0.32740526624E+02  0.51100000000E-03 0.  1.
         12    1    4    4    0    0 -0.11434303507E+02 -0.83978498863E+01  0.48278124931E+01  0.14985825065E+02  0.00000000000E+00 0. -1.
</event>
<event>
 8    1  0.2432279E-006  0.9118800E+02  0.7816164E-02  0.1184000E+00
        -11   -1    0    0    0    0  0.00000000000E+00  0.00000000000E+00  0.45593999997E+02  0.45594000000E+02  0.51100000000E-03 0. -1.
         11   -1    0    0    0    0 -0.00000000000E+00 -0.00000000000E+00 -0.45593999997E+02  0.45594000000E+02  0.51100000000E-03 0.  1.
         23    2    1    2    0    0  0.00000000000E+00 -0.88817841970E-15  0.00000000000E+00  0.91188000000E+02  0.91188000000E+02 0.  0.
    9900012    2    3    3    0    0  0.91558606794E+01  0.61982252545E+01  0.35121716336E+02  0.54367044832E+02  0.39999910304E+02 0.  0.
        -12    1    3    3    0    0 -0.91558606794E+01 -0.61982252545E+01 -0.35121716336E+02  0.36820955168E+02  0.00000000000E+00 0.  1.
         11    1    4    4    0    0 -0.91590202454E+01  0.13626071694E+02  0.61252365602E+01  0.17523584246E+02  0.51100000000E-03 0. -1.
        -11    1    4    4    0    0  0.10511336062E+02  0.10052302660E+01  0.94512192086E+01  0.14171246187E+02  0.51100000000E-03 0.  1.
         12    1    4    4    0    0  0.78035448624E+01 -0.84330767051E+01  0.19545260567E+02  0.22672214399E+02  0.00000000000E+00 0. -1.
</event>
<event>
 8    1  0.2432279E-006  0.9118800E+02  0.7816164E-02  0.1184000E+00
        -11   -1    0    0    0    0  0.00000000000E+00  0.00000000000E+00  0.45593999997E+02  0.45594000000E+02  0.51100000000E-03 0.  1.
         11   -1    0    0    0    0 -0.00000000000E+00 -0.00000000000E+00 -0.45593999997E+02  0.45594000000E+02  0.51100000000E-03 0. -1.
         23    2    1    2    0    0 -0.35527136788E-14  0.17763568394E-14  0.00000000000E+00  0.91188000000E+02  0.91188000000E+02 0.  0.
    9900012    2    3    3    0    0  0.29386817576E+02  0.63760161040E+01  0.21249510375E+02  0.54367077690E+02  0.39999985209E+02 0.  0.
         12    1    3    3    0    0 -0.29386817576E+02 -0.63760161040E+01 -0.21249510375E+02  0.36820922310E+02  0.00000000000E+00 0. -1.
         11    1    4    4    0    0  0.66942142797E+01  0.89057552134E+01 -0.14005823784E+01  0.11228829503E+02  0.51100000000E-03 0. -1.
        -11    1    4    4    0    0  0.71047362462E+01  0.12563064585E+02  0.12873617478E+02  0.19340059362E+02  0.51100000000E-03 0.  1.
         12    1    4    4    0    0  0.15587867050E+02 -0.15092803695E+02  0.97764752756E+01  0.23798188825E+02  0.00000000000E+00 0. -1.
</event>
<event>
 8    1  0.2432279E-006  0.9118800E+02  0.7816164E-02  0.1184000E+00
        -11   -1    0    0    0    0  0.00000000000E+00  0.00000000000E+00  0.45593999997E+02  0.45594000000E+02  0.51100000000E-03 0. -1.
         11   -1    0    0    0    0 -0.00000000000E+00 -0.00000000000E+00 -0.45593999997E+02  0.45594000000E+02  0.51100000000E-03 0.  1.
         23    2    1    2    0    0  0.00000000000E+00  0.35527136788E-14 -0.17763568394E-14  0.91188000000E+02  0.91188000000E+02 0.  0.
    9900012    2    3    3    0    0 -0.15969854854E+02  0.29284620711E+02  0.15593409816E+02  0.54367086052E+02  0.40000004274E+02 0.  0.
        -12    1    3    3    0    0  0.15969854854E+02 -0.29284620711E+02 -0.15593409816E+02  0.36820913948E+02  0.00000000000E+00 0.  1.
         11    1    4    4    0    0 -0.25163408067E+01  0.29452916772E+02 -0.38766220182E+00  0.29562756294E+02  0.51100000000E-03 0.  1.
        -11    1    4    4    0    0 -0.91153684569E+01  0.11672496189E+00  0.17872547460E+02  0.20063188177E+02  0.51100000000E-03 0. -1.
        -12    1    4    4    0    0 -0.43381455904E+01 -0.28502102315E+00 -0.18914754430E+01  0.47411415818E+01  0.00000000000E+00 0.  1.
</event>
<event>
 8    1  0.2432279E-006  0.9118800E+02  0.7816164E-02  0.1184000E+00
        -11   -1    0    0    0    0  0.00000000000E+00  0.00000000000E+00  0.45593999997E+02  0.45594000000E+02  0.51100000000E-03 0.  1.
         11   -1    0    0    0    0 -0.00000000000E+00 -0.00000000000E+00 -0.45593999997E+02  0.45594000000E+02  0.51100000000E-03 0. -1.
         23    2    1    2    0    0  0.00000000000E+00  0.35527136788E-14  0.17763568394E-14  0.91188000000E+02  0.91188000000E+02 0.  0.
    9900012    2    3    3    0    0 -0.22000596768E+02 -0.25617183367E+02  0.14680236446E+02  0.54367140641E+02  0.40000128719E+02 0.  0.
         12    1    3    3    0    0  0.22000596768E+02  0.25617183367E+02 -0.14680236446E+02  0.36820859359E+02  0.00000000000E+00 0. -1.
         11    1    4    4    0    0 -0.64114372126E+01 -0.17886604413E+02  0.49817617082E+01  0.19643194611E+02  0.51100000000E-03 0.  1.
        -11    1    4    4    0    0 -0.16168297612E+02  0.37982748250E+01  0.14666081116E+02  0.22157045716E+02  0.51100000000E-03 0. -1.
         12    1    4    4    0    0  0.57913805705E+00 -0.11528853779E+02 -0.49676063781E+01  0.12566900313E+02  0.00000000000E+00 0. -1.
</event>
<event>
 8    1  0.2432279E-006  0.9118800E+02  0.7816164E-02  0.1184000E+00
        -11   -1    0    0    0    0  0.00000000000E+00  0.00000000000E+00  0.45593999997E+02  0.45594000000E+02  0.51100000000E-03 0.  1.
         11   -1    0    0    0    0 -0.00000000000E+00 -0.00000000000E+00 -0.45593999997E+02  0.45594000000E+02  0.51100000000E-03 0. -1.
         23    2    1    2    0    0  0.00000000000E+00  0.00000000000E+00  0.00000000000E+00  0.91188000000E+02  0.91188000000E+02 0.  0.
    9900012    2    3    3    0    0  0.22702166320E+02  0.22089669886E+02  0.18773327382E+02  0.54367086211E+02  0.40000004635E+02 0.  0.
         12    1    3    3    0    0 -0.22702166320E+02 -0.22089669886E+02 -0.18773327382E+02  0.36820913789E+02  0.00000000000E+00 0. -1.
         11    1    4    4    0    0  0.20146659996E+02  0.16284470017E+02  0.18893547731E+01  0.25973862525E+02  0.51100000000E-03 0. -1.
        -11    1    4    4    0    0 -0.79815607098E+01  0.85794394827E+01  0.10679276274E+02  0.15854306519E+02  0.51100000000E-03 0.  1.
        -12    1    4    4    0    0  0.10537067034E+02 -0.27742396141E+01  0.62046963353E+01  0.12538917167E+02  0.00000000000E+00 0.  1.
</event>
<event>
 8    1  0.2432279E-006  0.9118800E+02  0.7816164E-02  0.1184000E+00
        -11   -1    0    0    0    0  0.00000000000E+00  0.00000000000E+00  0.45593999997E+02  0.45594000000E+02  0.51100000000E-03 0.  1.
         11   -1    0    0    0    0 -0.00000000000E+00 -0.00000000000E+00 -0.45593999997E+02  0.45594000000E+02  0.51100000000E-03 0. -1.
         23    2    1    2    0    0  0.00000000000E+00  0.35527136788E-14  0.00000000000E+00  0.91188000000E+02  0.91188000000E+02 0.  0.
    9900012    2    3    3    0    0 -0.22619782839E+02 -0.25261866102E+02 -0.14351405205E+02  0.54367091728E+02  0.40000017212E+02 0.  0.
        -12    1    3    3    0    0  0.22619782839E+02  0.25261866102E+02  0.14351405205E+02  0.36820908272E+02  0.00000000000E+00 0.  1.
         11    1    4    4    0    0 -0.26309786133E+02 -0.42205022977E+01 -0.88176052857E+01  0.28067198814E+02  0.51100000000E-03 0. -1.
        -11    1    4    4    0    0  0.23830163257E+01  0.10373355885E+01  0.16102118967E+01  0.30573868818E+01  0.51100000000E-03 0.  1.
         12    1    4    4    0    0  0.13069869690E+01 -0.22078699393E+02 -0.71440118157E+01  0.23242506032E+02  0.00000000000E+00 0. -1.
</event>
<event>
 8    1  0.2432279E-006  0.9118800E+02  0.7816164E-02  0.1184000E+00
        -11   -1    0    0    0    0  0.00000000000E+00  0.00000000000E+00  0.45593999997E+02  0.45594000000E+02  0.51100000000E-03 0. -1.
         11   -1    0    0    0    0 -0.00000000000E+00 -0.00000000000E+00 -0.45593999997E+02  0.45594000000E+02  0.51100000000E-03 0.  1.
         23    2    1    2    0    0  0.00000000000E+00  0.00000000000E+00  0.88817841970E-15  0.91188000000E+02  0.91188000000E+02 0.  0.
    9900012    2    3    3    0    0 -0.36139189414E+02 -0.12754186134E+01 -0.69369734958E+01  0.54366955672E+02  0.39999707045E+02 0.  0.
        -12    1    3    3    0    0  0.36139189414E+02  0.12754186134E+01  0.69369734958E+01  0.36821044328E+02  0.00000000000E+00 0.  1.
         11    1    4    4    0    0 -0.21243498319E+02 -0.23318058885E+01  0.81981210985E+01  0.22889576871E+02  0.51100000000E-03 0. -1.
        -11    1    4    4    0    0 -0.18741786046E+02  0.71355019798E+01 -0.13266068890E+02  0.24044927048E+02  0.51100000000E-03 0.  1.
        -12    1    4    4    0    0  0.38460949517E+01 -0.60791147047E+01 -0.18690257047E+01  0.74324517526E+01  0.00000000000E+00 0.  1.
</event>
<event>
 8    1  0.2432279E-006  0.9118800E+02  0.7816164E-02  0.1184000E+00
        -11   -1    0    0    0    0  0.00000000000E+00  0.00000000000E+00  0.45593999997E+02  0.45594000000E+02  0.51100000000E-03 0. -1.
         11   -1    0    0    0    0 -0.00000000000E+00 -0.00000000000E+00 -0.45593999997E+02  0.45594000000E+02  0.51100000000E-03 0.  1.
         23    2    1    2    0    0  0.00000000000E+00  0.00000000000E+00  0.17763568394E-14  0.91188000000E+02  0.91188000000E+02 0.  0.
    9900012    2    3    3    0    0 -0.35624882038E+02  0.40166927462E+01 -0.83972869253E+01  0.54367075669E+02  0.39999980603E+02 0.  0.
         12    1    3    3    0    0  0.35624882038E+02 -0.40166927462E+01  0.83972869253E+01  0.36820924331E+02  0.00000000000E+00 0. -1.
         11    1    4    4    0    0 -0.88309773197E+01  0.99021183361E+01 -0.12818143467E+02  0.18448385029E+02  0.51100000000E-03 0. -1.
        -11    1    4    4    0    0 -0.60513819164E+01 -0.47727603489E+01 -0.84857037504E+01  0.11463229599E+02  0.51100000000E-03 0.  1.
         12    1    4    4    0    0 -0.20742522802E+02 -0.11126652411E+01  0.12906560292E+02  0.24455461041E+02  0.00000000000E+00 0. -1.
</event>
<event>
 8    1  0.2432279E-006  0.9118800E+02  0.7816164E-02  0.1184000E+00
        -11   -1    0    0    0    0  0.00000000000E+00  0.00000000000E+00  0.45593999997E+02  0.45594000000E+02  0.51100000000E-03 0.  1.
         11   -1    0    0    0    0 -0.00000000000E+00 -0.00000000000E+00 -0.45593999997E+02  0.45594000000E+02  0.51100000000E-03 0. -1.
         23    2    1    2    0    0  0.00000000000E+00  0.35527136788E-14  0.00000000000E+00  0.91188000000E+02  0.91188000000E+02 0.  0.
    9900012    2    3    3    0    0 -0.19458678523E+02 -0.21617529794E+02 -0.22579234575E+02  0.54367087488E+02  0.40000007545E+02 0.  0.
         12    1    3    3    0    0  0.19458678523E+02  0.21617529794E+02  0.22579234575E+02  0.36820912512E+02  0.00000000000E+00 0. -1.
         11    1    4    4    0    0  0.36491784521E+01 -0.20631395682E+02 -0.71067444323E+01  0.22124122759E+02  0.51100000000E-03 0. -1.
        -11    1    4    4    0    0 -0.15359559982E+02 -0.30728496951E+01 -0.17970289426E+02  0.23838829468E+02  0.51100000000E-03 0.  1.
        -12    1    4    4    0    0 -0.77482969934E+01  0.20867155829E+01  0.24977992834E+01  0.84041352609E+01  0.00000000000E+00 0.  1.
</event>
<event>
 8    1  0.2432279E-006  0.9118800E+02  0.7816164E-02  0.1184000E+00
        -11   -1    0    0    0    0  0.00000000000E+00  0.00000000000E+00  0.45593999997E+02  0.45594000000E+02  0.51100000000E-03 0.  1.
         11   -1    0    0    0    0 -0.00000000000E+00 -0.00000000000E+00 -0.45593999997E+02  0.45594000000E+02  0.51100000000E-03 0. -1.
         23    2    1    2    0    0 -0.17763568394E-14  0.35527136788E-14  0.35527136788E-14  0.91188000000E+02  0.91188000000E+02 0.  0.
    9900012    2    3    3    0    0 -0.13169860325E+02  0.18631667033E+02  0.28899697381E+02  0.54367126217E+02  0.40000095837E+02 0.  0.
         12    1    3    3    0    0  0.13169860325E+02 -0.18631667033E+02 -0.28899697381E+02  0.36820873783E+02  0.00000000000E+00 0. -1.
         11    1    4    4    0    0  0.72949767009E+01  0.11070881375E+02 -0.17081198546E+01  0.13367826046E+02  0.51100000000E-03 0.  1.
        -11    1    4    4    0    0 -0.68298565849E+01 -0.48453246690E+01  0.13278666434E+02  0.15698633528E+02  0.51100000000E-03 0. -1.
        -12    1    4    4    0    0 -0.13634980441E+02  0.12406110327E+02  0.17329150802E+02  0.25300666643E+02  0.00000000000E+00 0.  1.
</event>
<event>
 8    1  0.2432279E-006  0.9118800E+02  0.7816164E-02  0.1184000E+00
        -11   -1    0    0    0    0  0.00000000000E+00  0.00000000000E+00  0.45593999997E+02  0.45594000000E+02  0.51100000000E-03 0.  1.
         11   -1    0    0    0    0 -0.00000000000E+00 -0.00000000000E+00 -0.45593999997E+02  0.45594000000E+02  0.51100000000E-03 0. -1.
         23    2    1    2    0    0  0.00000000000E+00 -0.35527136788E-14 -0.35527136788E-14  0.91188000000E+02  0.91188000000E+02 0.  0.
    9900012    2    3    3    0    0  0.13145134416E+02  0.24019992213E+02  0.24617587295E+02  0.54367079467E+02  0.39999989260E+02 0.  0.
         12    1    3    3    0    0 -0.13145134416E+02 -0.24019992213E+02 -0.24617587295E+02  0.36820920533E+02  0.00000000000E+00 0. -1.
         11    1    4    4    0    0  0.61093844281E+01 -0.59943584163E+00 -0.51742045780E+01  0.80284677675E+01  0.51100000000E-03 0. -1.
        -11    1    4    4    0    0  0.15623326472E+02  0.10954673175E+02  0.18974837093E+02  0.26909805599E+02  0.51100000000E-03 0.  1.
        -12    1    4    4    0    0 -0.85875764834E+01  0.13664754879E+02  0.10816954779E+02  0.19428806100E+02  0.00000000000E+00 0.  1.
</event>
<event>
 8    1  0.2432279E-006  0.9118800E+02  0.7816164E-02  0.1184000E+00
        -11   -1    0    0    0    0  0.00000000000E+00  0.00000000000E+00  0.45593999997E+02  0.45594000000E+02  0.51100000000E-03 0. -1.
         11   -1    0    0    0    0 -0.00000000000E+00 -0.00000000000E+00 -0.45593999997E+02  0.45594000000E+02  0.51100000000E-03 0.  1.
         23    2    1    2    0    0 -0.28865798640E-14  0.00000000000E+00  0.00000000000E+00  0.91188000000E+02  0.91188000000E+02 0.  0.
    9900012    2    3    3    0    0  0.10830452841E+01 -0.23638792284E+02 -0.28210183647E+02  0.54367082723E+02  0.39999996684E+02 0.  0.
         12    1    3    3    0    0 -0.10830452841E+01  0.23638792284E+02  0.28210183647E+02  0.36820917277E+02  0.00000000000E+00 0. -1.
         11    1    4    4    0    0  0.15454156455E+02 -0.13822862749E+02 -0.86553196330E+01  0.22468133980E+02  0.51100000000E-03 0. -1.
        -11    1    4    4    0    0 -0.42367379146E+01 -0.64532984381E+01 -0.19765107701E+02  0.21219201012E+02  0.51100000000E-03 0.  1.
         12    1    4    4    0    0 -0.10134373256E+02 -0.33626310972E+01  0.21024368773E+00  0.10679747731E+02  0.00000000000E+00 0. -1.
</event>
<event>
 8    1  0.2432279E-006  0.9118800E+02  0.7816164E-02  0.1184000E+00
        -11   -1    0    0    0    0  0.00000000000E+00  0.00000000000E+00  0.45593999997E+02  0.45594000000E+02  0.51100000000E-03 0.  1.
         11   -1    0    0    0    0 -0.00000000000E+00 -0.00000000000E+00 -0.45593999997E+02  0.45594000000E+02  0.51100000000E-03 0. -1.
         23    2    1    2    0    0  0.00000000000E+00  0.00000000000E+00  0.00000000000E+00  0.91188000000E+02  0.91188000000E+02 0.  0.
    9900012    2    3    3    0    0 -0.30466342787E+02 -0.20655526242E+02  0.96476129946E+00  0.54367087851E+02  0.40000008373E+02 0.  0.
         12    1    3    3    0    0  0.30466342787E+02  0.20655526242E+02 -0.96476129946E+00  0.36820912149E+02  0.00000000000E+00 0. -1.
         11    1    4    4    0    0 -0.27066087177E+02  0.38111615680E+01 -0.37079861457E+01  0.27583458613E+02  0.51100000000E-03 0. -1.
        -11    1    4    4    0    0 -0.64919546570E+01 -0.15301538770E+02  0.39465027452E+01  0.17083835875E+02  0.51100000000E-03 0.  1.
         12    1    4    4    0    0  0.30916990470E+01 -0.91651490398E+01  0.72624469991E+00  0.96997933629E+01  0.00000000000E+00 0. -1.
</event>
<event>
 8    1  0.2432279E-006  0.9118800E+02  0.7816164E-02  0.1184000E+00
        -11   -1    0    0    0    0  0.00000000000E+00  0.00000000000E+00  0.45593999997E+02  0.45594000000E+02  0.51100000000E-03 0. -1.
         11   -1    0    0    0    0 -0.00000000000E+00 -0.00000000000E+00 -0.45593999997E+02  0.45594000000E+02  0.51100000000E-03 0.  1.
         23    2    1    2    0    0  0.00000000000E+00  0.35527136788E-14 -0.17763568394E-14  0.91188000000E+02  0.91188000000E+02 0.  0.
    9900012    2    3    3    0    0  0.17222167164E+02  0.29146491599E+02  0.14479608653E+02  0.54367080931E+02  0.39999992597E+02 0.  0.
        -12    1    3    3    0    0 -0.17222167164E+02 -0.29146491599E+02 -0.14479608653E+02  0.36820919069E+02  0.00000000000E+00 0.  1.
         11    1    4    4    0    0 -0.41095244872E+01  0.20933647576E+00  0.33023622975E+01  0.52761359228E+01  0.51100000000E-03 0. -1.
        -11    1    4    4    0    0  0.13440511532E+02  0.28614225663E+02 -0.41143713008E+01  0.31880233876E+02  0.51100000000E-03 0.  1.
        -12    1    4    4    0    0  0.78911801200E+01  0.32292946047E+00  0.15291617656E+02  0.17210711132E+02  0.00000000000E+00 0.  1.
</event>
<event>
 8    1  0.2432279E-006  0.9118800E+02  0.7816164E-02  0.1184000E+00
        -11   -1    0    0    0    0  0.00000000000E+00  0.00000000000E+00  0.45593999997E+02  0.45594000000E+02  0.51100000000E-03 0.  1.
         11   -1    0    0    0    0 -0.00000000000E+00 -0.00000000000E+00 -0.45593999997E+02  0.45594000000E+02  0.51100000000E-03 0. -1.
         23    2    1    2    0    0  0.00000000000E+00 -0.17763568394E-14 -0.71054273576E-14  0.91188000000E+02  0.91188000000E+02 0.  0.
    9900012    2    3    3    0    0 -0.91501089787E+01  0.83626413364E+01 -0.34671847102E+02  0.54366875005E+02  0.39999523147E+02 0.  0.
        -12    1    3    3    0    0  0.91501089787E+01 -0.83626413364E+01  0.34671847102E+02  0.36821124995E+02  0.00000000000E+00 0.  1.
         11    1    4    4    0    0 -0.38440296891E+01  0.23748054531E+02 -0.17463495658E+02  0.29727434115E+02  0.51100000000E-03 0. -1.
        -11    1    4    4    0    0  0.14626172587E+01 -0.48969299891E+01 -0.42541191175E+01  0.66495640677E+01  0.51100000000E-03 0.  1.
         12    1    4    4    0    0 -0.67686965482E+01 -0.10488483205E+02 -0.12954232326E+02  0.17989876822E+02  0.00000000000E+00 0. -1.
</event>
<event>
 8    1  0.2432279E-006  0.9118800E+02  0.7816164E-02  0.1184000E+00
        -11   -1    0    0    0    0  0.00000000000E+00  0.00000000000E+00  0.45593999997E+02  0.45594000000E+02  0.51100000000E-03 0.  1.
         11   -1    0    0    0    0 -0.00000000000E+00 -0.00000000000E+00 -0.45593999997E+02  0.45594000000E+02  0.51100000000E-03 0. -1.
         23    2    1    2    0    0  0.00000000000E+00  0.22204460493E-15  0.00000000000E+00  0.91188000000E+02  0.91188000000E+02 0.  0.
    9900012    2    3    3    0    0 -0.22059003787E+02 -0.15382072962E+01  0.29441704673E+02  0.54367086054E+02  0.40000004278E+02 0.  0.
         12    1    3    3    0    0  0.22059003787E+02  0.15382072962E+01 -0.29441704673E+02  0.36820913946E+02  0.00000000000E+00 0. -1.
         11    1    4    4    0    0 -0.22125653820E+02  0.34269348897E+01  0.22979505718E+01  0.22507088146E+02  0.51100000000E-03 0. -1.
        -11    1    4    4    0    0 -0.69821713012E+01  0.75232650291E+00  0.78169048861E+01  0.10508126070E+02  0.51100000000E-03 0.  1.
         12    1    4    4    0    0  0.70488213347E+01 -0.57174686887E+01  0.19326849215E+02  0.21351871838E+02  0.00000000000E+00 0. -1.
</event>
<event>
 8    1  0.2432279E-006  0.9118800E+02  0.7816164E-02  0.1184000E+00
        -11   -1    0    0    0    0  0.00000000000E+00  0.00000000000E+00  0.45593999997E+02  0.45594000000E+02  0.51100000000E-03 0.  1.
         11   -1    0    0    0    0 -0.00000000000E+00 -0.00000000000E+00 -0.45593999997E+02  0.45594000000E+02  0.51100000000E-03 0. -1.
         23    2    1    2    0    0  0.00000000000E+00 -0.35527136788E-14  0.00000000000E+00  0.91188000000E+02  0.91188000000E+02 0.  0.
    9900012    2    3    3    0    0 -0.19073415946E+02  0.30289671836E+02  0.86324546860E+01  0.54367099825E+02  0.40000035671E+02 0.  0.
        -12    1    3    3    0    0  0.19073415946E+02 -0.30289671836E+02 -0.86324546860E+01  0.36820900175E+02  0.00000000000E+00 0.  1.
         11    1    4    4    0    0 -0.11210247802E+02  0.22646667690E+02  0.12955657729E+02  0.28397011827E+02  0.51100000000E-03 0. -1.
        -11    1    4    4    0    0  0.22349708648E+01  0.11875822212E+02  0.34205653299E+01  0.12559080994E+02  0.51100000000E-03 0.  1.
         12    1    4    4    0    0 -0.10098139009E+02 -0.42328180665E+01 -0.77437683728E+01  0.13411007003E+02  0.00000000000E+00 0. -1.
</event>
<event>
 8    1  0.2432279E-006  0.9118800E+02  0.7816164E-02  0.1184000E+00
        -11   -1    0    0    0    0  0.00000000000E+00  0.00000000000E+00  0.45593999997E+02  0.45594000000E+02  0.51100000000E-03 0.  1.
         11   -1    0    0    0    0 -0.00000000000E+00 -0.00000000000E+00 -0.45593999997E+02  0.45594000000E+02  0.51100000000E-03 0. -1.
         23    2    1    2    0    0  0.17763568394E-14 -0.35527136788E-14 -0.17763568394E-14  0.91188000000E+02  0.91188000000E+02 0.  0.
    9900012    2    3    3    0    0 -0.15952008561E+02  0.30926923671E+02 -0.12034826619E+02  0.54367105977E+02  0.40000049696E+02 0.  0.
         12    1    3    3    0    0  0.15952008561E+02 -0.30926923671E+02  0.12034826619E+02  0.36820894023E+02  0.00000000000E+00 0. -1.
         11    1    4    4    0    0  0.11629774735E+01 -0.20980369475E+01  0.44436877654E+00  0.24396187217E+01  0.51100000000E-03 0. -1.
        -11    1    4    4    0    0 -0.25287756531E+02  0.23799015719E+02 -0.17171568623E+02  0.38739212032E+02  0.51100000000E-03 0.  1.
        -12    1    4    4    0    0  0.81727704965E+01  0.92259448993E+01  0.46923732273E+01  0.13188275224E+02  0.00000000000E+00 0.  1.
</event>
<event>
 8    1  0.2432279E-006  0.9118800E+02  0.7816164E-02  0.1184000E+00
        -11   -1    0    0    0    0  0.00000000000E+00  0.00000000000E+00  0.45593999997E+02  0.45594000000E+02  0.51100000000E-03 0.  1.
         11   -1    0    0    0    0 -0.00000000000E+00 -0.00000000000E+00 -0.45593999997E+02  0.45594000000E+02  0.51100000000E-03 0. -1.
         23    2    1    2    0    0  0.00000000000E+00 -0.17763568394E-14 -0.71054273576E-14  0.91188000000E+02  0.91188000000E+02 0.  0.
    9900012    2    3    3    0    0 -0.97595841937E+01 -0.14746080949E+02 -0.32296629738E+02  0.54367235757E+02  0.40000345554E+02 0.  0.
        -12    1    3    3    0    0  0.97595841937E+01  0.14746080949E+02  0.32296629738E+02  0.36820764243E+02  0.00000000000E+00 0.  1.
         11    1    4    4    0    0 -0.13848364341E+02  0.44715547866E+01 -0.59051255370E+01  0.15704856096E+02  0.51100000000E-03 0. -1.
        -11    1    4    4    0    0 -0.62813800142E+01  0.53578957096E-01 -0.46617626948E+01  0.78224444562E+01  0.51100000000E-03 0.  1.
        -12    1    4    4    0    0  0.10370160162E+02 -0.19271214693E+02 -0.21729741506E+02  0.30839935205E+02  0.00000000000E+00 0.  1.
</event>
<event>
 8    1  0.2432279E-006  0.9118800E+02  0.7816164E-02  0.1184000E+00
        -11   -1    0    0    0    0  0.00000000000E+00  0.00000000000E+00  0.45593999997E+02  0.45594000000E+02  0.51100000000E-03 0. -1.
         11   -1    0    0    0    0 -0.00000000000E+00 -0.00000000000E+00 -0.45593999997E+02  0.45594000000E+02  0.51100000000E-03 0.  1.
         23    2    1    2    0    0  0.00000000000E+00  0.00000000000E+00  0.00000000000E+00  0.91188000000E+02  0.91188000000E+02 0.  0.
    9900012    2    3    3    0    0  0.96358589926E+01 -0.24554597464E+02  0.25690507270E+02  0.54367079330E+02  0.39999988949E+02 0.  0.
        -12    1    3    3    0    0 -0.96358589926E+01  0.24554597464E+02 -0.25690507270E+02  0.36820920670E+02  0.00000000000E+00 0.  1.
         11    1    4    4    0    0  0.15452124711E+02 -0.59257240216E+01  0.20692718911E+02  0.26496622039E+02  0.51100000000E-03 0. -1.
        -11    1    4    4    0    0  0.17774683008E+01 -0.13234096978E+02 -0.49512918322E+01  0.14241348513E+02  0.51100000000E-03 0.  1.
         12    1    4    4    0    0 -0.75937340192E+01 -0.53947764642E+01  0.99490801914E+01  0.13629108779E+02  0.00000000000E+00 0. -1.
</event>
<event>
 8    1  0.2432279E-006  0.9118800E+02  0.7816164E-02  0.1184000E+00
        -11   -1    0    0    0    0  0.00000000000E+00  0.00000000000E+00  0.45593999997E+02  0.45594000000E+02  0.51100000000E-03 0.  1.
         11   -1    0    0    0    0 -0.00000000000E+00 -0.00000000000E+00 -0.45593999997E+02  0.45594000000E+02  0.51100000000E-03 0. -1.
         23    2    1    2    0    0  0.35527136788E-14 -0.13322676296E-14 -0.35527136788E-14  0.91188000000E+02  0.91188000000E+02 0.  0.
    9900012    2    3    3    0    0 -0.19815520924E+02  0.29400577074E+01  0.30894826410E+02  0.54366958357E+02  0.39999713165E+02 0.  0.
         12    1    3    3    0    0  0.19815520924E+02 -0.29400577074E+01 -0.30894826410E+02  0.36821041643E+02  0.00000000000E+00 0. -1.
         11    1    4    4    0    0 -0.69648045715E+01  0.10377330383E+02  0.60955447202E+01  0.13905148481E+02  0.51100000000E-03 0. -1.
        -11    1    4    4    0    0 -0.10991050278E+02  0.97076548660E+01  0.10151886418E+02  0.17835429552E+02  0.51100000000E-03 0.  1.
        -12    1    4    4    0    0 -0.18596660750E+01 -0.17144927541E+02  0.14647395271E+02  0.22626380323E+02  0.00000000000E+00 0.  1.
</event>
<event>
 8    1  0.2432279E-006  0.9118800E+02  0.7816164E-02  0.1184000E+00
        -11   -1    0    0    0    0  0.00000000000E+00  0.00000000000E+00  0.45593999997E+02  0.45594000000E+02  0.51100000000E-03 0.  1.
         11   -1    0    0    0    0 -0.00000000000E+00 -0.00000000000E+00 -0.45593999997E+02  0.45594000000E+02  0.51100000000E-03 0. -1.
         23    2    1    2    0    0  0.35527136788E-14  0.00000000000E+00  0.35527136788E-14  0.91188000000E+02  0.91188000000E+02 0.  0.
    9900012    2    3    3    0    0 -0.19341054376E+02 -0.20785677129E+02  0.23444812299E+02  0.54367082279E+02  0.39999995671E+02 0.  0.
         12    1    3    3    0    0  0.19341054376E+02  0.20785677129E+02 -0.23444812299E+02  0.36820917721E+02  0.00000000000E+00 0. -1.
         11    1    4    4    0    0  0.66332937338E+01 -0.31948989301E+01  0.70291408057E+01  0.10179233059E+02  0.51100000000E-03 0. -1.
        -11    1    4    4    0    0 -0.12801665811E+02 -0.13828528501E+02  0.22370833673E+02  0.29250043547E+02  0.51100000000E-03 0.  1.
         12    1    4    4    0    0 -0.13172682299E+02 -0.37622496976E+01 -0.59551621789E+01  0.14937805673E+02  0.00000000000E+00 0. -1.
</event>
<event>
 8    1  0.2432279E-006  0.9118800E+02  0.7816164E-02  0.1184000E+00
        -11   -1    0    0    0    0  0.00000000000E+00  0.00000000000E+00  0.45593999997E+02  0.45594000000E+02  0.51100000000E-03 0.  1.
         11   -1    0    0    0    0 -0.00000000000E+00 -0.00000000000E+00 -0.45593999997E+02  0.45594000000E+02  0.51100000000E-03 0. -1.
         23    2    1    2    0    0  0.00000000000E+00  0.35527136788E-14 -0.35527136788E-14  0.91188000000E+02  0.91188000000E+02 0.  0.
    9900012    2    3    3    0    0 -0.80969820871E+01  0.24576507849E+02 -0.26195706174E+02  0.54367070097E+02  0.39999967900E+02 0.  0.
        -12    1    3    3    0    0  0.80969820871E+01 -0.24576507849E+02  0.26195706174E+02  0.36820929903E+02  0.00000000000E+00 0.  1.
         11    1    4    4    0    0  0.99075171212E+00  0.29388467018E+02 -0.79156192280E+01  0.30451939357E+02  0.51100000000E-03 0. -1.
        -11    1    4    4    0    0 -0.86291108132E+01  0.86181549155E+00 -0.15051440605E+02  0.17370956909E+02  0.51100000000E-03 0.  1.
         12    1    4    4    0    0 -0.45862298595E+00 -0.56737746603E+01 -0.32286463409E+01  0.65441738313E+01  0.00000000000E+00 0. -1.
</event>
<event>
 8    1  0.2432279E-006  0.9118800E+02  0.7816164E-02  0.1184000E+00
        -11   -1    0    0    0    0  0.00000000000E+00  0.00000000000E+00  0.45593999997E+02  0.45594000000E+02  0.51100000000E-03 0. -1.
         11   -1    0    0    0    0 -0.00000000000E+00 -0.00000000000E+00 -0.45593999997E+02  0.45594000000E+02  0.51100000000E-03 0.  1.
         23    2    1    2    0    0  0.00000000000E+00  0.35527136788E-14  0.00000000000E+00  0.91188000000E+02  0.91188000000E+02 0.  0.
    9900012    2    3    3    0    0 -0.17571279330E+02 -0.28427815313E+02  0.15456057722E+02  0.54367078487E+02  0.39999987026E+02 0.  0.
        -12    1    3    3    0    0  0.17571279330E+02  0.28427815313E+02 -0.15456057722E+02  0.36820921513E+02  0.00000000000E+00 0.  1.
         11    1    4    4    0    0  0.16054788698E+01  0.47337015939E+00  0.71623379998E+00  0.18206133105E+01  0.51100000000E-03 0. -1.
        -11    1    4    4    0    0  0.10986983798E+02 -0.98300649703E+01  0.39052688373E+01  0.15251069315E+02  0.51100000000E-03 0.  1.
         12    1    4    4    0    0 -0.30163741998E+02 -0.19071120502E+02  0.10834555085E+02  0.37295395861E+02  0.00000000000E+00 0. -1.
</event>
<event>
 8    1  0.2432279E-006  0.9118800E+02  0.7816164E-02  0.1184000E+00
        -11   -1    0    0    0    0  0.00000000000E+00  0.00000000000E+00  0.45593999997E+02  0.45594000000E+02  0.51100000000E-03 0.  1.
         11   -1    0    0    0    0 -0.00000000000E+00 -0.00000000000E+00 -0.45593999997E+02  0.45594000000E+02  0.51100000000E-03 0. -1.
         23    2    1    2    0    0  0.00000000000E+00 -0.35527136788E-14  0.00000000000E+00  0.91188000000E+02  0.91188000000E+02 0.  0.
    9900012    2    3    3    0    0  0.18478061341E+02 -0.23322158109E+02  0.21689135098E+02  0.54367076722E+02  0.39999983002E+02 0.  0.
         12    1    3    3    0    0 -0.18478061341E+02  0.23322158109E+02 -0.21689135098E+02  0.36820923278E+02  0.00000000000E+00 0. -1.
         11    1    4    4    0    0  0.14613386827E+02  0.23365443075E+01  0.72144680118E+01  0.16463871441E+02  0.51100000000E-03 0. -1.
        -11    1    4    4    0    0  0.12992338777E+02 -0.11465667327E+02  0.32337422740E+01  0.17627236979E+02  0.51100000000E-03 0.  1.
         12    1    4    4    0    0 -0.91276642633E+01 -0.14193035089E+02  0.11240924813E+02  0.20275968302E+02  0.00000000000E+00 0. -1.
</event>
<event>
 8    1  0.2432279E-006  0.9118800E+02  0.7816164E-02  0.1184000E+00
        -11   -1    0    0    0    0  0.00000000000E+00  0.00000000000E+00  0.45593999997E+02  0.45594000000E+02  0.51100000000E-03 0. -1.
         11   -1    0    0    0    0 -0.00000000000E+00 -0.00000000000E+00 -0.45593999997E+02  0.45594000000E+02  0.51100000000E-03 0.  1.
         23    2    1    2    0    0  0.11102230246E-14 -0.44408920985E-15  0.00000000000E+00  0.91188000000E+02  0.91188000000E+02 0.  0.
    9900012    2    3    3    0    0 -0.10834093782E+01  0.35541989123E+01 -0.36632966809E+02  0.54367077103E+02  0.39999983872E+02 0.  0.
         12    1    3    3    0    0  0.10834093782E+01 -0.35541989123E+01  0.36632966809E+02  0.36820922897E+02  0.00000000000E+00 0. -1.
         11    1    4    4    0    0 -0.15608115706E+02  0.14432161057E+01 -0.98800790438E+01  0.18528683461E+02  0.51100000000E-03 0. -1.
        -11    1    4    4    0    0  0.23669015848E+01 -0.35735683133E+01 -0.20658313530E+02  0.21098306372E+02  0.51100000000E-03 0.  1.
        -12    1    4    4    0    0  0.12157804743E+02  0.56845511199E+01 -0.60945742342E+01  0.14740087269E+02  0.00000000000E+00 0.  1.
</event>
<event>
 8    1  0.2432279E-006  0.9118800E+02  0.7816164E-02  0.1184000E+00
        -11   -1    0    0    0    0  0.00000000000E+00  0.00000000000E+00  0.45593999997E+02  0.45594000000E+02  0.51100000000E-03 0. -1.
         11   -1    0    0    0    0 -0.00000000000E+00 -0.00000000000E+00 -0.45593999997E+02  0.45594000000E+02  0.51100000000E-03 0.  1.
         23    2    1    2    0    0  0.00000000000E+00 -0.17763568394E-14  0.88817841970E-15  0.91188000000E+02  0.91188000000E+02 0.  0.
    9900012    2    3    3    0    0  0.33389080204E+02 -0.13473594701E+02  0.77076870485E+01  0.54367124526E+02  0.40000091981E+02 0.  0.
        -12    1    3    3    0    0 -0.33389080204E+02  0.13473594701E+02 -0.77076870485E+01  0.36820875474E+02  0.00000000000E+00 0.  1.
         11    1    4    4    0    0  0.22936667021E+02 -0.32416424842E+01  0.13531998821E+01  0.23204096410E+02  0.51100000000E-03 0. -1.
        -11    1    4    4    0    0  0.77339264534E+01  0.23008264138E+01  0.14053531923E+02  0.16205220774E+02  0.51100000000E-03 0.  1.
         12    1    4    4    0    0  0.27184867303E+01 -0.12532778631E+02 -0.76990447564E+01  0.14957807342E+02  0.00000000000E+00 0. -1.
</event>
<event>
 8    1  0.2432279E-006  0.9118800E+02  0.7816164E-02  0.1184000E+00
        -11   -1    0    0    0    0  0.00000000000E+00  0.00000000000E+00  0.45593999997E+02  0.45594000000E+02  0.51100000000E-03 0.  1.
         11   -1    0    0    0    0 -0.00000000000E+00 -0.00000000000E+00 -0.45593999997E+02  0.45594000000E+02  0.51100000000E-03 0. -1.
         23    2    1    2    0    0  0.00000000000E+00 -0.88817841970E-15  0.71054273576E-14  0.91188000000E+02  0.91188000000E+02 0.  0.
    9900012    2    3    3    0    0 -0.17374069199E+02  0.13350577668E+01 -0.32436703344E+02  0.54367076823E+02  0.39999983234E+02 0.  0.
        -12    1    3    3    0    0  0.17374069199E+02 -0.13350577668E+01  0.32436703344E+02  0.36820923177E+02  0.00000000000E+00 0.  1.
         11    1    4    4    0    0  0.32942968956E+01  0.99463948025E+01 -0.13492488232E+02  0.17083044241E+02  0.51100000000E-03 0. -1.
        -11    1    4    4    0    0  0.10981685389E+01 -0.15975201504E+01  0.42750224930E+01  0.46940241103E+01  0.51100000000E-03 0.  1.
         12    1    4    4    0    0 -0.21766534634E+02 -0.70138168852E+01 -0.23219237605E+02  0.32590008472E+02  0.00000000000E+00 0. -1.
</event>
<event>
 8    1  0.2432279E-006  0.9118800E+02  0.7816164E-02  0.1184000E+00
        -11   -1    0    0    0    0  0.00000000000E+00  0.00000000000E+00  0.45593999997E+02  0.45594000000E+02  0.51100000000E-03 0.  1.
         11   -1    0    0    0    0 -0.00000000000E+00 -0.00000000000E+00 -0.45593999997E+02  0.45594000000E+02  0.51100000000E-03 0. -1.
         23    2    1    2    0    0  0.17763568394E-14 -0.44408920985E-15  0.00000000000E+00  0.91188000000E+02  0.91188000000E+02 0.  0.
    9900012    2    3    3    0    0 -0.13232853159E+02 -0.36184179635E+01 -0.34169843262E+02  0.54367088280E+02  0.40000009352E+02 0.  0.
        -12    1    3    3    0    0  0.13232853159E+02  0.36184179635E+01  0.34169843262E+02  0.36820911720E+02  0.00000000000E+00 0.  1.
         11    1    4    4    0    0 -0.19496207005E+02 -0.76893553014E+01 -0.33470389196E+02  0.39490444739E+02  0.51100000000E-03 0. -1.
        -11    1    4    4    0    0  0.39818043058E+01  0.75892226574E+01  0.32020815950E+01  0.91490104861E+01  0.51100000000E-03 0.  1.
         12    1    4    4    0    0  0.22815495397E+01 -0.35182853195E+01 -0.39015356615E+01  0.57276330547E+01  0.00000000000E+00 0. -1.
</event>
<event>
 8    1  0.2432279E-006  0.9118800E+02  0.7816164E-02  0.1184000E+00
        -11   -1    0    0    0    0  0.00000000000E+00  0.00000000000E+00  0.45593999997E+02  0.45594000000E+02  0.51100000000E-03 0.  1.
         11   -1    0    0    0    0 -0.00000000000E+00 -0.00000000000E+00 -0.45593999997E+02  0.45594000000E+02  0.51100000000E-03 0. -1.
         23    2    1    2    0    0  0.88817841970E-15  0.00000000000E+00 -0.17763568394E-14  0.91188000000E+02  0.91188000000E+02 0.  0.
    9900012    2    3    3    0    0  0.71094882131E+01  0.34167824887E+02 -0.11738453393E+02  0.54367131349E+02  0.40000107536E+02 0.  0.
        -12    1    3    3    0    0 -0.71094882131E+01 -0.34167824887E+02  0.11738453393E+02  0.36820868651E+02  0.00000000000E+00 0.  1.
         11    1    4    4    0    0 -0.71941849974E+01  0.14188352028E+02 -0.18595216362E+02  0.24471364957E+02  0.51100000000E-03 0. -1.
        -11    1    4    4    0    0  0.16124664605E+02  0.14853562557E+02  0.10638494020E+01  0.21949143607E+02  0.51100000000E-03 0.  1.
         12    1    4    4    0    0 -0.18209913950E+01  0.51259103012E+01  0.57929135675E+01  0.79466227844E+01  0.00000000000E+00 0. -1.
</event>
<event>
 8    1  0.2432279E-006  0.9118800E+02  0.7816164E-02  0.1184000E+00
        -11   -1    0    0    0    0  0.00000000000E+00  0.00000000000E+00  0.45593999997E+02  0.45594000000E+02  0.51100000000E-03 0. -1.
         11   -1    0    0    0    0 -0.00000000000E+00 -0.00000000000E+00 -0.45593999997E+02  0.45594000000E+02  0.51100000000E-03 0.  1.
         23    2    1    2    0    0  0.00000000000E+00 -0.35527136788E-14  0.35527136788E-14  0.91188000000E+02  0.91188000000E+02 0.  0.
    9900012    2    3    3    0    0 -0.89260513224E+01  0.22546828720E+02 -0.27708194002E+02  0.54367110652E+02  0.40000060352E+02 0.  0.
         12    1    3    3    0    0  0.89260513224E+01 -0.22546828720E+02  0.27708194002E+02  0.36820889348E+02  0.00000000000E+00 0. -1.
         11    1    4    4    0    0 -0.86982435458E+01  0.59236691410E+01 -0.19441599061E+02  0.22107127158E+02  0.51100000000E-03 0. -1.
        -11    1    4    4    0    0 -0.30965882309E+01 -0.68543164675E+01 -0.16566886254E+01  0.77016316694E+01  0.51100000000E-03 0.  1.
         12    1    4    4    0    0  0.28687804544E+01  0.23477476047E+02 -0.66099063161E+01  0.24558351824E+02  0.00000000000E+00 0. -1.
</event>
<event>
 8    1  0.2432279E-006  0.9118800E+02  0.7816164E-02  0.1184000E+00
        -11   -1    0    0    0    0  0.00000000000E+00  0.00000000000E+00  0.45593999997E+02  0.45594000000E+02  0.51100000000E-03 0. -1.
         11   -1    0    0    0    0 -0.00000000000E+00 -0.00000000000E+00 -0.45593999997E+02  0.45594000000E+02  0.51100000000E-03 0.  1.
         23    2    1    2    0    0 -0.35527136788E-14  0.00000000000E+00  0.35527136788E-14  0.91188000000E+02  0.91188000000E+02 0.  0.
    9900012    2    3    3    0    0  0.15858653397E+02 -0.13519300468E+02 -0.30356411462E+02  0.54367080816E+02  0.39999992336E+02 0.  0.
         12    1    3    3    0    0 -0.15858653397E+02  0.13519300468E+02  0.30356411462E+02  0.36820919184E+02  0.00000000000E+00 0. -1.
         11    1    4    4    0    0 -0.82848829183E+01  0.37994219419E+01 -0.13740943256E+02  0.16489039205E+02  0.51100000000E-03 0. -1.
        -11    1    4    4    0    0  0.13935186092E+02 -0.15102223770E+02 -0.18028537660E+02  0.27336692277E+02  0.51100000000E-03 0.  1.
         12    1    4    4    0    0  0.10208350223E+02 -0.22164986398E+01  0.14130694541E+01  0.10541349334E+02  0.00000000000E+00 0. -1.
</event>
<event>
 8    1  0.2432279E-006  0.9118800E+02  0.7816164E-02  0.1184000E+00
        -11   -1    0    0    0    0  0.00000000000E+00  0.00000000000E+00  0.45593999997E+02  0.45594000000E+02  0.51100000000E-03 0.  1.
         11   -1    0    0    0    0 -0.00000000000E+00 -0.00000000000E+00 -0.45593999997E+02  0.45594000000E+02  0.51100000000E-03 0. -1.
         23    2    1    2    0    0  0.00000000000E+00  0.00000000000E+00 -0.35527136788E-14  0.91188000000E+02  0.91188000000E+02 0.  0.
    9900012    2    3    3    0    0 -0.16169176411E+02 -0.25367743600E+02  0.21232413754E+02  0.54367081014E+02  0.39999992788E+02 0.  0.
         12    1    3    3    0    0  0.16169176411E+02  0.25367743600E+02 -0.21232413754E+02  0.36820918986E+02  0.00000000000E+00 0. -1.
         11    1    4    4    0    0 -0.46021044514E+01 -0.92802997470E+01  0.95326104529E+01  0.14077428426E+02  0.51100000000E-03 0. -1.
        -11    1    4    4    0    0 -0.16176792235E+02 -0.15716087408E+02  0.20416371160E+02  0.30422232365E+02  0.51100000000E-03 0.  1.
         12    1    4    4    0    0  0.46097202754E+01 -0.37135644466E+00 -0.87165678594E+01  0.98674202238E+01  0.00000000000E+00 0. -1.
</event>
<event>
 8    1  0.2432279E-006  0.9118800E+02  0.7816164E-02  0.1184000E+00
        -11   -1    0    0    0    0  0.00000000000E+00  0.00000000000E+00  0.45593999997E+02  0.45594000000E+02  0.51100000000E-03 0.  1.
         11   -1    0    0    0    0 -0.00000000000E+00 -0.00000000000E+00 -0.45593999997E+02  0.45594000000E+02  0.51100000000E-03 0. -1.
         23    2    1    2    0    0  0.00000000000E+00  0.00000000000E+00  0.00000000000E+00  0.91188000000E+02  0.91188000000E+02 0.  0.
    9900012    2    3    3    0    0  0.10545291571E+02  0.10280268123E+02 -0.33747446054E+02  0.54367120025E+02  0.40000081720E+02 0.  0.
        -12    1    3    3    0    0 -0.10545291571E+02 -0.10280268123E+02  0.33747446054E+02  0.36820879975E+02  0.00000000000E+00 0.  1.
         11    1    4    4    0    0  0.27893946166E+01  0.18795010727E+02 -0.13406779377E+02  0.23254566951E+02  0.51100000000E-03 0. -1.
        -11    1    4    4    0    0  0.39719000978E+01 -0.11876510944E+02 -0.27678731558E+01  0.12825311873E+02  0.51100000000E-03 0.  1.
         12    1    4    4    0    0  0.37839968566E+01  0.33617683397E+01 -0.17572793521E+02  0.18287241200E+02  0.00000000000E+00 0. -1.
</event>
<event>
 8    1  0.2432279E-006  0.9118800E+02  0.7816164E-02  0.1184000E+00
        -11   -1    0    0    0    0  0.00000000000E+00  0.00000000000E+00  0.45593999997E+02  0.45594000000E+02  0.51100000000E-03 0. -1.
         11   -1    0    0    0    0 -0.00000000000E+00 -0.00000000000E+00 -0.45593999997E+02  0.45594000000E+02  0.51100000000E-03 0.  1.
         23    2    1    2    0    0  0.17763568394E-14  0.00000000000E+00  0.00000000000E+00  0.91188000000E+02  0.91188000000E+02 0.  0.
    9900012    2    3    3    0    0 -0.10715392519E+02 -0.24683385976E+02  0.25133452662E+02  0.54367087155E+02  0.40000006786E+02 0.  0.
        -12    1    3    3    0    0  0.10715392519E+02  0.24683385976E+02 -0.25133452662E+02  0.36820912845E+02  0.00000000000E+00 0.  1.
         11    1    4    4    0    0 -0.17014836640E+02 -0.15716621983E+02  0.23289777252E+02  0.32847078974E+02  0.51100000000E-03 0. -1.
        -11    1    4    4    0    0 -0.13312610674E+01 -0.11885866553E+02 -0.25712259135E+01  0.12233449338E+02  0.51100000000E-03 0.  1.
         12    1    4    4    0    0  0.76307051884E+01  0.29191025606E+01  0.44149013240E+01  0.92865588423E+01  0.00000000000E+00 0. -1.
</event>
<event>
 8    1  0.2432279E-006  0.9118800E+02  0.7816164E-02  0.1184000E+00
        -11   -1    0    0    0    0  0.00000000000E+00  0.00000000000E+00  0.45593999997E+02  0.45594000000E+02  0.51100000000E-03 0.  1.
         11   -1    0    0    0    0 -0.00000000000E+00 -0.00000000000E+00 -0.45593999997E+02  0.45594000000E+02  0.51100000000E-03 0. -1.
         23    2    1    2    0    0 -0.17763568394E-14  0.88817841970E-15  0.00000000000E+00  0.91188000000E+02  0.91188000000E+02 0.  0.
    9900012    2    3    3    0    0  0.83369179572E+01 -0.69323164209E+01  0.35188330767E+02  0.54367084284E+02  0.40000000242E+02 0.  0.
         12    1    3    3    0    0 -0.83369179572E+01  0.69323164209E+01 -0.35188330767E+02  0.36820915716E+02  0.00000000000E+00 0. -1.
         11    1    4    4    0    0  0.17719664471E+02 -0.18418999530E+02  0.21550548854E+02  0.33431604939E+02  0.51100000000E-03 0.  1.
        -11    1    4    4    0    0 -0.77880985821E+00  0.48450919720E+01  0.31490428026E+01  0.58307745494E+01  0.51100000000E-03 0. -1.
        -12    1    4    4    0    0 -0.86039366558E+01  0.66415911372E+01  0.10488739111E+02  0.15104704795E+02  0.00000000000E+00 0.  1.
</event>
<event>
 8    1  0.2432279E-006  0.9118800E+02  0.7816164E-02  0.1184000E+00
        -11   -1    0    0    0    0  0.00000000000E+00  0.00000000000E+00  0.45593999997E+02  0.45594000000E+02  0.51100000000E-03 0.  1.
         11   -1    0    0    0    0 -0.00000000000E+00 -0.00000000000E+00 -0.45593999997E+02  0.45594000000E+02  0.51100000000E-03 0. -1.
         23    2    1    2    0    0 -0.88817841970E-15  0.17763568394E-14  0.00000000000E+00  0.91188000000E+02  0.91188000000E+02 0.  0.
    9900012    2    3    3    0    0 -0.79719176493E+01 -0.90280795631E+01 -0.34795427375E+02  0.54367089395E+02  0.40000011893E+02 0.  0.
        -12    1    3    3    0    0  0.79719176493E+01  0.90280795631E+01  0.34795427375E+02  0.36820910605E+02  0.00000000000E+00 0.  1.
         11    1    4    4    0    0  0.11475364658E+02 -0.11991525395E+02 -0.10386217037E+02  0.19579432574E+02  0.51100000000E-03 0. -1.
        -11    1    4    4    0    0 -0.15303210415E+02 -0.21549950611E+01 -0.86559610691E+01  0.17713213007E+02  0.51100000000E-03 0.  1.
         12    1    4    4    0    0 -0.41440718917E+01  0.51184408929E+01 -0.15753249269E+02  0.17074443814E+02  0.00000000000E+00 0. -1.
</event>
<event>
 8    1  0.2432279E-006  0.9118800E+02  0.7816164E-02  0.1184000E+00
        -11   -1    0    0    0    0  0.00000000000E+00  0.00000000000E+00  0.45593999997E+02  0.45594000000E+02  0.51100000000E-03 0. -1.
         11   -1    0    0    0    0 -0.00000000000E+00 -0.00000000000E+00 -0.45593999997E+02  0.45594000000E+02  0.51100000000E-03 0.  1.
         23    2    1    2    0    0  0.00000000000E+00 -0.53290705182E-14 -0.17763568394E-14  0.91188000000E+02  0.91188000000E+02 0.  0.
    9900012    2    3    3    0    0 -0.36009610852E+02 -0.28035883421E+01  0.71573370698E+01  0.54367086714E+02  0.40000005782E+02 0.  0.
         12    1    3    3    0    0  0.36009610852E+02  0.28035883421E+01 -0.71573370698E+01  0.36820913286E+02  0.00000000000E+00 0. -1.
         11    1    4    4    0    0 -0.18876368701E+02  0.10916742280E+02  0.86736549962E+01  0.23467527535E+02  0.51100000000E-03 0. -1.
        -11    1    4    4    0    0 -0.15410745899E+02 -0.19484832657E+02 -0.14044673164E+01  0.24882168747E+02  0.51100000000E-03 0.  1.
        -12    1    4    4    0    0 -0.17224962516E+01  0.57645020355E+01 -0.11185061000E+00  0.60173904322E+01  0.00000000000E+00 0.  1.
</event>
<event>
 8    1  0.2432279E-006  0.9118800E+02  0.7816164E-02  0.1184000E+00
        -11   -1    0    0    0    0  0.00000000000E+00  0.00000000000E+00  0.45593999997E+02  0.45594000000E+02  0.51100000000E-03 0. -1.
         11   -1    0    0    0    0 -0.00000000000E+00 -0.00000000000E+00 -0.45593999997E+02  0.45594000000E+02  0.51100000000E-03 0.  1.
         23    2    1    2    0    0  0.00000000000E+00  0.00000000000E+00 -0.11102230246E-14  0.91188000000E+02  0.91188000000E+02 0.  0.
    9900012    2    3    3    0    0 -0.36414202123E+02 -0.52987773498E+01 -0.13074652783E+01  0.54367073571E+02  0.39999975819E+02 0.  0.
         12    1    3    3    0    0  0.36414202123E+02  0.52987773498E+01  0.13074652783E+01  0.36820926429E+02  0.00000000000E+00 0. -1.
         11    1    4    4    0    0 -0.21658334971E+01 -0.46478048793E+01 -0.72456355450E+01  0.88764947837E+01  0.51100000000E-03 0. -1.
        -11    1    4    4    0    0 -0.29185799794E+02 -0.27950407920E+01 -0.80971318201E+01  0.30416881934E+02  0.51100000000E-03 0.  1.
         12    1    4    4    0    0 -0.50625688323E+01  0.21440683215E+01  0.14035302087E+02  0.15073696853E+02  0.00000000000E+00 0. -1.
</event>
<event>
 8    1  0.2432279E-006  0.9118800E+02  0.7816164E-02  0.1184000E+00
        -11   -1    0    0    0    0  0.00000000000E+00  0.00000000000E+00  0.45593999997E+02  0.45594000000E+02  0.51100000000E-03 0. -1.
         11   -1    0    0    0    0 -0.00000000000E+00 -0.00000000000E+00 -0.45593999997E+02  0.45594000000E+02  0.51100000000E-03 0.  1.
         23    2    1    2    0    0  0.00000000000E+00  0.00000000000E+00  0.00000000000E+00  0.91188000000E+02  0.91188000000E+02 0.  0.
    9900012    2    3    3    0    0  0.97422768306E+01  0.16751904372E+02  0.31308821641E+02  0.54367074285E+02  0.39999977448E+02 0.  0.
        -12    1    3    3    0    0 -0.97422768306E+01 -0.16751904372E+02 -0.31308821641E+02  0.36820925715E+02  0.00000000000E+00 0.  1.
         11    1    4    4    0    0  0.58054003317E+01  0.12167611102E+02  0.14790783854E+02  0.20013013771E+02  0.51100000000E-03 0. -1.
        -11    1    4    4    0    0 -0.12559076910E+02  0.44783977797E+01  0.97746289342E+01  0.16532689756E+02  0.51100000000E-03 0.  1.
        -12    1    4    4    0    0  0.16495953409E+02  0.10589549002E+00  0.67434088534E+01  0.17821370758E+02  0.00000000000E+00 0.  1.
</event>
<event>
 8    1  0.2432279E-006  0.9118800E+02  0.7816164E-02  0.1184000E+00
        -11   -1    0    0    0    0  0.00000000000E+00  0.00000000000E+00  0.45593999997E+02  0.45594000000E+02  0.51100000000E-03 0.  1.
         11   -1    0    0    0    0 -0.00000000000E+00 -0.00000000000E+00 -0.45593999997E+02  0.45594000000E+02  0.51100000000E-03 0. -1.
         23    2    1    2    0    0 -0.17763568394E-14  0.17763568394E-14 -0.35527136788E-14  0.91188000000E+02  0.91188000000E+02 0.  0.
    9900012    2    3    3    0    0 -0.12030161050E+02  0.13724554667E+02 -0.31979549762E+02  0.54367085038E+02  0.40000001961E+02 0.  0.
        -12    1    3    3    0    0  0.12030161050E+02 -0.13724554667E+02  0.31979549762E+02  0.36820914962E+02  0.00000000000E+00 0.  1.
         11    1    4    4    0    0 -0.46006202111E+01  0.94093511628E+01 -0.16872496675E+02  0.19859071981E+02  0.51100000000E-03 0. -1.
        -11    1    4    4    0    0  0.34881007104E+01  0.10849001259E+02  0.35405512941E+01  0.11933280295E+02  0.51100000000E-03 0.  1.
         12    1    4    4    0    0 -0.10917641550E+02 -0.65337977549E+01 -0.18647604381E+02  0.22574732761E+02  0.00000000000E+00 0. -1.
</event>
<event>
 8    1  0.2432279E-006  0.9118800E+02  0.7816164E-02  0.1184000E+00
        -11   -1    0    0    0    0  0.00000000000E+00  0.00000000000E+00  0.45593999997E+02  0.45594000000E+02  0.51100000000E-03 0.  1.
         11   -1    0    0    0    0 -0.00000000000E+00 -0.00000000000E+00 -0.45593999997E+02  0.45594000000E+02  0.51100000000E-03 0. -1.
         23    2    1    2    0    0  0.00000000000E+00  0.35527136788E-14 -0.17763568394E-14  0.91188000000E+02  0.91188000000E+02 0.  0.
    9900012    2    3    3    0    0 -0.28972487496E+02  0.19747388708E+02 -0.11243413914E+02  0.54367099020E+02  0.40000033837E+02 0.  0.
         12    1    3    3    0    0  0.28972487496E+02 -0.19747388708E+02  0.11243413914E+02  0.36820900980E+02  0.00000000000E+00 0. -1.
         11    1    4    4    0    0 -0.93240966994E+01  0.46566108141E+01 -0.22655853037E+02  0.24938133062E+02  0.51100000000E-03 0. -1.
        -11    1    4    4    0    0 -0.82631969154E+01  0.72802413258E+00  0.62551736886E+01  0.10389304141E+02  0.51100000000E-03 0.  1.
         12    1    4    4    0    0 -0.11385193882E+02  0.14362753761E+02  0.51572654348E+01  0.19039661817E+02  0.00000000000E+00 0. -1.
</event>
<event>
 8    1  0.2432279E-006  0.9118800E+02  0.7816164E-02  0.1184000E+00
        -11   -1    0    0    0    0  0.00000000000E+00  0.00000000000E+00  0.45593999997E+02  0.45594000000E+02  0.51100000000E-03 0. -1.
         11   -1    0    0    0    0 -0.00000000000E+00 -0.00000000000E+00 -0.45593999997E+02  0.45594000000E+02  0.51100000000E-03 0.  1.
         23    2    1    2    0    0  0.00000000000E+00 -0.44408920985E-15  0.00000000000E+00  0.91188000000E+02  0.91188000000E+02 0.  0.
    9900012    2    3    3    0    0  0.10639937941E+02 -0.20343981446E+01  0.35191326483E+02  0.54367129358E+02  0.40000102998E+02 0.  0.
        -12    1    3    3    0    0 -0.10639937941E+02  0.20343981446E+01 -0.35191326483E+02  0.36820870642E+02  0.00000000000E+00 0.  1.
         11    1    4    4    0    0  0.16170599230E+02  0.40276743836E+00  0.13974694758E+02  0.21376215636E+02  0.51100000000E-03 0. -1.
        -11    1    4    4    0    0 -0.85213294396E+01 -0.11126143690E+02  0.60650943669E+01  0.15270543499E+02  0.51100000000E-03 0.  1.
         12    1    4    4    0    0  0.29906681504E+01  0.86889781067E+01  0.15151537358E+02  0.17720370223E+02  0.00000000000E+00 0. -1.
</event>
<event>
 8    1  0.2432279E-006  0.9118800E+02  0.7816164E-02  0.1184000E+00
        -11   -1    0    0    0    0  0.00000000000E+00  0.00000000000E+00  0.45593999997E+02  0.45594000000E+02  0.51100000000E-03 0. -1.
         11   -1    0    0    0    0 -0.00000000000E+00 -0.00000000000E+00 -0.45593999997E+02  0.45594000000E+02  0.51100000000E-03 0.  1.
         23    2    1    2    0    0  0.88817841970E-15  0.17763568394E-14  0.00000000000E+00  0.91188000000E+02  0.91188000000E+02 0.  0.
    9900012    2    3    3    0    0  0.68429738528E+01 -0.12912224802E+02 -0.33796868203E+02  0.54367080120E+02  0.39999990750E+02 0.  0.
         12    1    3    3    0    0 -0.68429738528E+01  0.12912224802E+02  0.33796868203E+02  0.36820919880E+02  0.00000000000E+00 0. -1.
         11    1    4    4    0    0 -0.43981770102E+00 -0.12707097921E+02 -0.53376458452E+01  0.13789642512E+02  0.51100000000E-03 0. -1.
        -11    1    4    4    0    0 -0.56838164041E+01 -0.23998359138E+01  0.27166422436E+01  0.67413000726E+01  0.51100000000E-03 0.  1.
        -12    1    4    4    0    0  0.12966607958E+02  0.21947090325E+01 -0.31175864601E+02  0.33836137535E+02  0.00000000000E+00 0.  1.
</event>
<event>
 8    1  0.2432279E-006  0.9118800E+02  0.7816164E-02  0.1184000E+00
        -11   -1    0    0    0    0  0.00000000000E+00  0.00000000000E+00  0.45593999997E+02  0.45594000000E+02  0.51100000000E-03 0. -1.
         11   -1    0    0    0    0 -0.00000000000E+00 -0.00000000000E+00 -0.45593999997E+02  0.45594000000E+02  0.51100000000E-03 0.  1.
         23    2    1    2    0    0 -0.35527136788E-14 -0.88817841970E-15  0.35527136788E-14  0.91188000000E+02  0.91188000000E+02 0.  0.
    9900012    2    3    3    0    0  0.30887285592E+02 -0.50915872768E+00 -0.20037379255E+02  0.54367079028E+02  0.39999988259E+02 0.  0.
         12    1    3    3    0    0 -0.30887285592E+02  0.50915872768E+00  0.20037379255E+02  0.36820920972E+02  0.00000000000E+00 0. -1.
         11    1    4    4    0    0  0.13253625688E+02 -0.98455766676E+01 -0.30195948841E+01  0.16784276193E+02  0.51100000000E-03 0. -1.
        -11    1    4    4    0    0  0.19784686456E+02  0.36673090788E+01 -0.21942229738E+02  0.29771537081E+02  0.51100000000E-03 0.  1.
         12    1    4    4    0    0 -0.21510265514E+01  0.56691088610E+01  0.49244453671E+01  0.78112657539E+01  0.00000000000E+00 0. -1.
</event>
<event>
 8    1  0.2432279E-006  0.9118800E+02  0.7816164E-02  0.1184000E+00
        -11   -1    0    0    0    0  0.00000000000E+00  0.00000000000E+00  0.45593999997E+02  0.45594000000E+02  0.51100000000E-03 0.  1.
         11   -1    0    0    0    0 -0.00000000000E+00 -0.00000000000E+00 -0.45593999997E+02  0.45594000000E+02  0.51100000000E-03 0. -1.
         23    2    1    2    0    0 -0.17763568394E-14 -0.88817841970E-15  0.00000000000E+00  0.91188000000E+02  0.91188000000E+02 0.  0.
    9900012    2    3    3    0    0 -0.12591650498E+02 -0.55803950918E+01 -0.34148055937E+02  0.54367079372E+02  0.39999989043E+02 0.  0.
        -12    1    3    3    0    0  0.12591650498E+02  0.55803950918E+01  0.34148055937E+02  0.36820920628E+02  0.00000000000E+00 0.  1.
         11    1    4    4    0    0 -0.88475397292E+00 -0.43561920316E+01 -0.16152725899E+01  0.47295141832E+01  0.51100000000E-03 0. -1.
        -11    1    4    4    0    0  0.50572984761E+01 -0.68803353699E+01  0.37074083973E+01  0.93091438900E+01  0.51100000000E-03 0.  1.
         12    1    4    4    0    0 -0.16764195001E+02  0.56561323097E+01 -0.36240191745E+02  0.40328421298E+02  0.00000000000E+00 0. -1.
</event>
<event>
 8    1  0.2432279E-006  0.9118800E+02  0.7816164E-02  0.1184000E+00
        -11   -1    0    0    0    0  0.00000000000E+00  0.00000000000E+00  0.45593999997E+02  0.45594000000E+02  0.51100000000E-03 0.  1.
         11   -1    0    0    0    0 -0.00000000000E+00 -0.00000000000E+00 -0.45593999997E+02  0.45594000000E+02  0.51100000000E-03 0. -1.
         23    2    1    2    0    0  0.00000000000E+00  0.17763568394E-14  0.17763568394E-14  0.91188000000E+02  0.91188000000E+02 0.  0.
    9900012    2    3    3    0    0 -0.34861319349E+02  0.84100940340E+01 -0.83511082154E+01  0.54367051115E+02  0.39999924626E+02 0.  0.
        -12    1    3    3    0    0  0.34861319349E+02 -0.84100940340E+01  0.83511082154E+01  0.36820948885E+02  0.00000000000E+00 0.  1.
         11    1    4    4    0    0 -0.27811846030E+01  0.68836352594E+01 -0.11637739656E+02  0.13804216991E+02  0.51100000000E-03 0. -1.
        -11    1    4    4    0    0 -0.74551906250E+01  0.79998859514E+01  0.93519467124E+01  0.14388778616E+02  0.51100000000E-03 0.  1.
        -12    1    4    4    0    0 -0.24624944121E+02 -0.64734271767E+01 -0.60653152722E+01  0.26174055508E+02  0.00000000000E+00 0.  1.
</event>
<event>
 8    1  0.2432279E-006  0.9118800E+02  0.7816164E-02  0.1184000E+00
        -11   -1    0    0    0    0  0.00000000000E+00  0.00000000000E+00  0.45593999997E+02  0.45594000000E+02  0.51100000000E-03 0. -1.
         11   -1    0    0    0    0 -0.00000000000E+00 -0.00000000000E+00 -0.45593999997E+02  0.45594000000E+02  0.51100000000E-03 0.  1.
         23    2    1    2    0    0 -0.35527136788E-14 -0.35527136788E-14 -0.88817841970E-15  0.91188000000E+02  0.91188000000E+02 0.  0.
    9900012    2    3    3    0    0 -0.31848580590E+02 -0.18228216222E+02  0.30297782316E+01  0.54367088709E+02  0.40000010329E+02 0.  0.
         12    1    3    3    0    0  0.31848580590E+02  0.18228216222E+02 -0.30297782316E+01  0.36820911291E+02  0.00000000000E+00 0. -1.
         11    1    4    4    0    0 -0.16460353835E+02  0.11659327900E+02  0.41348625120E+01  0.20590781037E+02  0.51100000000E-03 0. -1.
        -11    1    4    4    0    0 -0.14120194876E+02 -0.26980271991E+02 -0.10980186154E+00  0.30452044870E+02  0.51100000000E-03 0.  1.
         12    1    4    4    0    0 -0.12680318787E+01 -0.29072721305E+01 -0.99528241885E+00  0.33242628024E+01  0.00000000000E+00 0. -1.
</event>
<event>
 8    1  0.2432279E-006  0.9118800E+02  0.7816164E-02  0.1184000E+00
        -11   -1    0    0    0    0  0.00000000000E+00  0.00000000000E+00  0.45593999997E+02  0.45594000000E+02  0.51100000000E-03 0. -1.
         11   -1    0    0    0    0 -0.00000000000E+00 -0.00000000000E+00 -0.45593999997E+02  0.45594000000E+02  0.51100000000E-03 0.  1.
         23    2    1    2    0    0 -0.35527136788E-14 -0.71054273576E-14  0.17763568394E-14  0.91188000000E+02  0.91188000000E+02 0.  0.
    9900012    2    3    3    0    0  0.20187762945E+02  0.27108485493E+02 -0.14607032451E+02  0.54367066342E+02  0.39999959340E+02 0.  0.
         12    1    3    3    0    0 -0.20187762945E+02 -0.27108485493E+02  0.14607032451E+02  0.36820933658E+02  0.00000000000E+00 0. -1.
         11    1    4    4    0    0  0.98688520902E+01  0.89329334361E+01 -0.20615066755E+02  0.24539203714E+02  0.51100000000E-03 0.  1.
        -11    1    4    4    0    0 -0.41792149296E+01  0.66139385925E+01  0.79851563691E+01  0.11179120879E+02  0.51100000000E-03 0. -1.
         12    1    4    4    0    0  0.14498125784E+02  0.11561613464E+02 -0.19771220652E+01  0.18648741749E+02  0.00000000000E+00 0. -1.
</event>
<event>
 8    1  0.2432279E-006  0.9118800E+02  0.7816164E-02  0.1184000E+00
        -11   -1    0    0    0    0  0.00000000000E+00  0.00000000000E+00  0.45593999997E+02  0.45594000000E+02  0.51100000000E-03 0.  1.
         11   -1    0    0    0    0 -0.00000000000E+00 -0.00000000000E+00 -0.45593999997E+02  0.45594000000E+02  0.51100000000E-03 0. -1.
         23    2    1    2    0    0 -0.17763568394E-14  0.00000000000E+00  0.00000000000E+00  0.91188000000E+02  0.91188000000E+02 0.  0.
    9900012    2    3    3    0    0  0.10500698303E+02 -0.19980713376E+02 -0.29091025384E+02  0.54367063975E+02  0.39999953943E+02 0.  0.
        -12    1    3    3    0    0 -0.10500698303E+02  0.19980713376E+02  0.29091025384E+02  0.36820936025E+02  0.00000000000E+00 0.  1.
         11    1    4    4    0    0  0.99092384231E+01  0.24261679067E+01 -0.16447271276E+02  0.19354380113E+02  0.51100000000E-03 0. -1.
        -11    1    4    4    0    0  0.24433516039E+01 -0.22792404068E+02 -0.18119439712E+02  0.29219475458E+02  0.51100000000E-03 0.  1.
        -12    1    4    4    0    0 -0.18518917245E+01  0.38552278536E+00  0.54756856045E+01  0.57932084044E+01  0.00000000000E+00 0.  1.
</event>
<event>
 8    1  0.2432279E-006  0.9118800E+02  0.7816164E-02  0.1184000E+00
        -11   -1    0    0    0    0  0.00000000000E+00  0.00000000000E+00  0.45593999997E+02  0.45594000000E+02  0.51100000000E-03 0. -1.
         11   -1    0    0    0    0 -0.00000000000E+00 -0.00000000000E+00 -0.45593999997E+02  0.45594000000E+02  0.51100000000E-03 0.  1.
         23    2    1    2    0    0 -0.17763568394E-14  0.00000000000E+00  0.00000000000E+00  0.91188000000E+02  0.91188000000E+02 0.  0.
    9900012    2    3    3    0    0  0.11127182538E+02  0.26286828453E+02 -0.23258722396E+02  0.54367085985E+02  0.40000004121E+02 0.  0.
         12    1    3    3    0    0 -0.11127182538E+02 -0.26286828453E+02  0.23258722396E+02  0.36820914015E+02  0.00000000000E+00 0. -1.
         11    1    4    4    0    0 -0.40148950608E+01 -0.59808975371E+00  0.10382126547E+01  0.41898662843E+01  0.51100000000E-03 0. -1.
        -11    1    4    4    0    0 -0.53596569233E+01  0.12098161811E+02 -0.20809098114E+02  0.24659886579E+02  0.51100000000E-03 0.  1.
         12    1    4    4    0    0  0.20501734523E+02  0.14786756396E+02 -0.34878369372E+01  0.25517333122E+02  0.00000000000E+00 0. -1.
</event>
<event>
 8    1  0.2432279E-006  0.9118800E+02  0.7816164E-02  0.1184000E+00
        -11   -1    0    0    0    0  0.00000000000E+00  0.00000000000E+00  0.45593999997E+02  0.45594000000E+02  0.51100000000E-03 0.  1.
         11   -1    0    0    0    0 -0.00000000000E+00 -0.00000000000E+00 -0.45593999997E+02  0.45594000000E+02  0.51100000000E-03 0. -1.
         23    2    1    2    0    0  0.00000000000E+00  0.00000000000E+00 -0.38857805862E-15  0.91188000000E+02  0.91188000000E+02 0.  0.
    9900012    2    3    3    0    0 -0.24042545047E+02 -0.27884111685E+02 -0.46291952739E+00  0.54367055535E+02  0.39999934703E+02 0.  0.
         12    1    3    3    0    0  0.24042545047E+02  0.27884111685E+02  0.46291952739E+00  0.36820944465E+02  0.00000000000E+00 0. -1.
         11    1    4    4    0    0 -0.58174961170E+01  0.53090839831E+01 -0.40409140577E+01  0.88520404707E+01  0.51100000000E-03 0. -1.
        -11    1    4    4    0    0 -0.52852827030E+01  0.35541153587E+01  0.12184726687E+01  0.64846453364E+01  0.51100000000E-03 0.  1.
        -12    1    4    4    0    0 -0.12939766227E+02 -0.36747311027E+02  0.23595218615E+01  0.39030369728E+02  0.00000000000E+00 0.  1.
</event>
<event>
 8    1  0.2432279E-006  0.9118800E+02  0.7816164E-02  0.1184000E+00
        -11   -1    0    0    0    0  0.00000000000E+00  0.00000000000E+00  0.45593999997E+02  0.45594000000E+02  0.51100000000E-03 0.  1.
         11   -1    0    0    0    0 -0.00000000000E+00 -0.00000000000E+00 -0.45593999997E+02  0.45594000000E+02  0.51100000000E-03 0. -1.
         23    2    1    2    0    0  0.00000000000E+00  0.00000000000E+00  0.00000000000E+00  0.91188000000E+02  0.91188000000E+02 0.  0.
    9900012    2    3    3    0    0 -0.97150655110E+01 -0.33486463214E+02  0.11834448151E+02  0.54367083668E+02  0.39999998838E+02 0.  0.
         12    1    3    3    0    0  0.97150655110E+01  0.33486463214E+02 -0.11834448151E+02  0.36820916332E+02  0.00000000000E+00 0. -1.
         11    1    4    4    0    0 -0.12857849347E+02 -0.22718484930E+02  0.11616032291E+02  0.28572470208E+02  0.51100000000E-03 0. -1.
        -11    1    4    4    0    0 -0.95340270950E+01 -0.83814682094E+01  0.17106297036E+01  0.12809095840E+02  0.51100000000E-03 0.  1.
         12    1    4    4    0    0  0.12676810931E+02 -0.23865100742E+01 -0.14922138429E+01  0.12985517620E+02  0.00000000000E+00 0. -1.
</event>
<event>
 8    1  0.2432279E-006  0.9118800E+02  0.7816164E-02  0.1184000E+00
        -11   -1    0    0    0    0  0.00000000000E+00  0.00000000000E+00  0.45593999997E+02  0.45594000000E+02  0.51100000000E-03 0. -1.
         11   -1    0    0    0    0 -0.00000000000E+00 -0.00000000000E+00 -0.45593999997E+02  0.45594000000E+02  0.51100000000E-03 0.  1.
         23    2    1    2    0    0 -0.88817841970E-15 -0.35527136788E-14  0.00000000000E+00  0.91188000000E+02  0.91188000000E+02 0.  0.
    9900012    2    3    3    0    0  0.62244236674E+01  0.11005816905E+02  0.34581907020E+02  0.54367085442E+02  0.40000002882E+02 0.  0.
        -12    1    3    3    0    0 -0.62244236674E+01 -0.11005816905E+02 -0.34581907020E+02  0.36820914558E+02  0.00000000000E+00 0.  1.
         11    1    4    4    0    0  0.81199956920E+01  0.93387203062E+01  0.41584318315E+01  0.13055212850E+02  0.51100000000E-03 0. -1.
        -11    1    4    4    0    0 -0.13948001039E+01 -0.12599450276E+02  0.19829087993E+02  0.23534747619E+02  0.51100000000E-03 0.  1.
        -12    1    4    4    0    0 -0.50077192064E+00  0.14266546875E+02  0.10594387196E+02  0.17777124973E+02  0.00000000000E+00 0.  1.
</event>
<event>
 8    1  0.3386209E-006  0.9118800E+02  0.7816164E-02  0.1184000E+00
        -11   -1    0    0    0    0  0.00000000000E+00  0.00000000000E+00  0.45593999997E+02  0.45594000000E+02  0.51100000000E-03 0.  1.
         11   -1    0    0    0    0 -0.00000000000E+00 -0.00000000000E+00 -0.45593999997E+02  0.45594000000E+02  0.51100000000E-03 0. -1.
         23    2    1    2    0    0  0.00000000000E+00 -0.44408920985E-15  0.00000000000E+00  0.91188000000E+02  0.91188000000E+02 0.  0.
    9900012    2    3    3    0    0  0.70017352785E+01 -0.26311581128E+01 -0.36053192602E+02  0.54367082212E+02  0.39999995519E+02 0.  0.
        -12    1    3    3    0    0 -0.70017352785E+01  0.26311581128E+01  0.36053192602E+02  0.36820917788E+02  0.00000000000E+00 0.  1.
         11    1    4    4    0    0  0.92184028776E+01 -0.11427470900E+01 -0.35423270398E+01  0.99414739170E+01  0.51100000000E-03 0. -1.
        -11    1    4    4    0    0  0.48874943253E+01 -0.51804061032E+01  0.32146439965E+01  0.78139711069E+01  0.51100000000E-03 0.  1.
         12    1    4    4    0    0 -0.71041619244E+01  0.36919950804E+01 -0.35725509559E+02  0.36611637188E+02  0.00000000000E+00 0. -1.
</event>
<event>
 8    1  0.2432279E-006  0.9118800E+02  0.7816164E-02  0.1184000E+00
        -11   -1    0    0    0    0  0.00000000000E+00  0.00000000000E+00  0.45593999997E+02  0.45594000000E+02  0.51100000000E-03 0. -1.
         11   -1    0    0    0    0 -0.00000000000E+00 -0.00000000000E+00 -0.45593999997E+02  0.45594000000E+02  0.51100000000E-03 0.  1.
         23    2    1    2    0    0  0.00000000000E+00 -0.44408920985E-15  0.00000000000E+00  0.91188000000E+02  0.91188000000E+02 0.  0.
    9900012    2    3    3    0    0 -0.52727272292E+01  0.24935883265E+01 -0.36355988040E+02  0.54367115960E+02  0.40000072453E+02 0.  0.
         12    1    3    3    0    0  0.52727272292E+01 -0.24935883265E+01  0.36355988040E+02  0.36820884040E+02  0.00000000000E+00 0. -1.
         11    1    4    4    0    0  0.47346015542E+01  0.64714223453E+01 -0.44775571439E+01  0.91839140505E+01  0.51100000000E-03 0. -1.
        -11    1    4    4    0    0 -0.79859798550E+01 -0.10511729478E+01 -0.37596209347E+02  0.38449392665E+02  0.51100000000E-03 0.  1.
        -12    1    4    4    0    0 -0.20213489284E+01 -0.29266610710E+01  0.57177784513E+01  0.67338092439E+01  0.00000000000E+00 0.  1.
</event>
<event>
 8    1  0.2432279E-006  0.9118800E+02  0.7816164E-02  0.1184000E+00
        -11   -1    0    0    0    0  0.00000000000E+00  0.00000000000E+00  0.45593999997E+02  0.45594000000E+02  0.51100000000E-03 0.  1.
         11   -1    0    0    0    0 -0.00000000000E+00 -0.00000000000E+00 -0.45593999997E+02  0.45594000000E+02  0.51100000000E-03 0. -1.
         23    2    1    2    0    0  0.00000000000E+00  0.00000000000E+00  0.00000000000E+00  0.91188000000E+02  0.91188000000E+02 0.  0.
    9900012    2    3    3    0    0 -0.29182935755E+02 -0.18090626513E+02 -0.13299128512E+02  0.54367064025E+02  0.39999954057E+02 0.  0.
        -12    1    3    3    0    0  0.29182935755E+02  0.18090626513E+02  0.13299128512E+02  0.36820935975E+02  0.00000000000E+00 0.  1.
         11    1    4    4    0    0  0.42668433221E+01 -0.77781973137E+01 -0.11864503435E+02  0.14814612631E+02  0.51100000000E-03 0. -1.
        -11    1    4    4    0    0 -0.58996052230E+01 -0.10227583007E+02  0.12426749882E+01  0.11872364438E+02  0.51100000000E-03 0.  1.
         12    1    4    4    0    0 -0.27550173854E+02 -0.84846192683E-01 -0.26773000654E+01  0.27680086956E+02  0.00000000000E+00 0. -1.
</event>
<event>
 8    1  0.2432279E-006  0.9118800E+02  0.7816164E-02  0.1184000E+00
        -11   -1    0    0    0    0  0.00000000000E+00  0.00000000000E+00  0.45593999997E+02  0.45594000000E+02  0.51100000000E-03 0.  1.
         11   -1    0    0    0    0 -0.00000000000E+00 -0.00000000000E+00 -0.45593999997E+02  0.45594000000E+02  0.51100000000E-03 0. -1.
         23    2    1    2    0    0  0.35527136788E-14  0.00000000000E+00  0.00000000000E+00  0.91188000000E+02  0.91188000000E+02 0.  0.
    9900012    2    3    3    0    0  0.11839257420E+02  0.26612643863E+02  0.22525106049E+02  0.54367065301E+02  0.39999956966E+02 0.  0.
         12    1    3    3    0    0 -0.11839257420E+02 -0.26612643863E+02 -0.22525106049E+02  0.36820934699E+02  0.00000000000E+00 0. -1.
         11    1    4    4    0    0 -0.14837813831E+01  0.44573424345E+01 -0.17475813210E+01  0.50123397238E+01  0.51100000000E-03 0. -1.
        -11    1    4    4    0    0 -0.90012044907E+01  0.12646934881E+00  0.13434692732E+02  0.16171847323E+02  0.51100000000E-03 0.  1.
        -12    1    4    4    0    0  0.22324243294E+02  0.22028832080E+02  0.10837994638E+02  0.33182878254E+02  0.00000000000E+00 0.  1.
</event>
<event>
 8    1  0.2432279E-006  0.9118800E+02  0.7816164E-02  0.1184000E+00
        -11   -1    0    0    0    0  0.00000000000E+00  0.00000000000E+00  0.45593999997E+02  0.45594000000E+02  0.51100000000E-03 0.  1.
         11   -1    0    0    0    0 -0.00000000000E+00 -0.00000000000E+00 -0.45593999997E+02  0.45594000000E+02  0.51100000000E-03 0. -1.
         23    2    1    2    0    0  0.35527136788E-14 -0.33306690739E-15  0.35527136788E-14  0.91188000000E+02  0.91188000000E+02 0.  0.
    9900012    2    3    3    0    0  0.21512701238E+02  0.94134048358E+00  0.29868087464E+02  0.54367012979E+02  0.39999837687E+02 0.  0.
         12    1    3    3    0    0 -0.21512701238E+02 -0.94134048358E+00 -0.29868087464E+02  0.36820987021E+02  0.00000000000E+00 0. -1.
         11    1    4    4    0    0  0.23186612250E+01  0.37412162507E+01  0.28719276319E+01  0.52555549179E+01  0.51100000000E-03 0. -1.
        -11    1    4    4    0    0 -0.47778626610E+01  0.11390224784E+02  0.13013935500E+02  0.17942344042E+02  0.51100000000E-03 0.  1.
        -12    1    4    4    0    0  0.23971902674E+02 -0.14190100552E+02  0.13982224332E+02  0.31169114019E+02  0.00000000000E+00 0.  1.
</event>
<event>
 8    1  0.2432279E-006  0.9118800E+02  0.7816164E-02  0.1184000E+00
        -11   -1    0    0    0    0  0.00000000000E+00  0.00000000000E+00  0.45593999997E+02  0.45594000000E+02  0.51100000000E-03 0.  1.
         11   -1    0    0    0    0 -0.00000000000E+00 -0.00000000000E+00 -0.45593999997E+02  0.45594000000E+02  0.51100000000E-03 0. -1.
         23    2    1    2    0    0  0.00000000000E+00  0.35527136788E-14  0.00000000000E+00  0.91188000000E+02  0.91188000000E+02 0.  0.
    9900012    2    3    3    0    0  0.21049142418E+02  0.16845545717E+02  0.25078706707E+02  0.54367077454E+02  0.39999984672E+02 0.  0.
         12    1    3    3    0    0 -0.21049142418E+02 -0.16845545717E+02 -0.25078706707E+02  0.36820922546E+02  0.00000000000E+00 0. -1.
         11    1    4    4    0    0  0.55460233309E+01 -0.32428214651E+01 -0.69404949918E+01  0.94575227641E+01  0.51100000000E-03 0. -1.
        -11    1    4    4    0    0  0.11282436075E+02  0.33516982840E+00  0.11144884196E+02  0.15862349971E+02  0.51100000000E-03 0.  1.
        -12    1    4    4    0    0  0.42206830119E+01  0.19753197354E+02  0.20874317502E+02  0.29047204719E+02  0.00000000000E+00 0.  1.
</event>
<event>
 8    1  0.2432279E-006  0.9118800E+02  0.7816164E-02  0.1184000E+00
        -11   -1    0    0    0    0  0.00000000000E+00  0.00000000000E+00  0.45593999997E+02  0.45594000000E+02  0.51100000000E-03 0.  1.
         11   -1    0    0    0    0 -0.00000000000E+00 -0.00000000000E+00 -0.45593999997E+02  0.45594000000E+02  0.51100000000E-03 0. -1.
         23    2    1    2    0    0  0.00000000000E+00  0.17763568394E-14  0.00000000000E+00  0.91188000000E+02  0.91188000000E+02 0.  0.
    9900012    2    3    3    0    0 -0.28414438174E+02 -0.13231449664E+02  0.19321762866E+02  0.54367053826E+02  0.39999930806E+02 0.  0.
         12    1    3    3    0    0  0.28414438174E+02  0.13231449664E+02 -0.19321762866E+02  0.36820946174E+02  0.00000000000E+00 0. -1.
         11    1    4    4    0    0 -0.59435876312E+01 -0.28321517947E+01 -0.88316506758E+01  0.11015687525E+02  0.51100000000E-03 0. -1.
        -11    1    4    4    0    0  0.30074085930E+01  0.22636126179E+01  0.72826309722E+00  0.38339034845E+01  0.51100000000E-03 0.  1.
        -12    1    4    4    0    0 -0.25478259135E+02 -0.12662910487E+02  0.27425150444E+02  0.39517462817E+02  0.00000000000E+00 0.  1.
</event>
<event>
 8    1  0.2432279E-006  0.9118800E+02  0.7816164E-02  0.1184000E+00
        -11   -1    0    0    0    0  0.00000000000E+00  0.00000000000E+00  0.45593999997E+02  0.45594000000E+02  0.51100000000E-03 0.  1.
         11   -1    0    0    0    0 -0.00000000000E+00 -0.00000000000E+00 -0.45593999997E+02  0.45594000000E+02  0.51100000000E-03 0. -1.
         23    2    1    2    0    0  0.00000000000E+00  0.00000000000E+00  0.17763568394E-14  0.91188000000E+02  0.91188000000E+02 0.  0.
    9900012    2    3    3    0    0  0.34606584037E+02 -0.11406812033E+02 -0.52961440350E+01  0.54367079844E+02  0.39999990121E+02 0.  0.
        -12    1    3    3    0    0 -0.34606584037E+02  0.11406812033E+02  0.52961440350E+01  0.36820920156E+02  0.00000000000E+00 0.  1.
         11    1    4    4    0    0  0.71857066007E+01 -0.50773392846E+01  0.90079359074E+01  0.12591928492E+02  0.51100000000E-03 0. -1.
        -11    1    4    4    0    0  0.65444740928E+00  0.85635384567E+01 -0.24557735955E+01  0.89327104802E+01  0.51100000000E-03 0.  1.
         12    1    4    4    0    0  0.26766430027E+02 -0.14893011205E+02 -0.11848306347E+02  0.32842440872E+02  0.00000000000E+00 0. -1.
</event>
<event>
 8    1  0.2432279E-006  0.9118800E+02  0.7816164E-02  0.1184000E+00
        -11   -1    0    0    0    0  0.00000000000E+00  0.00000000000E+00  0.45593999997E+02  0.45594000000E+02  0.51100000000E-03 0. -1.
         11   -1    0    0    0    0 -0.00000000000E+00 -0.00000000000E+00 -0.45593999997E+02  0.45594000000E+02  0.51100000000E-03 0.  1.
         23    2    1    2    0    0  0.00000000000E+00  0.00000000000E+00  0.00000000000E+00  0.91188000000E+02  0.91188000000E+02 0.  0.
    9900012    2    3    3    0    0  0.22429141814E+02  0.27613909124E+02  0.94966929749E+01  0.54367060888E+02  0.39999946907E+02 0.  0.
        -12    1    3    3    0    0 -0.22429141814E+02 -0.27613909124E+02 -0.94966929749E+01  0.36820939112E+02  0.00000000000E+00 0.  1.
         11    1    4    4    0    0  0.23550877862E+02  0.14574424243E+02  0.89666462348E+00  0.27710317533E+02  0.51100000000E-03 0. -1.
        -11    1    4    4    0    0 -0.43374548739E+01  0.83848310276E+01 -0.58724663313E+01  0.11117768086E+02  0.51100000000E-03 0.  1.
         12    1    4    4    0    0  0.32157188254E+01  0.46546538534E+01  0.14472494683E+02  0.15538975269E+02  0.00000000000E+00 0. -1.
</event>
<event>
 8    1  0.2432279E-006  0.9118800E+02  0.7816164E-02  0.1184000E+00
        -11   -1    0    0    0    0  0.00000000000E+00  0.00000000000E+00  0.45593999997E+02  0.45594000000E+02  0.51100000000E-03 0. -1.
         11   -1    0    0    0    0 -0.00000000000E+00 -0.00000000000E+00 -0.45593999997E+02  0.45594000000E+02  0.51100000000E-03 0.  1.
         23    2    1    2    0    0 -0.11102230246E-15  0.00000000000E+00 -0.71054273576E-14  0.91188000000E+02  0.91188000000E+02 0.  0.
    9900012    2    3    3    0    0  0.51463646867E+00  0.61606894447E+01  0.36298217680E+02  0.54367088117E+02  0.40000008981E+02 0.  0.
        -12    1    3    3    0    0 -0.51463646867E+00 -0.61606894447E+01 -0.36298217680E+02  0.36820911883E+02  0.00000000000E+00 0.  1.
         11    1    4    4    0    0  0.89651718171E+01 -0.14092791795E+01  0.13280463431E+02  0.16085119916E+02  0.51100000000E-03 0. -1.
        -11    1    4    4    0    0  0.29297485614E+01  0.15015211017E+02  0.18379708565E+02  0.23913462227E+02  0.51100000000E-03 0.  1.
         12    1    4    4    0    0 -0.11380283910E+02 -0.74452423928E+01  0.46380456844E+01  0.14368505974E+02  0.00000000000E+00 0. -1.
</event>
<event>
 8    1  0.2432279E-006  0.9118800E+02  0.7816164E-02  0.1184000E+00
        -11   -1    0    0    0    0  0.00000000000E+00  0.00000000000E+00  0.45593999997E+02  0.45594000000E+02  0.51100000000E-03 0. -1.
         11   -1    0    0    0    0 -0.00000000000E+00 -0.00000000000E+00 -0.45593999997E+02  0.45594000000E+02  0.51100000000E-03 0.  1.
         23    2    1    2    0    0  0.00000000000E+00  0.00000000000E+00 -0.26645352591E-14  0.91188000000E+02  0.91188000000E+02 0.  0.
    9900012    2    3    3    0    0 -0.15801694547E+02 -0.32377488146E+02 -0.76013304601E+01  0.54367142949E+02  0.40000133981E+02 0.  0.
        -12    1    3    3    0    0  0.15801694547E+02  0.32377488146E+02  0.76013304601E+01  0.36820857051E+02  0.00000000000E+00 0.  1.
         11    1    4    4    0    0 -0.22422784546E+02 -0.15031588548E+02  0.68236299018E+01  0.27844063036E+02  0.51100000000E-03 0. -1.
        -11    1    4    4    0    0  0.10705626862E+00 -0.41968893847E+01 -0.10537136369E+02  0.11342688600E+02  0.51100000000E-03 0.  1.
         12    1    4    4    0    0  0.65140337302E+01 -0.13149010213E+02 -0.38878239924E+01  0.15180391313E+02  0.00000000000E+00 0. -1.
</event>
<event>
 8    1  0.2432279E-006  0.9118800E+02  0.7816164E-02  0.1184000E+00
        -11   -1    0    0    0    0  0.00000000000E+00  0.00000000000E+00  0.45593999997E+02  0.45594000000E+02  0.51100000000E-03 0.  1.
         11   -1    0    0    0    0 -0.00000000000E+00 -0.00000000000E+00 -0.45593999997E+02  0.45594000000E+02  0.51100000000E-03 0. -1.
         23    2    1    2    0    0  0.00000000000E+00  0.35527136788E-14  0.00000000000E+00  0.91188000000E+02  0.91188000000E+02 0.  0.
    9900012    2    3    3    0    0  0.22551994272E+02 -0.28246388336E+02 -0.70234331093E+01  0.54367088654E+02  0.40000010205E+02 0.  0.
         12    1    3    3    0    0 -0.22551994272E+02  0.28246388336E+02  0.70234331093E+01  0.36820911346E+02  0.00000000000E+00 0. -1.
         11    1    4    4    0    0  0.39234046540E+01 -0.32274662619E+01 -0.12420675202E+02  0.13419493853E+02  0.51100000000E-03 0. -1.
        -11    1    4    4    0    0  0.18971145329E+02 -0.16677836468E+02  0.14066543716E+02  0.28912319809E+02  0.51100000000E-03 0.  1.
        -12    1    4    4    0    0 -0.34255571117E+00 -0.83410856064E+01 -0.86693016233E+01  0.12035274992E+02  0.00000000000E+00 0.  1.
</event>
<event>
 8    1  0.2432279E-006  0.9118800E+02  0.7816164E-02  0.1184000E+00
        -11   -1    0    0    0    0  0.00000000000E+00  0.00000000000E+00  0.45593999997E+02  0.45594000000E+02  0.51100000000E-03 0. -1.
         11   -1    0    0    0    0 -0.00000000000E+00 -0.00000000000E+00 -0.45593999997E+02  0.45594000000E+02  0.51100000000E-03 0.  1.
         23    2    1    2    0    0  0.00000000000E+00  0.00000000000E+00  0.22204460493E-15  0.91188000000E+02  0.91188000000E+02 0.  0.
    9900012    2    3    3    0    0 -0.32450042255E+02 -0.17336050491E+02  0.14955805118E+01  0.54367073205E+02  0.39999974986E+02 0.  0.
         12    1    3    3    0    0  0.32450042255E+02  0.17336050491E+02 -0.14955805118E+01  0.36820926795E+02  0.00000000000E+00 0. -1.
         11    1    4    4    0    0 -0.61716567612E+01 -0.17272079305E+01  0.98338873076E+01  0.11737884573E+02  0.51100000000E-03 0. -1.
        -11    1    4    4    0    0 -0.10582400013E+02 -0.21602422540E+02 -0.42850556374E+00  0.24058999708E+02  0.51100000000E-03 0.  1.
         12    1    4    4    0    0 -0.15695985480E+02  0.59935799795E+01 -0.79098012320E+01  0.18570188925E+02  0.00000000000E+00 0. -1.
</event>
<event>
 8    1  0.2432279E-006  0.9118800E+02  0.7816164E-02  0.1184000E+00
        -11   -1    0    0    0    0  0.00000000000E+00  0.00000000000E+00  0.45593999997E+02  0.45594000000E+02  0.51100000000E-03 0.  1.
         11   -1    0    0    0    0 -0.00000000000E+00 -0.00000000000E+00 -0.45593999997E+02  0.45594000000E+02  0.51100000000E-03 0. -1.
         23    2    1    2    0    0  0.00000000000E+00  0.00000000000E+00  0.00000000000E+00  0.91188000000E+02  0.91188000000E+02 0.  0.
    9900012    2    3    3    0    0  0.22475537400E+02  0.14480225581E+02  0.25317058098E+02  0.54367080063E+02  0.39999990619E+02 0.  0.
         12    1    3    3    0    0 -0.22475537400E+02 -0.14480225581E+02 -0.25317058098E+02  0.36820919937E+02  0.00000000000E+00 0. -1.
         11    1    4    4    0    0  0.13160596876E+02 -0.14968817468E+00  0.29057176501E+01  0.13478386847E+02  0.51100000000E-03 0. -1.
        -11    1    4    4    0    0  0.18876299844E+02  0.83618711809E+01  0.72106078699E+01  0.21868435051E+02  0.51100000000E-03 0.  1.
         12    1    4    4    0    0 -0.95613593194E+01  0.62680425746E+01  0.15200732578E+02  0.19020258165E+02  0.00000000000E+00 0. -1.
</event>
<event>
 8    1  0.2432279E-006  0.9118800E+02  0.7816164E-02  0.1184000E+00
        -11   -1    0    0    0    0  0.00000000000E+00  0.00000000000E+00  0.45593999997E+02  0.45594000000E+02  0.51100000000E-03 0.  1.
         11   -1    0    0    0    0 -0.00000000000E+00 -0.00000000000E+00 -0.45593999997E+02  0.45594000000E+02  0.51100000000E-03 0. -1.
         23    2    1    2    0    0  0.00000000000E+00 -0.88817841970E-15  0.35527136788E-14  0.91188000000E+02  0.91188000000E+02 0.  0.
    9900012    2    3    3    0    0  0.23501773415E+02 -0.53364776028E+01  0.27838271333E+02  0.54367072558E+02  0.39999973510E+02 0.  0.
         12    1    3    3    0    0 -0.23501773415E+02  0.53364776028E+01 -0.27838271333E+02  0.36820927442E+02  0.00000000000E+00 0. -1.
         11    1    4    4    0    0 -0.97203906494E+01  0.59066200005E+00  0.11262426022E+02  0.14888825210E+02  0.51100000000E-03 0. -1.
        -11    1    4    4    0    0  0.46759704019E+01  0.33642398802E+01  0.19238572239E+01  0.60732228717E+01  0.51100000000E-03 0.  1.
        -12    1    4    4    0    0  0.28546193663E+02 -0.92913794830E+01  0.14651988087E+02  0.33405024476E+02  0.00000000000E+00 0.  1.
</event>
<event>
 8    1  0.2432279E-006  0.9118800E+02  0.7816164E-02  0.1184000E+00
        -11   -1    0    0    0    0  0.00000000000E+00  0.00000000000E+00  0.45593999997E+02  0.45594000000E+02  0.51100000000E-03 0.  1.
         11   -1    0    0    0    0 -0.00000000000E+00 -0.00000000000E+00 -0.45593999997E+02  0.45594000000E+02  0.51100000000E-03 0. -1.
         23    2    1    2    0    0  0.00000000000E+00  0.22204460493E-15  0.00000000000E+00  0.91188000000E+02  0.91188000000E+02 0.  0.
    9900012    2    3    3    0    0  0.21196885808E+02  0.12368375704E+01 -0.30082256473E+02  0.54367083531E+02  0.39999998525E+02 0.  0.
        -12    1    3    3    0    0 -0.21196885808E+02 -0.12368375704E+01  0.30082256473E+02  0.36820916469E+02  0.00000000000E+00 0.  1.
         11    1    4    4    0    0  0.11713454712E+02 -0.81141074398E+01 -0.78481457166E+01  0.16267671999E+02  0.51100000000E-03 0. -1.
        -11    1    4    4    0    0 -0.52446095416E+01  0.11861145153E+02 -0.22735392857E+01  0.13166688070E+02  0.51100000000E-03 0.  1.
        -12    1    4    4    0    0  0.14728040638E+02 -0.25102001427E+01 -0.19960571470E+02  0.24932723462E+02  0.00000000000E+00 0.  1.
</event>
<event>
 8    1  0.2432279E-006  0.9118800E+02  0.7816164E-02  0.1184000E+00
        -11   -1    0    0    0    0  0.00000000000E+00  0.00000000000E+00  0.45593999997E+02  0.45594000000E+02  0.51100000000E-03 0.  1.
         11   -1    0    0    0    0 -0.00000000000E+00 -0.00000000000E+00 -0.45593999997E+02  0.45594000000E+02  0.51100000000E-03 0. -1.
         23    2    1    2    0    0  0.17763568394E-14  0.00000000000E+00 -0.35527136788E-14  0.91188000000E+02  0.91188000000E+02 0.  0.
    9900012    2    3    3    0    0  0.96132405039E+01  0.25230987850E+02  0.25035188208E+02  0.54367112049E+02  0.40000063538E+02 0.  0.
         12    1    3    3    0    0 -0.96132405039E+01 -0.25230987850E+02 -0.25035188208E+02  0.36820887951E+02  0.00000000000E+00 0. -1.
         11    1    4    4    0    0 -0.45084043598E+01  0.21084674906E+02  0.68215384090E+01  0.22614654812E+02  0.51100000000E-03 0.  1.
        -11    1    4    4    0    0  0.69568075886E+01 -0.73785839616E+01  0.14479522102E+02  0.17677591286E+02  0.51100000000E-03 0. -1.
         12    1    4    4    0    0  0.71648372751E+01  0.11524896906E+02  0.37341276976E+01  0.14074865951E+02  0.00000000000E+00 0. -1.
</event>
<event>
 8    1  0.2432279E-006  0.9118800E+02  0.7816164E-02  0.1184000E+00
        -11   -1    0    0    0    0  0.00000000000E+00  0.00000000000E+00  0.45593999997E+02  0.45594000000E+02  0.51100000000E-03 0. -1.
         11   -1    0    0    0    0 -0.00000000000E+00 -0.00000000000E+00 -0.45593999997E+02  0.45594000000E+02  0.51100000000E-03 0.  1.
         23    2    1    2    0    0  0.00000000000E+00 -0.17763568394E-14  0.00000000000E+00  0.91188000000E+02  0.91188000000E+02 0.  0.
    9900012    2    3    3    0    0 -0.28181621053E+02 -0.11047897181E+02  0.20964727396E+02  0.54367087571E+02  0.40000007735E+02 0.  0.
        -12    1    3    3    0    0  0.28181621053E+02  0.11047897181E+02 -0.20964727396E+02  0.36820912429E+02  0.00000000000E+00 0.  1.
         11    1    4    4    0    0 -0.19359068530E+01  0.41167843131E+01 -0.29680436124E+01  0.54318442144E+01  0.51100000000E-03 0. -1.
        -11    1    4    4    0    0 -0.11095364769E+02 -0.49412114575E+01  0.27725092738E+02  0.30268852929E+02  0.51100000000E-03 0.  1.
         12    1    4    4    0    0 -0.15150349431E+02 -0.10223470037E+02 -0.37923217300E+01  0.18666390427E+02  0.00000000000E+00 0. -1.
</event>
<event>
 8    1  0.2432279E-006  0.9118800E+02  0.7816164E-02  0.1184000E+00
        -11   -1    0    0    0    0  0.00000000000E+00  0.00000000000E+00  0.45593999997E+02  0.45594000000E+02  0.51100000000E-03 0.  1.
         11   -1    0    0    0    0 -0.00000000000E+00 -0.00000000000E+00 -0.45593999997E+02  0.45594000000E+02  0.51100000000E-03 0. -1.
         23    2    1    2    0    0  0.00000000000E+00  0.00000000000E+00  0.00000000000E+00  0.91188000000E+02  0.91188000000E+02 0.  0.
    9900012    2    3    3    0    0 -0.16867737332E+02 -0.32449593260E+02 -0.42757065750E+01  0.54367104680E+02  0.40000046738E+02 0.  0.
         12    1    3    3    0    0  0.16867737332E+02  0.32449593260E+02  0.42757065750E+01  0.36820895320E+02  0.00000000000E+00 0. -1.
         11    1    4    4    0    0 -0.22189447093E+01 -0.22795313828E+02 -0.13969999506E+02  0.26827428774E+02  0.51100000000E-03 0. -1.
        -11    1    4    4    0    0 -0.18090056635E+02 -0.65425468457E+01  0.11666849385E+02  0.22498232000E+02  0.51100000000E-03 0.  1.
        -12    1    4    4    0    0  0.34412640122E+01 -0.31117325865E+01 -0.19725564539E+01  0.50414439058E+01  0.00000000000E+00 0.  1.
</event>
<event>
 8    1  0.2432279E-006  0.9118800E+02  0.7816164E-02  0.1184000E+00
        -11   -1    0    0    0    0  0.00000000000E+00  0.00000000000E+00  0.45593999997E+02  0.45594000000E+02  0.51100000000E-03 0.  1.
         11   -1    0    0    0    0 -0.00000000000E+00 -0.00000000000E+00 -0.45593999997E+02  0.45594000000E+02  0.51100000000E-03 0. -1.
         23    2    1    2    0    0  0.00000000000E+00  0.00000000000E+00  0.00000000000E+00  0.91188000000E+02  0.91188000000E+02 0.  0.
    9900012    2    3    3    0    0 -0.30379156722E+02 -0.58163324129E+01  0.19976418078E+02  0.54367079790E+02  0.39999989997E+02 0.  0.
         12    1    3    3    0    0  0.30379156722E+02  0.58163324129E+01 -0.19976418078E+02  0.36820920210E+02  0.00000000000E+00 0. -1.
         11    1    4    4    0    0 -0.18746398366E+02  0.12094581339E+01 -0.10114173533E+02  0.21335105980E+02  0.51100000000E-03 0. -1.
        -11    1    4    4    0    0 -0.78210758867E+01 -0.50679916334E+01  0.21454713143E+02  0.23391419014E+02  0.51100000000E-03 0.  1.
         12    1    4    4    0    0 -0.38116824689E+01 -0.19577989133E+01  0.86358784688E+01  0.96405547951E+01  0.00000000000E+00 0. -1.
</event>
<event>
 8    1  0.2432279E-006  0.9118800E+02  0.7816164E-02  0.1184000E+00
        -11   -1    0    0    0    0  0.00000000000E+00  0.00000000000E+00  0.45593999997E+02  0.45594000000E+02  0.51100000000E-03 0.  1.
         11   -1    0    0    0    0 -0.00000000000E+00 -0.00000000000E+00 -0.45593999997E+02  0.45594000000E+02  0.51100000000E-03 0. -1.
         23    2    1    2    0    0 -0.35527136788E-14 -0.88817841970E-15  0.35527136788E-14  0.91188000000E+02  0.91188000000E+02 0.  0.
    9900012    2    3    3    0    0 -0.24697231249E+02  0.71760296525E+01 -0.26350148590E+02  0.54367096105E+02  0.40000027189E+02 0.  0.
        -12    1    3    3    0    0  0.24697231249E+02 -0.71760296525E+01  0.26350148590E+02  0.36820903895E+02  0.00000000000E+00 0.  1.
         11    1    4    4    0    0 -0.74276899251E+01  0.89744744215E+01 -0.23255301303E+02  0.26010013605E+02  0.51100000000E-03 0. -1.
        -11    1    4    4    0    0  0.20514648808E-01  0.94720696535E-01 -0.97378156268E+01  0.97382979162E+01  0.51100000000E-03 0.  1.
        -12    1    4    4    0    0 -0.17290055973E+02 -0.18931654656E+01  0.66429683392E+01  0.18618784584E+02  0.00000000000E+00 0.  1.
</event>
<event>
 8    1  0.2432279E-006  0.9118800E+02  0.7816164E-02  0.1184000E+00
        -11   -1    0    0    0    0  0.00000000000E+00  0.00000000000E+00  0.45593999997E+02  0.45594000000E+02  0.51100000000E-03 0.  1.
         11   -1    0    0    0    0 -0.00000000000E+00 -0.00000000000E+00 -0.45593999997E+02  0.45594000000E+02  0.51100000000E-03 0. -1.
         23    2    1    2    0    0  0.00000000000E+00 -0.35527136788E-14  0.44408920985E-15  0.91188000000E+02  0.91188000000E+02 0.  0.
    9900012    2    3    3    0    0 -0.25048834098E+02  0.26938338085E+02  0.16326041417E+01  0.54367033897E+02  0.39999885375E+02 0.  0.
         12    1    3    3    0    0  0.25048834098E+02 -0.26938338085E+02 -0.16326041417E+01  0.36820966103E+02  0.00000000000E+00 0. -1.
         11    1    4    4    0    0 -0.26684070980E+01 -0.13337983159E+01 -0.29573419421E+01  0.42006292400E+01  0.51100000000E-03 0. -1.
        -11    1    4    4    0    0  0.15559260057E+01 -0.67677785041E+01 -0.19906444309E+01  0.72240153050E+01  0.51100000000E-03 0.  1.
        -12    1    4    4    0    0 -0.23936353006E+02  0.35039914905E+02  0.65805905147E+01  0.42942389352E+02  0.00000000000E+00 0.  1.
</event>
<event>
 8    1  0.2432279E-006  0.9118800E+02  0.7816164E-02  0.1184000E+00
        -11   -1    0    0    0    0  0.00000000000E+00  0.00000000000E+00  0.45593999997E+02  0.45594000000E+02  0.51100000000E-03 0.  1.
         11   -1    0    0    0    0 -0.00000000000E+00 -0.00000000000E+00 -0.45593999997E+02  0.45594000000E+02  0.51100000000E-03 0. -1.
         23    2    1    2    0    0 -0.44408920985E-15 -0.35527136788E-14  0.71054273576E-14  0.91188000000E+02  0.91188000000E+02 0.  0.
    9900012    2    3    3    0    0  0.25017136554E+01  0.26158462698E+02 -0.25792571410E+02  0.54367075488E+02  0.39999980191E+02 0.  0.
        -12    1    3    3    0    0 -0.25017136554E+01 -0.26158462698E+02  0.25792571410E+02  0.36820924512E+02  0.00000000000E+00 0.  1.
         11    1    4    4    0    0  0.47350544973E+01  0.11747207900E+02 -0.27917021480E+02  0.30655794283E+02  0.51100000000E-03 0. -1.
        -11    1    4    4    0    0  0.13851928362E+00 -0.40143558639E+01 -0.22799128549E+01  0.46186841720E+01  0.51100000000E-03 0.  1.
        -12    1    4    4    0    0 -0.23718601254E+01  0.18425610662E+02  0.44043629243E+01  0.19092597034E+02  0.00000000000E+00 0.  1.
</event>
<event>
 8    1  0.2432279E-006  0.9118800E+02  0.7816164E-02  0.1184000E+00
        -11   -1    0    0    0    0  0.00000000000E+00  0.00000000000E+00  0.45593999997E+02  0.45594000000E+02  0.51100000000E-03 0. -1.
         11   -1    0    0    0    0 -0.00000000000E+00 -0.00000000000E+00 -0.45593999997E+02  0.45594000000E+02  0.51100000000E-03 0.  1.
         23    2    1    2    0    0  0.00000000000E+00  0.00000000000E+00 -0.17763568394E-14  0.91188000000E+02  0.91188000000E+02 0.  0.
    9900012    2    3    3    0    0  0.23980251731E+02  0.23395397626E+02  0.15276836437E+02  0.54367097856E+02  0.40000031183E+02 0.  0.
        -12    1    3    3    0    0 -0.23980251731E+02 -0.23395397626E+02 -0.15276836437E+02  0.36820902144E+02  0.00000000000E+00 0.  1.
         11    1    4    4    0    0  0.17567967175E+02  0.11118218863E+02  0.27671574894E+01  0.20973922432E+02  0.51100000000E-03 0. -1.
        -11    1    4    4    0    0 -0.37990262855E+01 -0.73387080349E+01  0.63939885127E+01  0.10448556154E+02  0.51100000000E-03 0.  1.
         12    1    4    4    0    0  0.10211310841E+02  0.19615886798E+02  0.61156904347E+01  0.22944619270E+02  0.00000000000E+00 0. -1.
</event>
<event>
 8    1  0.2432279E-006  0.9118800E+02  0.7816164E-02  0.1184000E+00
        -11   -1    0    0    0    0  0.00000000000E+00  0.00000000000E+00  0.45593999997E+02  0.45594000000E+02  0.51100000000E-03 0.  1.
         11   -1    0    0    0    0 -0.00000000000E+00 -0.00000000000E+00 -0.45593999997E+02  0.45594000000E+02  0.51100000000E-03 0. -1.
         23    2    1    2    0    0  0.35527136788E-14  0.17763568394E-14  0.35527136788E-14  0.91188000000E+02  0.91188000000E+02 0.  0.
    9900012    2    3    3    0    0  0.16558488016E+02  0.85816735046E+01  0.31748249779E+02  0.54367081902E+02  0.39999994812E+02 0.  0.
         12    1    3    3    0    0 -0.16558488016E+02 -0.85816735046E+01 -0.31748249779E+02  0.36820918098E+02  0.00000000000E+00 0. -1.
         11    1    4    4    0    0 -0.42237481139E+01 -0.37599198607E+01  0.10733330699E+02  0.12131835543E+02  0.51100000000E-03 0. -1.
        -11    1    4    4    0    0  0.22715633274E+02 -0.28416343331E+00  0.18313257124E+02  0.29179721223E+02  0.51100000000E-03 0.  1.
         12    1    4    4    0    0 -0.19333971441E+01  0.12625756799E+02  0.27016619563E+01  0.13055525136E+02  0.00000000000E+00 0. -1.
</event>
<event>
 8    1  0.2432279E-006  0.9118800E+02  0.7816164E-02  0.1184000E+00
        -11   -1    0    0    0    0  0.00000000000E+00  0.00000000000E+00  0.45593999997E+02  0.45594000000E+02  0.51100000000E-03 0.  1.
         11   -1    0    0    0    0 -0.00000000000E+00 -0.00000000000E+00 -0.45593999997E+02  0.45594000000E+02  0.51100000000E-03 0. -1.
         23    2    1    2    0    0  0.00000000000E+00  0.00000000000E+00  0.00000000000E+00  0.91188000000E+02  0.91188000000E+02 0.  0.
    9900012    2    3    3    0    0  0.29378117458E+02  0.90031277655E+01  0.20289167563E+02  0.54367076392E+02  0.39999982251E+02 0.  0.
         12    1    3    3    0    0 -0.29378117458E+02 -0.90031277655E+01 -0.20289167563E+02  0.36820923608E+02  0.00000000000E+00 0. -1.
         11    1    4    4    0    0  0.64285948753E+01  0.45743132572E+01  0.13490262957E+02  0.15628127487E+02  0.51100000000E-03 0. -1.
        -11    1    4    4    0    0  0.27498305398E+02  0.87974828633E+01 -0.77655968393E+00  0.28881751154E+02  0.51100000000E-03 0.  1.
         12    1    4    4    0    0 -0.45487828155E+01 -0.43686683550E+01  0.75754642900E+01  0.98571977513E+01  0.00000000000E+00 0. -1.
</event>
<event>
 8    1  0.2432279E-006  0.9118800E+02  0.7816164E-02  0.1184000E+00
        -11   -1    0    0    0    0  0.00000000000E+00  0.00000000000E+00  0.45593999997E+02  0.45594000000E+02  0.51100000000E-03 0. -1.
         11   -1    0    0    0    0 -0.00000000000E+00 -0.00000000000E+00 -0.45593999997E+02  0.45594000000E+02  0.51100000000E-03 0.  1.
         23    2    1    2    0    0  0.17763568394E-14  0.00000000000E+00 -0.35527136788E-14  0.91188000000E+02  0.91188000000E+02 0.  0.
    9900012    2    3    3    0    0 -0.87828719611E+01  0.22594032896E+02  0.27715541183E+02  0.54367076798E+02  0.39999983176E+02 0.  0.
        -12    1    3    3    0    0  0.87828719611E+01 -0.22594032896E+02 -0.27715541183E+02  0.36820923202E+02  0.00000000000E+00 0.  1.
         11    1    4    4    0    0 -0.13486750997E+02 -0.18429835186E+01  0.71974571697E+01  0.15397806034E+02  0.51100000000E-03 0. -1.
        -11    1    4    4    0    0  0.66335836654E+01  0.47985545196E+01 -0.25853272365E+01  0.85857134185E+01  0.51100000000E-03 0.  1.
        -12    1    4    4    0    0 -0.19297046297E+01  0.19638461895E+02  0.23103411250E+02  0.30383557345E+02  0.00000000000E+00 0.  1.
</event>
<event>
 8    1  0.2432279E-006  0.9118800E+02  0.7816164E-02  0.1184000E+00
        -11   -1    0    0    0    0  0.00000000000E+00  0.00000000000E+00  0.45593999997E+02  0.45594000000E+02  0.51100000000E-03 0.  1.
         11   -1    0    0    0    0 -0.00000000000E+00 -0.00000000000E+00 -0.45593999997E+02  0.45594000000E+02  0.51100000000E-03 0. -1.
         23    2    1    2    0    0  0.00000000000E+00  0.00000000000E+00  0.00000000000E+00  0.91188000000E+02  0.91188000000E+02 0.  0.
    9900012    2    3    3    0    0 -0.14431875911E+02 -0.25426574049E+02  0.22382813808E+02  0.54367081161E+02  0.39999993123E+02 0.  0.
         12    1    3    3    0    0  0.14431875911E+02  0.25426574049E+02 -0.22382813808E+02  0.36820918839E+02  0.00000000000E+00 0. -1.
         11    1    4    4    0    0 -0.51681089609E+01  0.20361802990E+01 -0.31630224886E+01  0.63921899195E+01  0.51100000000E-03 0. -1.
        -11    1    4    4    0    0 -0.12193795823E+02 -0.28025612155E+02  0.29860530377E+02  0.42729086907E+02  0.51100000000E-03 0.  1.
        -12    1    4    4    0    0  0.29300288731E+01  0.56285780676E+00 -0.43146940804E+01  0.52458043345E+01  0.00000000000E+00 0.  1.
</event>
<event>
 8    1  0.2432279E-006  0.9118800E+02  0.7816164E-02  0.1184000E+00
        -11   -1    0    0    0    0  0.00000000000E+00  0.00000000000E+00  0.45593999997E+02  0.45594000000E+02  0.51100000000E-03 0. -1.
         11   -1    0    0    0    0 -0.00000000000E+00 -0.00000000000E+00 -0.45593999997E+02  0.45594000000E+02  0.51100000000E-03 0.  1.
         23    2    1    2    0    0  0.00000000000E+00  0.00000000000E+00  0.00000000000E+00  0.91188000000E+02  0.91188000000E+02 0.  0.
    9900012    2    3    3    0    0 -0.19487179322E+02  0.26368915062E+02  0.16754371380E+02  0.54367098330E+02  0.40000032262E+02 0.  0.
        -12    1    3    3    0    0  0.19487179322E+02 -0.26368915062E+02 -0.16754371380E+02  0.36820901670E+02  0.00000000000E+00 0.  1.
         11    1    4    4    0    0  0.37415088870E+01  0.20283254721E+02 -0.18162230822E+01  0.20705264485E+02  0.51100000000E-03 0. -1.
        -11    1    4    4    0    0 -0.67718529473E+01 -0.47861801042E+01  0.45113934752E+01  0.94402427765E+01  0.51100000000E-03 0.  1.
         12    1    4    4    0    0 -0.16456835262E+02  0.10871840445E+02  0.14059200987E+02  0.24221591068E+02  0.00000000000E+00 0. -1.
</event>
<event>
 8    1  0.2432279E-006  0.9118800E+02  0.7816164E-02  0.1184000E+00
        -11   -1    0    0    0    0  0.00000000000E+00  0.00000000000E+00  0.45593999997E+02  0.45594000000E+02  0.51100000000E-03 0.  1.
         11   -1    0    0    0    0 -0.00000000000E+00 -0.00000000000E+00 -0.45593999997E+02  0.45594000000E+02  0.51100000000E-03 0. -1.
         23    2    1    2    0    0 -0.44408920985E-15  0.00000000000E+00  0.88817841970E-15  0.91188000000E+02  0.91188000000E+02 0.  0.
    9900012    2    3    3    0    0 -0.25806604443E+01  0.36319551480E+02  0.54780354801E+01  0.54367102391E+02  0.40000041520E+02 0.  0.
        -12    1    3    3    0    0  0.25806604443E+01 -0.36319551480E+02 -0.54780354801E+01  0.36820897609E+02  0.00000000000E+00 0.  1.
         11    1    4    4    0    0 -0.18155917438E+01  0.84612478197E+01  0.14270068986E+02  0.16689037036E+02  0.51100000000E-03 0. -1.
        -11    1    4    4    0    0  0.24303847788E+01 -0.38740644244E+01  0.80611071804E-01  0.45740183365E+01  0.51100000000E-03 0.  1.
         12    1    4    4    0    0 -0.31954534793E+01  0.31732368084E+02 -0.88726445781E+01  0.33104047018E+02  0.00000000000E+00 0. -1.
</event>
<event>
 8    1  0.2432279E-006  0.9118800E+02  0.7816164E-02  0.1184000E+00
        -11   -1    0    0    0    0  0.00000000000E+00  0.00000000000E+00  0.45593999997E+02  0.45594000000E+02  0.51100000000E-03 0. -1.
         11   -1    0    0    0    0 -0.00000000000E+00 -0.00000000000E+00 -0.45593999997E+02  0.45594000000E+02  0.51100000000E-03 0.  1.
         23    2    1    2    0    0  0.88817841970E-15 -0.17763568394E-14 -0.71054273576E-14  0.91188000000E+02  0.91188000000E+02 0.  0.
    9900012    2    3    3    0    0  0.57676355713E+01  0.28627232897E+01  0.36253533853E+02  0.54367088529E+02  0.40000009919E+02 0.  0.
        -12    1    3    3    0    0 -0.57676355713E+01 -0.28627232897E+01 -0.36253533853E+02  0.36820911471E+02  0.00000000000E+00 0.  1.
         11    1    4    4    0    0  0.11606010807E+02 -0.11133624362E+02  0.16197028828E+02  0.22825442414E+02  0.51100000000E-03 0. -1.
        -11    1    4    4    0    0 -0.65441818058E+01  0.28029408675E+01 -0.14692927015E+01  0.72692237768E+01  0.51100000000E-03 0.  1.
         12    1    4    4    0    0  0.70580656963E+00  0.11193406784E+02  0.21525797727E+02  0.24272422338E+02  0.00000000000E+00 0. -1.
</event>
<event>
 8    1  0.2432279E-006  0.9118800E+02  0.7816164E-02  0.1184000E+00
        -11   -1    0    0    0    0  0.00000000000E+00  0.00000000000E+00  0.45593999997E+02  0.45594000000E+02  0.51100000000E-03 0. -1.
         11   -1    0    0    0    0 -0.00000000000E+00 -0.00000000000E+00 -0.45593999997E+02  0.45594000000E+02  0.51100000000E-03 0.  1.
         23    2    1    2    0    0  0.00000000000E+00  0.91593399532E-15  0.71054273576E-14  0.91188000000E+02  0.91188000000E+02 0.  0.
    9900012    2    3    3    0    0 -0.89336222432E+01  0.67751098168E-01  0.35720693491E+02  0.54367052972E+02  0.39999928860E+02 0.  0.
        -12    1    3    3    0    0  0.89336222432E+01 -0.67751098168E-01 -0.35720693491E+02  0.36820947028E+02  0.00000000000E+00 0.  1.
         11    1    4    4    0    0 -0.63201780168E+01  0.90866821309E+00  0.15949957502E+01  0.65813630647E+01  0.51100000000E-03 0. -1.
        -11    1    4    4    0    0 -0.92608352906E+00 -0.99586205134E+01 -0.22459719352E+01  0.10250665511E+02  0.51100000000E-03 0.  1.
         12    1    4    4    0    0 -0.16873606974E+01  0.91177033984E+01  0.36371669676E+02  0.37535024396E+02  0.00000000000E+00 0. -1.
</event>
<event>
 8    1  0.2432279E-006  0.9118800E+02  0.7816164E-02  0.1184000E+00
        -11   -1    0    0    0    0  0.00000000000E+00  0.00000000000E+00  0.45593999997E+02  0.45594000000E+02  0.51100000000E-03 0. -1.
         11   -1    0    0    0    0 -0.00000000000E+00 -0.00000000000E+00 -0.45593999997E+02  0.45594000000E+02  0.51100000000E-03 0.  1.
         23    2    1    2    0    0  0.00000000000E+00  0.00000000000E+00  0.00000000000E+00  0.91188000000E+02  0.91188000000E+02 0.  0.
    9900012    2    3    3    0    0  0.88468024107E+01 -0.10586448316E+02 -0.34138552593E+02  0.54367087817E+02  0.40000008297E+02 0.  0.
         12    1    3    3    0    0 -0.88468024107E+01  0.10586448316E+02  0.34138552593E+02  0.36820912183E+02  0.00000000000E+00 0. -1.
         11    1    4    4    0    0  0.10981374060E+02 -0.21912584336E+01 -0.69893012512E+00  0.11219656562E+02  0.51100000000E-03 0. -1.
        -11    1    4    4    0    0 -0.12815253025E+02 -0.68249111022E+01 -0.26780900927E+02  0.30463531909E+02  0.51100000000E-03 0.  1.
        -12    1    4    4    0    0  0.10680681375E+02 -0.15702787798E+01 -0.66587215402E+01  0.12683899347E+02  0.00000000000E+00 0.  1.
</event>
<event>
 8    1  0.2432279E-006  0.9118800E+02  0.7816164E-02  0.1184000E+00
        -11   -1    0    0    0    0  0.00000000000E+00  0.00000000000E+00  0.45593999997E+02  0.45594000000E+02  0.51100000000E-03 0.  1.
         11   -1    0    0    0    0 -0.00000000000E+00 -0.00000000000E+00 -0.45593999997E+02  0.45594000000E+02  0.51100000000E-03 0. -1.
         23    2    1    2    0    0  0.00000000000E+00  0.00000000000E+00  0.00000000000E+00  0.91188000000E+02  0.91188000000E+02 0.  0.
    9900012    2    3    3    0    0 -0.28888812796E+02 -0.61551415471E+01 -0.21984797068E+02  0.54367074233E+02  0.39999977329E+02 0.  0.
        -12    1    3    3    0    0  0.28888812796E+02  0.61551415471E+01  0.21984797068E+02  0.36820925767E+02  0.00000000000E+00 0.  1.
         11    1    4    4    0    0 -0.15557810211E+02 -0.10976512911E+01 -0.23267768996E+02  0.28011415017E+02  0.51100000000E-03 0. -1.
        -11    1    4    4    0    0 -0.13185260443E+02 -0.12530784403E+02  0.35741071749E+01  0.18537688450E+02  0.51100000000E-03 0.  1.
         12    1    4    4    0    0 -0.14574214191E+00  0.74732941474E+01 -0.22911352465E+01  0.78179707663E+01  0.00000000000E+00 0. -1.
</event>
<event>
 8    1  0.2432279E-006  0.9118800E+02  0.7816164E-02  0.1184000E+00
        -11   -1    0    0    0    0  0.00000000000E+00  0.00000000000E+00  0.45593999997E+02  0.45594000000E+02  0.51100000000E-03 0. -1.
         11   -1    0    0    0    0 -0.00000000000E+00 -0.00000000000E+00 -0.45593999997E+02  0.45594000000E+02  0.51100000000E-03 0.  1.
         23    2    1    2    0    0 -0.88817841970E-15  0.00000000000E+00  0.10658141036E-13  0.91188000000E+02  0.91188000000E+02 0.  0.
    9900012    2    3    3    0    0 -0.21392662446E+01  0.21248418974E+02 -0.29995171106E+02  0.54367054078E+02  0.39999931381E+02 0.  0.
         12    1    3    3    0    0  0.21392662446E+01 -0.21248418974E+02  0.29995171106E+02  0.36820945922E+02  0.00000000000E+00 0. -1.
         11    1    4    4    0    0 -0.85240233308E+01  0.13039979881E+02  0.61158352842E+01  0.16736292616E+02  0.51100000000E-03 0. -1.
        -11    1    4    4    0    0  0.21003614020E+01  0.19521453083E+01 -0.74240727246E+01  0.79585956930E+01  0.51100000000E-03 0.  1.
         12    1    4    4    0    0  0.42843956842E+01  0.62562937848E+01 -0.28686933665E+02  0.29672165769E+02  0.00000000000E+00 0. -1.
</event>
<event>
 8    1  0.2432279E-006  0.9118800E+02  0.7816164E-02  0.1184000E+00
        -11   -1    0    0    0    0  0.00000000000E+00  0.00000000000E+00  0.45593999997E+02  0.45594000000E+02  0.51100000000E-03 0.  1.
         11   -1    0    0    0    0 -0.00000000000E+00 -0.00000000000E+00 -0.45593999997E+02  0.45594000000E+02  0.51100000000E-03 0. -1.
         23    2    1    2    0    0  0.00000000000E+00 -0.35527136788E-14  0.35527136788E-14  0.91188000000E+02  0.91188000000E+02 0.  0.
    9900012    2    3    3    0    0 -0.82416310046E+01  0.21147826956E+02 -0.28993487913E+02  0.54367117231E+02  0.40000075351E+02 0.  0.
         12    1    3    3    0    0  0.82416310046E+01 -0.21147826956E+02  0.28993487913E+02  0.36820882769E+02  0.00000000000E+00 0. -1.
         11    1    4    4    0    0  0.71903098575E+01  0.14435805140E+02  0.20579399567E+01  0.16258171577E+02  0.51100000000E-03 0. -1.
        -11    1    4    4    0    0 -0.16835022137E+01  0.10988928530E+01  0.13805548927E+01  0.24387860256E+01  0.51100000000E-03 0.  1.
        -12    1    4    4    0    0 -0.13748438648E+02  0.56131289624E+01 -0.32431982762E+02  0.35670159628E+02  0.00000000000E+00 0.  1.
</event>
<event>
 8    1  0.2432279E-006  0.9118800E+02  0.7816164E-02  0.1184000E+00
        -11   -1    0    0    0    0  0.00000000000E+00  0.00000000000E+00  0.45593999997E+02  0.45594000000E+02  0.51100000000E-03 0. -1.
         11   -1    0    0    0    0 -0.00000000000E+00 -0.00000000000E+00 -0.45593999997E+02  0.45594000000E+02  0.51100000000E-03 0.  1.
         23    2    1    2    0    0 -0.35527136788E-14  0.88817841970E-15  0.00000000000E+00  0.91188000000E+02  0.91188000000E+02 0.  0.
    9900012    2    3    3    0    0  0.18837822318E+02  0.55340841889E+01 -0.31149466710E+02  0.54367096782E+02  0.40000028734E+02 0.  0.
         12    1    3    3    0    0 -0.18837822318E+02 -0.55340841889E+01  0.31149466710E+02  0.36820903218E+02  0.00000000000E+00 0. -1.
         11    1    4    4    0    0 -0.20122641343E+01 -0.87202655860E+01  0.47393977832E+01  0.10126901325E+02  0.51100000000E-03 0. -1.
        -11    1    4    4    0    0  0.65293739442E+01  0.54299177020E+01 -0.16606353475E+02  0.18651748077E+02  0.51100000000E-03 0.  1.
         12    1    4    4    0    0  0.14320712508E+02  0.88244320728E+01 -0.19282511018E+02  0.25588447380E+02  0.00000000000E+00 0. -1.
</event>
<event>
 8    1  0.2432279E-006  0.9118800E+02  0.7816164E-02  0.1184000E+00
        -11   -1    0    0    0    0  0.00000000000E+00  0.00000000000E+00  0.45593999997E+02  0.45594000000E+02  0.51100000000E-03 0. -1.
         11   -1    0    0    0    0 -0.00000000000E+00 -0.00000000000E+00 -0.45593999997E+02  0.45594000000E+02  0.51100000000E-03 0.  1.
         23    2    1    2    0    0  0.00000000000E+00  0.00000000000E+00 -0.26645352591E-14  0.91188000000E+02  0.91188000000E+02 0.  0.
    9900012    2    3    3    0    0  0.35271231304E+02 -0.84801065515E+01  0.63097757826E+01  0.54367010941E+02  0.39999833042E+02 0.  0.
        -12    1    3    3    0    0 -0.35271231304E+02  0.84801065515E+01 -0.63097757826E+01  0.36820989059E+02  0.00000000000E+00 0.  1.
         11    1    4    4    0    0  0.14227466936E+02  0.67202601486E+01  0.16870125167E+02  0.23069109981E+02  0.51100000000E-03 0. -1.
        -11    1    4    4    0    0  0.49426176950E+01 -0.11398584959E+02 -0.17271193009E+01  0.12543530208E+02  0.51100000000E-03 0.  1.
         12    1    4    4    0    0  0.16101146673E+02 -0.38017817415E+01 -0.88332300836E+01  0.18754370752E+02  0.00000000000E+00 0. -1.
</event>
<event>
 8    1  0.2432279E-006  0.9118800E+02  0.7816164E-02  0.1184000E+00
        -11   -1    0    0    0    0  0.00000000000E+00  0.00000000000E+00  0.45593999997E+02  0.45594000000E+02  0.51100000000E-03 0. -1.
         11   -1    0    0    0    0 -0.00000000000E+00 -0.00000000000E+00 -0.45593999997E+02  0.45594000000E+02  0.51100000000E-03 0.  1.
         23    2    1    2    0    0  0.35527136788E-14  0.00000000000E+00 -0.71054273576E-14  0.91188000000E+02  0.91188000000E+02 0.  0.
    9900012    2    3    3    0    0  0.23810838696E+02 -0.83945887491E+01 -0.26802145115E+02  0.54367080098E+02  0.39999990699E+02 0.  0.
         12    1    3    3    0    0 -0.23810838696E+02  0.83945887491E+01  0.26802145115E+02  0.36820919902E+02  0.00000000000E+00 0. -1.
         11    1    4    4    0    0 -0.14409691986E+01 -0.19014617930E+01 -0.34376718050E+01  0.41844398528E+01  0.51100000000E-03 0. -1.
        -11    1    4    4    0    0  0.18493041877E+02  0.12486785030E+02 -0.48818595760E+01  0.22841737050E+02  0.51100000000E-03 0.  1.
        -12    1    4    4    0    0  0.67587660169E+01 -0.18979911986E+02 -0.18482613734E+02  0.27340903195E+02  0.00000000000E+00 0.  1.
</event>
<event>
 8    1  0.2432279E-006  0.9118800E+02  0.7816164E-02  0.1184000E+00
        -11   -1    0    0    0    0  0.00000000000E+00  0.00000000000E+00  0.45593999997E+02  0.45594000000E+02  0.51100000000E-03 0.  1.
         11   -1    0    0    0    0 -0.00000000000E+00 -0.00000000000E+00 -0.45593999997E+02  0.45594000000E+02  0.51100000000E-03 0. -1.
         23    2    1    2    0    0  0.17763568394E-14  0.00000000000E+00  0.35527136788E-14  0.91188000000E+02  0.91188000000E+02 0.  0.
    9900012    2    3    3    0    0  0.11201340820E+02 -0.21414586224E+02  0.27779966961E+02  0.54367067045E+02  0.39999960943E+02 0.  0.
         12    1    3    3    0    0 -0.11201340820E+02  0.21414586224E+02 -0.27779966961E+02  0.36820932955E+02  0.00000000000E+00 0. -1.
         11    1    4    4    0    0 -0.42588843754E+01 -0.13809172792E+01 -0.53982542073E+01  0.70132857779E+01  0.51100000000E-03 0. -1.
        -11    1    4    4    0    0  0.13735160886E+01  0.49264266496E+01  0.54894673568E+01  0.75026980549E+01  0.51100000000E-03 0.  1.
        -12    1    4    4    0    0  0.14086709107E+02 -0.24960095595E+02  0.27688753811E+02  0.39851083212E+02  0.00000000000E+00 0.  1.
</event>
<event>
 8    1  0.2432279E-006  0.9118800E+02  0.7816164E-02  0.1184000E+00
        -11   -1    0    0    0    0  0.00000000000E+00  0.00000000000E+00  0.45593999997E+02  0.45594000000E+02  0.51100000000E-03 0.  1.
         11   -1    0    0    0    0 -0.00000000000E+00 -0.00000000000E+00 -0.45593999997E+02  0.45594000000E+02  0.51100000000E-03 0. -1.
         23    2    1    2    0    0 -0.71054273576E-14  0.00000000000E+00  0.00000000000E+00  0.91188000000E+02  0.91188000000E+02 0.  0.
    9900012    2    3    3    0    0  0.24418759207E+02  0.27152721909E+02  0.47153875928E+01  0.54367068610E+02  0.39999964511E+02 0.  0.
        -12    1    3    3    0    0 -0.24418759207E+02 -0.27152721909E+02 -0.47153875928E+01  0.36820931390E+02  0.00000000000E+00 0.  1.
         11    1    4    4    0    0  0.17974439920E+02 -0.40920079192E+01 -0.44952406048E+01  0.18974514687E+02  0.51100000000E-03 0. -1.
        -11    1    4    4    0    0  0.38900539447E+01  0.15696053286E+01 -0.69862297991E-01  0.41953619131E+01  0.51100000000E-03 0.  1.
        -12    1    4    4    0    0  0.25542653422E+01  0.29675124499E+02  0.92804904956E+01  0.31197192010E+02  0.00000000000E+00 0.  1.
</event>
<event>
 8    1  0.2432279E-006  0.9118800E+02  0.7816164E-02  0.1184000E+00
        -11   -1    0    0    0    0  0.00000000000E+00  0.00000000000E+00  0.45593999997E+02  0.45594000000E+02  0.51100000000E-03 0. -1.
         11   -1    0    0    0    0 -0.00000000000E+00 -0.00000000000E+00 -0.45593999997E+02  0.45594000000E+02  0.51100000000E-03 0.  1.
         23    2    1    2    0    0  0.00000000000E+00  0.00000000000E+00  0.35527136788E-14  0.91188000000E+02  0.91188000000E+02 0.  0.
    9900012    2    3    3    0    0 -0.16118421439E+02  0.10026348312E+02  0.31550742347E+02  0.54367075068E+02  0.39999979233E+02 0.  0.
        -12    1    3    3    0    0  0.16118421439E+02 -0.10026348312E+02 -0.31550742347E+02  0.36820924932E+02  0.00000000000E+00 0.  1.
         11    1    4    4    0    0 -0.12760456652E+02 -0.40965508656E+01  0.35187853069E+01  0.13856147850E+02  0.51100000000E-03 0. -1.
        -11    1    4    4    0    0 -0.82339162272E+01  0.83617345548E+01  0.26688310820E+00  0.11738279604E+02  0.51100000000E-03 0.  1.
         12    1    4    4    0    0  0.48759514394E+01  0.57611646227E+01  0.27765073932E+02  0.28772647614E+02  0.00000000000E+00 0. -1.
</event>
<event>
 8    1  0.2432279E-006  0.9118800E+02  0.7816164E-02  0.1184000E+00
        -11   -1    0    0    0    0  0.00000000000E+00  0.00000000000E+00  0.45593999997E+02  0.45594000000E+02  0.51100000000E-03 0. -1.
         11   -1    0    0    0    0 -0.00000000000E+00 -0.00000000000E+00 -0.45593999997E+02  0.45594000000E+02  0.51100000000E-03 0.  1.
         23    2    1    2    0    0  0.00000000000E+00  0.00000000000E+00 -0.17763568394E-14  0.91188000000E+02  0.91188000000E+02 0.  0.
    9900012    2    3    3    0    0 -0.62321856990E+01  0.36181503559E+02  0.27995783372E+01  0.54367095921E+02  0.40000026771E+02 0.  0.
        -12    1    3    3    0    0  0.62321856990E+01 -0.36181503559E+02 -0.27995783372E+01  0.36820904079E+02  0.00000000000E+00 0.  1.
         11    1    4    4    0    0  0.23316741346E+00  0.12261748078E+02  0.16442149869E+02  0.20512170181E+02  0.51100000000E-03 0. -1.
        -11    1    4    4    0    0  0.23328333990E+01 -0.16958630924E+01 -0.43528153483E+01  0.52215960216E+01  0.51100000000E-03 0.  1.
         12    1    4    4    0    0 -0.87981865114E+01  0.25615618573E+02 -0.92897561836E+01  0.28633329718E+02  0.00000000000E+00 0. -1.
</event>
<event>
 8    1  0.2432279E-006  0.9118800E+02  0.7816164E-02  0.1184000E+00
        -11   -1    0    0    0    0  0.00000000000E+00  0.00000000000E+00  0.45593999997E+02  0.45594000000E+02  0.51100000000E-03 0. -1.
         11   -1    0    0    0    0 -0.00000000000E+00 -0.00000000000E+00 -0.45593999997E+02  0.45594000000E+02  0.51100000000E-03 0.  1.
         23    2    1    2    0    0 -0.35527136788E-14  0.00000000000E+00 -0.35527136788E-14  0.91188000000E+02  0.91188000000E+02 0.  0.
    9900012    2    3    3    0    0 -0.20883515930E+02  0.22160493000E+02 -0.20701942054E+02  0.54367094357E+02  0.40000023205E+02 0.  0.
         12    1    3    3    0    0  0.20883515930E+02 -0.22160493000E+02  0.20701942054E+02  0.36820905643E+02  0.00000000000E+00 0. -1.
         11    1    4    4    0    0  0.27101348826E+01  0.49013496767E+01  0.26321901051E+01  0.61884153663E+01  0.51100000000E-03 0. -1.
        -11    1    4    4    0    0  0.37020693051E+01  0.80792227550E+01 -0.16251134092E+02  0.18522378816E+02  0.51100000000E-03 0.  1.
        -12    1    4    4    0    0 -0.27295720118E+02  0.91799205682E+01 -0.70829980665E+01  0.29656300174E+02  0.00000000000E+00 0.  1.
</event>
<event>
 8    1  0.2432279E-006  0.9118800E+02  0.7816164E-02  0.1184000E+00
        -11   -1    0    0    0    0  0.00000000000E+00  0.00000000000E+00  0.45593999997E+02  0.45594000000E+02  0.51100000000E-03 0. -1.
         11   -1    0    0    0    0 -0.00000000000E+00 -0.00000000000E+00 -0.45593999997E+02  0.45594000000E+02  0.51100000000E-03 0.  1.
         23    2    1    2    0    0  0.17763568394E-14 -0.35527136788E-14  0.00000000000E+00  0.91188000000E+02  0.91188000000E+02 0.  0.
    9900012    2    3    3    0    0 -0.14541212470E+02  0.22327161613E+02  0.25413248930E+02  0.54367051791E+02  0.39999926169E+02 0.  0.
        -12    1    3    3    0    0  0.14541212470E+02 -0.22327161613E+02 -0.25413248930E+02  0.36820948209E+02  0.00000000000E+00 0.  1.
         11    1    4    4    0    0  0.26220742905E+00 -0.26279642674E+01 -0.23540631185E+01  0.35378754011E+01  0.51100000000E-03 0.  1.
        -11    1    4    4    0    0  0.45073115595E+01 -0.56366052437E+00 -0.37669976130E+01  0.59011729307E+01  0.51100000000E-03 0. -1.
         12    1    4    4    0    0 -0.19310731459E+02  0.25518786405E+02  0.31534309661E+02  0.44928003460E+02  0.00000000000E+00 0. -1.
</event>
<event>
 8    1  0.2432279E-006  0.9118800E+02  0.7816164E-02  0.1184000E+00
        -11   -1    0    0    0    0  0.00000000000E+00  0.00000000000E+00  0.45593999997E+02  0.45594000000E+02  0.51100000000E-03 0.  1.
         11   -1    0    0    0    0 -0.00000000000E+00 -0.00000000000E+00 -0.45593999997E+02  0.45594000000E+02  0.51100000000E-03 0. -1.
         23    2    1    2    0    0 -0.71054273576E-14 -0.13877787808E-15  0.27755575616E-15  0.91188000000E+02  0.91188000000E+02 0.  0.
    9900012    2    3    3    0    0 -0.36817544674E+02  0.17332388786E+00  0.46733416273E+00  0.54367081513E+02  0.39999993925E+02 0.  0.
        -12    1    3    3    0    0  0.36817544674E+02 -0.17332388786E+00 -0.46733416273E+00  0.36820918487E+02  0.00000000000E+00 0.  1.
         11    1    4    4    0    0 -0.33240655011E+01  0.36436885383E+01  0.51021690834E+01  0.70963375932E+01  0.51100000000E-03 0. -1.
        -11    1    4    4    0    0 -0.33374282816E+02 -0.95483917736E+01  0.57997054080E+01  0.35194475732E+02  0.51100000000E-03 0.  1.
         12    1    4    4    0    0 -0.11919635729E+00  0.60780271232E+01 -0.10434540329E+02  0.12076268188E+02  0.00000000000E+00 0. -1.
</event>
<event>
 8    1  0.2432279E-006  0.9118800E+02  0.7816164E-02  0.1184000E+00
        -11   -1    0    0    0    0  0.00000000000E+00  0.00000000000E+00  0.45593999997E+02  0.45594000000E+02  0.51100000000E-03 0.  1.
         11   -1    0    0    0    0 -0.00000000000E+00 -0.00000000000E+00 -0.45593999997E+02  0.45594000000E+02  0.51100000000E-03 0. -1.
         23    2    1    2    0    0  0.88817841970E-15  0.35527136788E-14 -0.35527136788E-14  0.91188000000E+02  0.91188000000E+02 0.  0.
    9900012    2    3    3    0    0  0.69963401567E+01  0.24880222484E+02  0.26226059486E+02  0.54367076022E+02  0.39999981407E+02 0.  0.
         12    1    3    3    0    0 -0.69963401567E+01 -0.24880222484E+02 -0.26226059486E+02  0.36820923978E+02  0.00000000000E+00 0. -1.
         11    1    4    4    0    0  0.32166442056E+01 -0.43735378806E+01  0.26134583625E+01  0.60253463313E+01  0.51100000000E-03 0. -1.
        -11    1    4    4    0    0 -0.12271174409E+02  0.54290659678E+01  0.65830376139E+01  0.14946332766E+02  0.51100000000E-03 0.  1.
         12    1    4    4    0    0  0.16050870360E+02  0.23824694397E+02  0.17029563510E+02  0.33395396925E+02  0.00000000000E+00 0. -1.
</event>
<event>
 8    1  0.2432279E-006  0.9118800E+02  0.7816164E-02  0.1184000E+00
        -11   -1    0    0    0    0  0.00000000000E+00  0.00000000000E+00  0.45593999997E+02  0.45594000000E+02  0.51100000000E-03 0. -1.
         11   -1    0    0    0    0 -0.00000000000E+00 -0.00000000000E+00 -0.45593999997E+02  0.45594000000E+02  0.51100000000E-03 0.  1.
         23    2    1    2    0    0  0.00000000000E+00 -0.17763568394E-14  0.00000000000E+00  0.91188000000E+02  0.91188000000E+02 0.  0.
    9900012    2    3    3    0    0  0.32914190907E+02  0.12598695569E+02  0.10663451529E+02  0.54367078072E+02  0.39999986081E+02 0.  0.
        -12    1    3    3    0    0 -0.32914190907E+02 -0.12598695569E+02 -0.10663451529E+02  0.36820921928E+02  0.00000000000E+00 0.  1.
         11    1    4    4    0    0 -0.18281977796E+00 -0.52026938887E+01  0.18666982873E+01  0.55304619633E+01  0.51100000000E-03 0. -1.
        -11    1    4    4    0    0 -0.34363733447E+01 -0.30184276470E+01 -0.26118797620E+01  0.52670184523E+01  0.51100000000E-03 0.  1.
         12    1    4    4    0    0  0.36533384030E+02  0.20819817105E+02  0.11408633004E+02  0.43569597657E+02  0.00000000000E+00 0. -1.
</event>
<event>
 8    1  0.2432279E-006  0.9118800E+02  0.7816164E-02  0.1184000E+00
        -11   -1    0    0    0    0  0.00000000000E+00  0.00000000000E+00  0.45593999997E+02  0.45594000000E+02  0.51100000000E-03 0.  1.
         11   -1    0    0    0    0 -0.00000000000E+00 -0.00000000000E+00 -0.45593999997E+02  0.45594000000E+02  0.51100000000E-03 0. -1.
         23    2    1    2    0    0  0.00000000000E+00 -0.35527136788E-14  0.35527136788E-14  0.91188000000E+02  0.91188000000E+02 0.  0.
    9900012    2    3    3    0    0 -0.12068763199E+01  0.27353003741E+02 -0.24619776968E+02  0.54367125729E+02  0.40000094725E+02 0.  0.
        -12    1    3    3    0    0  0.12068763199E+01 -0.27353003741E+02  0.24619776968E+02  0.36820874271E+02  0.00000000000E+00 0.  1.
         11    1    4    4    0    0  0.26016383433E+01  0.46012175352E+01  0.52626594959E+00  0.53119375924E+01  0.51100000000E-03 0. -1.
        -11    1    4    4    0    0  0.16339875006E+01 -0.86559854186E+01 -0.11233674801E+02  0.14275554228E+02  0.51100000000E-03 0.  1.
         12    1    4    4    0    0 -0.54425021638E+01  0.31407771625E+02 -0.13912368116E+02  0.34779633909E+02  0.00000000000E+00 0. -1.
</event>
<event>
 8    1  0.2432279E-006  0.9118800E+02  0.7816164E-02  0.1184000E+00
        -11   -1    0    0    0    0  0.00000000000E+00  0.00000000000E+00  0.45593999997E+02  0.45594000000E+02  0.51100000000E-03 0. -1.
         11   -1    0    0    0    0 -0.00000000000E+00 -0.00000000000E+00 -0.45593999997E+02  0.45594000000E+02  0.51100000000E-03 0.  1.
         23    2    1    2    0    0  0.35527136788E-14  0.00000000000E+00  0.00000000000E+00  0.91188000000E+02  0.91188000000E+02 0.  0.
    9900012    2    3    3    0    0  0.25002915774E+02 -0.91593430858E+01 -0.25431101017E+02  0.54367078476E+02  0.39999987001E+02 0.  0.
         12    1    3    3    0    0 -0.25002915774E+02  0.91593430858E+01  0.25431101017E+02  0.36820921524E+02  0.00000000000E+00 0. -1.
         11    1    4    4    0    0  0.42289503554E+01  0.13924804737E+01  0.97687237526E+00  0.45582126845E+01  0.51100000000E-03 0. -1.
        -11    1    4    4    0    0  0.11247106970E+02  0.57282187159E+01  0.46670402344E+01  0.13457011914E+02  0.51100000000E-03 0.  1.
        -12    1    4    4    0    0  0.95268584484E+01 -0.16280042275E+02 -0.31075013627E+02  0.36351853877E+02  0.00000000000E+00 0.  1.
</event>
<event>
 8    1  0.2432279E-006  0.9118800E+02  0.7816164E-02  0.1184000E+00
        -11   -1    0    0    0    0  0.00000000000E+00  0.00000000000E+00  0.45593999997E+02  0.45594000000E+02  0.51100000000E-03 0. -1.
         11   -1    0    0    0    0 -0.00000000000E+00 -0.00000000000E+00 -0.45593999997E+02  0.45594000000E+02  0.51100000000E-03 0.  1.
         23    2    1    2    0    0  0.35527136788E-14  0.17763568394E-14  0.35527136788E-14  0.91188000000E+02  0.91188000000E+02 0.  0.
    9900012    2    3    3    0    0  0.21370763278E+02  0.11146615692E+02 -0.27835654786E+02  0.54367078748E+02  0.39999987623E+02 0.  0.
         12    1    3    3    0    0 -0.21370763278E+02 -0.11146615692E+02  0.27835654786E+02  0.36820921252E+02  0.00000000000E+00 0. -1.
         11    1    4    4    0    0  0.30623515443E+01  0.23373128275E+01  0.34458845157E+01  0.51686699054E+01  0.51100000000E-03 0. -1.
        -11    1    4    4    0    0 -0.46943206777E+00 -0.10035188738E+02 -0.32645497943E+01  0.10563269622E+02  0.51100000000E-03 0.  1.
        -12    1    4    4    0    0  0.18777843801E+02  0.18844491603E+02 -0.28016989507E+02  0.38635139221E+02  0.00000000000E+00 0.  1.
</event>
<event>
 8    1  0.2432279E-006  0.9118800E+02  0.7816164E-02  0.1184000E+00
        -11   -1    0    0    0    0  0.00000000000E+00  0.00000000000E+00  0.45593999997E+02  0.45594000000E+02  0.51100000000E-03 0.  1.
         11   -1    0    0    0    0 -0.00000000000E+00 -0.00000000000E+00 -0.45593999997E+02  0.45594000000E+02  0.51100000000E-03 0. -1.
         23    2    1    2    0    0  0.17763568394E-14  0.00000000000E+00  0.00000000000E+00  0.91188000000E+02  0.91188000000E+02 0.  0.
    9900012    2    3    3    0    0 -0.12224803350E+02 -0.19580554840E+02  0.28686853398E+02  0.54367088785E+02  0.40000010504E+02 0.  0.
         12    1    3    3    0    0  0.12224803350E+02  0.19580554840E+02 -0.28686853398E+02  0.36820911215E+02  0.00000000000E+00 0. -1.
         11    1    4    4    0    0  0.52227759495E+01 -0.23058948127E+01 -0.29211535864E+01  0.64130864677E+01  0.51100000000E-03 0. -1.
        -11    1    4    4    0    0 -0.24252985219E+02 -0.12050264341E+02  0.20759264957E+02  0.34122767246E+02  0.51100000000E-03 0.  1.
         12    1    4    4    0    0  0.68054059194E+01 -0.52243956868E+01  0.10848742027E+02  0.13831235071E+02  0.00000000000E+00 0. -1.
</event>
<event>
 8    1  0.2432279E-006  0.9118800E+02  0.7816164E-02  0.1184000E+00
        -11   -1    0    0    0    0  0.00000000000E+00  0.00000000000E+00  0.45593999997E+02  0.45594000000E+02  0.51100000000E-03 0.  1.
         11   -1    0    0    0    0 -0.00000000000E+00 -0.00000000000E+00 -0.45593999997E+02  0.45594000000E+02  0.51100000000E-03 0. -1.
         23    2    1    2    0    0 -0.17763568394E-14  0.17763568394E-14  0.00000000000E+00  0.91188000000E+02  0.91188000000E+02 0.  0.
    9900012    2    3    3    0    0 -0.10939263305E+02  0.14088985590E+02  0.32212004160E+02  0.54367079199E+02  0.39999988651E+02 0.  0.
         12    1    3    3    0    0  0.10939263305E+02 -0.14088985590E+02 -0.32212004160E+02  0.36820920801E+02  0.00000000000E+00 0. -1.
         11    1    4    4    0    0 -0.13450533184E+01 -0.59166794251E+01  0.38859064456E+01  0.72053128324E+01  0.51100000000E-03 0. -1.
        -11    1    4    4    0    0 -0.85722527295E+01 -0.45522263229E+01  0.63310544041E-01  0.97061985267E+01  0.51100000000E-03 0.  1.
        -12    1    4    4    0    0 -0.10219572570E+01  0.24557891338E+02  0.28262787170E+02  0.37455567840E+02  0.00000000000E+00 0.  1.
</event>
<event>
 8    1  0.2432279E-006  0.9118800E+02  0.7816164E-02  0.1184000E+00
        -11   -1    0    0    0    0  0.00000000000E+00  0.00000000000E+00  0.45593999997E+02  0.45594000000E+02  0.51100000000E-03 0. -1.
         11   -1    0    0    0    0 -0.00000000000E+00 -0.00000000000E+00 -0.45593999997E+02  0.45594000000E+02  0.51100000000E-03 0.  1.
         23    2    1    2    0    0  0.00000000000E+00  0.00000000000E+00 -0.71054273576E-14  0.91188000000E+02  0.91188000000E+02 0.  0.
    9900012    2    3    3    0    0 -0.97978764313E+01 -0.40800637914E+01 -0.35258108550E+02  0.54367088528E+02  0.40000009918E+02 0.  0.
         12    1    3    3    0    0  0.97978764313E+01  0.40800637914E+01  0.35258108550E+02  0.36820911472E+02  0.00000000000E+00 0. -1.
         11    1    4    4    0    0  0.20491020773E+01 -0.40752893864E+01  0.50534576166E+01  0.68076601744E+01  0.51100000000E-03 0. -1.
        -11    1    4    4    0    0 -0.10876944195E+02  0.10204572103E+02 -0.22169943379E+02  0.26719797838E+02  0.51100000000E-03 0.  1.
        -12    1    4    4    0    0 -0.97003431312E+00 -0.10209346508E+02 -0.18141622788E+02  0.20839630516E+02  0.00000000000E+00 0.  1.
</event>
<event>
 8    1  0.2432279E-006  0.9118800E+02  0.7816164E-02  0.1184000E+00
        -11   -1    0    0    0    0  0.00000000000E+00  0.00000000000E+00  0.45593999997E+02  0.45594000000E+02  0.51100000000E-03 0. -1.
         11   -1    0    0    0    0 -0.00000000000E+00 -0.00000000000E+00 -0.45593999997E+02  0.45594000000E+02  0.51100000000E-03 0.  1.
         23    2    1    2    0    0  0.00000000000E+00  0.00000000000E+00  0.00000000000E+00  0.91188000000E+02  0.91188000000E+02 0.  0.
    9900012    2    3    3    0    0 -0.14239087027E+02  0.10552268627E+02  0.32275039346E+02  0.54367080167E+02  0.39999990857E+02 0.  0.
        -12    1    3    3    0    0  0.14239087027E+02 -0.10552268627E+02 -0.32275039346E+02  0.36820919833E+02  0.00000000000E+00 0.  1.
         11    1    4    4    0    0 -0.11617153726E+02  0.11464434799E+02  0.46388714949E+01  0.16967930191E+02  0.51100000000E-03 0. -1.
        -11    1    4    4    0    0  0.53193169487E+01  0.68758423548E+01  0.12734002582E+01  0.87860053134E+01  0.51100000000E-03 0.  1.
        -12    1    4    4    0    0 -0.79412502493E+01 -0.77880085268E+01  0.26362767593E+02  0.28613144663E+02  0.00000000000E+00 0.  1.
</event>
<event>
 8    1  0.2432279E-006  0.9118800E+02  0.7816164E-02  0.1184000E+00
        -11   -1    0    0    0    0  0.00000000000E+00  0.00000000000E+00  0.45593999997E+02  0.45594000000E+02  0.51100000000E-03 0. -1.
         11   -1    0    0    0    0 -0.00000000000E+00 -0.00000000000E+00 -0.45593999997E+02  0.45594000000E+02  0.51100000000E-03 0.  1.
         23    2    1    2    0    0  0.13322676296E-14  0.71054273576E-14  0.17763568394E-14  0.91188000000E+02  0.91188000000E+02 0.  0.
    9900012    2    3    3    0    0  0.18866246724E+01 -0.34990322595E+02 -0.11309178054E+02  0.54367088330E+02  0.40000009465E+02 0.  0.
         12    1    3    3    0    0 -0.18866246724E+01  0.34990322595E+02  0.11309178054E+02  0.36820911670E+02  0.00000000000E+00 0. -1.
         11    1    4    4    0    0  0.43094967030E+01  0.35122061400E+01  0.24075472811E+01  0.60583527443E+01  0.51100000000E-03 0. -1.
        -11    1    4    4    0    0 -0.10989317330E+02 -0.79406735608E+01 -0.88683351020E+01  0.16200825896E+02  0.51100000000E-03 0.  1.
         12    1    4    4    0    0  0.85664452991E+01 -0.30561855175E+02 -0.48483902329E+01  0.32107909689E+02  0.00000000000E+00 0. -1.
</event>
<event>
 8    1  0.2432279E-006  0.9118800E+02  0.7816164E-02  0.1184000E+00
        -11   -1    0    0    0    0  0.00000000000E+00  0.00000000000E+00  0.45593999997E+02  0.45594000000E+02  0.51100000000E-03 0.  1.
         11   -1    0    0    0    0 -0.00000000000E+00 -0.00000000000E+00 -0.45593999997E+02  0.45594000000E+02  0.51100000000E-03 0. -1.
         23    2    1    2    0    0  0.17763568394E-14 -0.17763568394E-14  0.00000000000E+00  0.91188000000E+02  0.91188000000E+02 0.  0.
    9900012    2    3    3    0    0  0.74751570103E+01 -0.82600492614E+01 -0.35095188725E+02  0.54367100258E+02  0.40000036659E+02 0.  0.
        -12    1    3    3    0    0 -0.74751570103E+01  0.82600492614E+01  0.35095188725E+02  0.36820899742E+02  0.00000000000E+00 0.  1.
         11    1    4    4    0    0 -0.22236006843E+01  0.38519782841E+01 -0.97226884517E+01  0.10691716780E+02  0.51100000000E-03 0. -1.
        -11    1    4    4    0    0  0.18400960927E+02  0.22941785675E+01 -0.11128838107E+02  0.21626596038E+02  0.51100000000E-03 0.  1.
        -12    1    4    4    0    0 -0.87022032323E+01 -0.14406206113E+02 -0.14243662167E+02  0.22048787440E+02  0.00000000000E+00 0.  1.
</event>
<event>
 8    1  0.2432279E-006  0.9118800E+02  0.7816164E-02  0.1184000E+00
        -11   -1    0    0    0    0  0.00000000000E+00  0.00000000000E+00  0.45593999997E+02  0.45594000000E+02  0.51100000000E-03 0. -1.
         11   -1    0    0    0    0 -0.00000000000E+00 -0.00000000000E+00 -0.45593999997E+02  0.45594000000E+02  0.51100000000E-03 0.  1.
         23    2    1    2    0    0  0.00000000000E+00 -0.17763568394E-14  0.00000000000E+00  0.91188000000E+02  0.91188000000E+02 0.  0.
    9900012    2    3    3    0    0 -0.10113864612E+02 -0.10837881261E+02  0.33705041939E+02  0.54367085023E+02  0.40000001927E+02 0.  0.
        -12    1    3    3    0    0  0.10113864612E+02  0.10837881261E+02 -0.33705041939E+02  0.36820914977E+02  0.00000000000E+00 0.  1.
         11    1    4    4    0    0  0.18879801946E+01  0.34169530513E+01  0.18327658823E+00  0.39081489147E+01  0.51100000000E-03 0.  1.
        -11    1    4    4    0    0 -0.96516299927E+01 -0.10418319472E+01  0.35580956636E+02  0.36881483847E+02  0.51100000000E-03 0. -1.
         12    1    4    4    0    0 -0.23502148135E+01 -0.13213002365E+02 -0.20591912855E+01  0.13577452262E+02  0.00000000000E+00 0. -1.
</event>
<event>
 8    1  0.2432279E-006  0.9118800E+02  0.7816164E-02  0.1184000E+00
        -11   -1    0    0    0    0  0.00000000000E+00  0.00000000000E+00  0.45593999997E+02  0.45594000000E+02  0.51100000000E-03 0.  1.
         11   -1    0    0    0    0 -0.00000000000E+00 -0.00000000000E+00 -0.45593999997E+02  0.45594000000E+02  0.51100000000E-03 0. -1.
         23    2    1    2    0    0  0.11102230246E-15 -0.88817841970E-15 -0.71054273576E-14  0.91188000000E+02  0.91188000000E+02 0.  0.
    9900012    2    3    3    0    0 -0.17241327349E+00 -0.52405027136E+01  0.36445688103E+02  0.54367071490E+02  0.39999971077E+02 0.  0.
         12    1    3    3    0    0  0.17241327349E+00  0.52405027136E+01 -0.36445688103E+02  0.36820928510E+02  0.00000000000E+00 0. -1.
         11    1    4    4    0    0  0.59772954099E+01 -0.16361616697E+02  0.88115717905E+01  0.19521125968E+02  0.51100000000E-03 0. -1.
        -11    1    4    4    0    0 -0.26157987114E-01  0.49719651613E+00 -0.23758075873E+01  0.24274164391E+01  0.51100000000E-03 0.  1.
        -12    1    4    4    0    0 -0.61235506962E+01  0.10623917468E+02  0.30009923900E+02  0.32418529084E+02  0.00000000000E+00 0.  1.
</event>
<event>
 8    1  0.2432279E-006  0.9118800E+02  0.7816164E-02  0.1184000E+00
        -11   -1    0    0    0    0  0.00000000000E+00  0.00000000000E+00  0.45593999997E+02  0.45594000000E+02  0.51100000000E-03 0. -1.
         11   -1    0    0    0    0 -0.00000000000E+00 -0.00000000000E+00 -0.45593999997E+02  0.45594000000E+02  0.51100000000E-03 0.  1.
         23    2    1    2    0    0  0.22204460493E-15 -0.17763568394E-14  0.00000000000E+00  0.91188000000E+02  0.91188000000E+02 0.  0.
    9900012    2    3    3    0    0 -0.14089144477E+01 -0.12650698623E+02 -0.34550705622E+02  0.54367129905E+02  0.40000104244E+02 0.  0.
         12    1    3    3    0    0  0.14089144477E+01  0.12650698623E+02  0.34550705622E+02  0.36820870095E+02  0.00000000000E+00 0. -1.
         11    1    4    4    0    0  0.37071725189E+01 -0.10408153739E+02 -0.24281755901E+02  0.26677264894E+02  0.51100000000E-03 0. -1.
        -11    1    4    4    0    0  0.81680986154E+01 -0.52862870239E+01 -0.10151213892E+02  0.14060932018E+02  0.51100000000E-03 0.  1.
         12    1    4    4    0    0 -0.13284185582E+02  0.30437421397E+01 -0.11773583007E+00  0.13628932993E+02  0.00000000000E+00 0. -1.
</event>
<event>
 8    1  0.2432279E-006  0.9118800E+02  0.7816164E-02  0.1184000E+00
        -11   -1    0    0    0    0  0.00000000000E+00  0.00000000000E+00  0.45593999997E+02  0.45594000000E+02  0.51100000000E-03 0. -1.
         11   -1    0    0    0    0 -0.00000000000E+00 -0.00000000000E+00 -0.45593999997E+02  0.45594000000E+02  0.51100000000E-03 0.  1.
         23    2    1    2    0    0  0.10547118734E-14  0.00000000000E+00  0.35527136788E-14  0.91188000000E+02  0.91188000000E+02 0.  0.
    9900012    2    3    3    0    0 -0.39859412176E+00 -0.26288271912E+02  0.25778809466E+02  0.54367093780E+02  0.40000021890E+02 0.  0.
        -12    1    3    3    0    0  0.39859412176E+00  0.26288271912E+02 -0.25778809466E+02  0.36820906220E+02  0.00000000000E+00 0.  1.
         11    1    4    4    0    0  0.10514156003E+01 -0.16036868865E+02  0.99109735499E+01  0.18881579243E+02  0.51100000000E-03 0. -1.
        -11    1    4    4    0    0 -0.11948646804E+02 -0.71714652002E+01 -0.24496301152E+01  0.14149231835E+02  0.51100000000E-03 0.  1.
        -12    1    4    4    0    0  0.10498637082E+02 -0.30799378474E+01  0.18317466031E+02  0.21336282702E+02  0.00000000000E+00 0.  1.
</event>
<event>
 8    1  0.2432279E-006  0.9118800E+02  0.7816164E-02  0.1184000E+00
        -11   -1    0    0    0    0  0.00000000000E+00  0.00000000000E+00  0.45593999997E+02  0.45594000000E+02  0.51100000000E-03 0.  1.
         11   -1    0    0    0    0 -0.00000000000E+00 -0.00000000000E+00 -0.45593999997E+02  0.45594000000E+02  0.51100000000E-03 0. -1.
         23    2    1    2    0    0  0.35527136788E-14  0.88817841970E-15  0.35527136788E-14  0.91188000000E+02  0.91188000000E+02 0.  0.
    9900012    2    3    3    0    0  0.22444127438E+02  0.63635296812E+01  0.28487647988E+02  0.54367089442E+02  0.40000012001E+02 0.  0.
        -12    1    3    3    0    0 -0.22444127438E+02 -0.63635296812E+01 -0.28487647988E+02  0.36820910558E+02  0.00000000000E+00 0.  1.
         11    1    4    4    0    0  0.22900455563E+01  0.25394392955E+01  0.25204297262E+02  0.25435205155E+02  0.51100000000E-03 0. -1.
        -11    1    4    4    0    0  0.11573317003E+01 -0.52349358265E+01  0.56070813947E+01  0.77577916832E+01  0.51100000000E-03 0.  1.
         12    1    4    4    0    0  0.18996750181E+02  0.90590262122E+01 -0.23237306687E+01  0.21174092604E+02  0.00000000000E+00 0. -1.
</event>
<event>
 8    1  0.2432279E-006  0.9118800E+02  0.7816164E-02  0.1184000E+00
        -11   -1    0    0    0    0  0.00000000000E+00  0.00000000000E+00  0.45593999997E+02  0.45594000000E+02  0.51100000000E-03 0. -1.
         11   -1    0    0    0    0 -0.00000000000E+00 -0.00000000000E+00 -0.45593999997E+02  0.45594000000E+02  0.51100000000E-03 0.  1.
         23    2    1    2    0    0  0.00000000000E+00  0.00000000000E+00 -0.17763568394E-14  0.91188000000E+02  0.91188000000E+02 0.  0.
    9900012    2    3    3    0    0  0.28870485751E+01  0.33913593531E+02 -0.14046771494E+02  0.54367100159E+02  0.40000036433E+02 0.  0.
        -12    1    3    3    0    0 -0.28870485751E+01 -0.33913593531E+02  0.14046771494E+02  0.36820899841E+02  0.00000000000E+00 0.  1.
         11    1    4    4    0    0 -0.99940630714E+01  0.22744570655E+02 -0.14975143054E+02  0.29007786898E+02  0.51100000000E-03 0. -1.
        -11    1    4    4    0    0 -0.26605091203E+01 -0.24944805246E+01  0.27758069803E+01  0.45832135582E+01  0.51100000000E-03 0.  1.
        -12    1    4    4    0    0  0.15541620767E+02  0.13663503401E+02 -0.18474354201E+01  0.20776099703E+02  0.00000000000E+00 0.  1.
</event>
<event>
 8    1  0.2432279E-006  0.9118800E+02  0.7816164E-02  0.1184000E+00
        -11   -1    0    0    0    0  0.00000000000E+00  0.00000000000E+00  0.45593999997E+02  0.45594000000E+02  0.51100000000E-03 0.  1.
         11   -1    0    0    0    0 -0.00000000000E+00 -0.00000000000E+00 -0.45593999997E+02  0.45594000000E+02  0.51100000000E-03 0. -1.
         23    2    1    2    0    0 -0.17763568394E-14  0.00000000000E+00  0.00000000000E+00  0.91188000000E+02  0.91188000000E+02 0.  0.
    9900012    2    3    3    0    0 -0.12238919071E+02  0.48128748800E+01  0.34392237046E+02  0.54367070168E+02  0.39999968063E+02 0.  0.
         12    1    3    3    0    0  0.12238919071E+02 -0.48128748800E+01 -0.34392237046E+02  0.36820929832E+02  0.00000000000E+00 0. -1.
         11    1    4    4    0    0 -0.16251166371E+02 -0.83644597888E+01  0.19100813418E+02  0.26436824119E+02  0.51100000000E-03 0. -1.
        -11    1    4    4    0    0 -0.36510460867E+01  0.12132655920E+02  0.15712641182E+02  0.20184612218E+02  0.51100000000E-03 0.  1.
        -12    1    4    4    0    0  0.76632933870E+01  0.10446787484E+01 -0.42121755473E+00  0.77456338315E+01  0.00000000000E+00 0.  1.
</event>
<event>
 8    1  0.2432279E-006  0.9118800E+02  0.7816164E-02  0.1184000E+00
        -11   -1    0    0    0    0  0.00000000000E+00  0.00000000000E+00  0.45593999997E+02  0.45594000000E+02  0.51100000000E-03 0. -1.
         11   -1    0    0    0    0 -0.00000000000E+00 -0.00000000000E+00 -0.45593999997E+02  0.45594000000E+02  0.51100000000E-03 0.  1.
         23    2    1    2    0    0  0.88817841970E-15  0.00000000000E+00 -0.22204460493E-15  0.91188000000E+02  0.91188000000E+02 0.  0.
    9900012    2    3    3    0    0 -0.59821577648E+01 -0.36327158797E+02 -0.57665145726E+00  0.54367065673E+02  0.39999957815E+02 0.  0.
         12    1    3    3    0    0  0.59821577648E+01  0.36327158797E+02  0.57665145726E+00  0.36820934327E+02  0.00000000000E+00 0. -1.
         11    1    4    4    0    0  0.27505159631E+01  0.41418002247E+01 -0.41843878870E+01  0.64983805224E+01  0.51100000000E-03 0. -1.
        -11    1    4    4    0    0 -0.12603772191E+02 -0.33256196065E+02 -0.50874836802E+01  0.35926482441E+02  0.51100000000E-03 0.  1.
        -12    1    4    4    0    0  0.38710984632E+01 -0.72127629570E+01  0.86952201099E+01  0.11942202709E+02  0.00000000000E+00 0.  1.
</event>
<event>
 8    1  0.2432279E-006  0.9118800E+02  0.7816164E-02  0.1184000E+00
        -11   -1    0    0    0    0  0.00000000000E+00  0.00000000000E+00  0.45593999997E+02  0.45594000000E+02  0.51100000000E-03 0.  1.
         11   -1    0    0    0    0 -0.00000000000E+00 -0.00000000000E+00 -0.45593999997E+02  0.45594000000E+02  0.51100000000E-03 0. -1.
         23    2    1    2    0    0 -0.44408920985E-15  0.00000000000E+00  0.17763568394E-14  0.91188000000E+02  0.91188000000E+02 0.  0.
    9900012    2    3    3    0    0 -0.39391694540E+01  0.34365392947E+02  0.12620775367E+02  0.54367064932E+02  0.39999956125E+02 0.  0.
         12    1    3    3    0    0  0.39391694540E+01 -0.34365392947E+02 -0.12620775367E+02  0.36820935068E+02  0.00000000000E+00 0. -1.
         11    1    4    4    0    0 -0.34662854593E+01 -0.15724600298E+01 -0.21373209690E+01  0.43653071617E+01  0.51100000000E-03 0. -1.
        -11    1    4    4    0    0 -0.10806796115E+02  0.22946679185E+02  0.20314611725E+02  0.32496467156E+02  0.51100000000E-03 0.  1.
        -12    1    4    4    0    0  0.10333912120E+02  0.12991173792E+02 -0.55565153883E+01  0.17505290614E+02  0.00000000000E+00 0.  1.
</event>
<event>
 8    1  0.2432279E-006  0.9118800E+02  0.7816164E-02  0.1184000E+00
        -11   -1    0    0    0    0  0.00000000000E+00  0.00000000000E+00  0.45593999997E+02  0.45594000000E+02  0.51100000000E-03 0. -1.
         11   -1    0    0    0    0 -0.00000000000E+00 -0.00000000000E+00 -0.45593999997E+02  0.45594000000E+02  0.51100000000E-03 0.  1.
         23    2    1    2    0    0  0.44408920985E-15  0.00000000000E+00 -0.17763568394E-14  0.91188000000E+02  0.91188000000E+02 0.  0.
    9900012    2    3    3    0    0  0.27292669174E+01  0.34358979051E+02 -0.12953410252E+02  0.54367093215E+02  0.40000020602E+02 0.  0.
         12    1    3    3    0    0 -0.27292669174E+01 -0.34358979051E+02  0.12953410252E+02  0.36820906785E+02  0.00000000000E+00 0. -1.
         11    1    4    4    0    0 -0.22538941436E+01  0.23972342457E+02 -0.15347530445E+02  0.28553457456E+02  0.51100000000E-03 0. -1.
        -11    1    4    4    0    0 -0.27550426828E+01  0.12682867399E+02  0.86537811517E+01  0.15599144660E+02  0.51100000000E-03 0.  1.
         12    1    4    4    0    0  0.77382037437E+01 -0.22962308052E+01 -0.62596609585E+01  0.10214491099E+02  0.00000000000E+00 0. -1.
</event>
<event>
 8    1  0.2432279E-006  0.9118800E+02  0.7816164E-02  0.1184000E+00
        -11   -1    0    0    0    0  0.00000000000E+00  0.00000000000E+00  0.45593999997E+02  0.45594000000E+02  0.51100000000E-03 0.  1.
         11   -1    0    0    0    0 -0.00000000000E+00 -0.00000000000E+00 -0.45593999997E+02  0.45594000000E+02  0.51100000000E-03 0. -1.
         23    2    1    2    0    0  0.88817841970E-15  0.00000000000E+00  0.00000000000E+00  0.91188000000E+02  0.91188000000E+02 0.  0.
    9900012    2    3    3    0    0 -0.73544983369E+01  0.13862481856E+02 -0.33309513583E+02  0.54367071927E+02  0.39999972073E+02 0.  0.
        -12    1    3    3    0    0  0.73544983369E+01 -0.13862481856E+02  0.33309513583E+02  0.36820928073E+02  0.00000000000E+00 0.  1.
         11    1    4    4    0    0 -0.12007383576E+02  0.89284786278E+01 -0.32847879791E+02  0.36095404112E+02  0.51100000000E-03 0. -1.
        -11    1    4    4    0    0  0.48713577384E+01  0.87109659949E+01 -0.59396245441E+01  0.11614223812E+02  0.51100000000E-03 0.  1.
        -12    1    4    4    0    0 -0.21847249960E+00 -0.37769627665E+01  0.54779907525E+01  0.66574440033E+01  0.00000000000E+00 0.  1.
</event>
<event>
 8    1  0.2432279E-006  0.9118800E+02  0.7816164E-02  0.1184000E+00
        -11   -1    0    0    0    0  0.00000000000E+00  0.00000000000E+00  0.45593999997E+02  0.45594000000E+02  0.51100000000E-03 0.  1.
         11   -1    0    0    0    0 -0.00000000000E+00 -0.00000000000E+00 -0.45593999997E+02  0.45594000000E+02  0.51100000000E-03 0. -1.
         23    2    1    2    0    0  0.00000000000E+00  0.00000000000E+00  0.71054273576E-14  0.91188000000E+02  0.91188000000E+02 0.  0.
    9900012    2    3    3    0    0 -0.10080735079E+02  0.84952448490E+01  0.34380073939E+02  0.54367083542E+02  0.39999998551E+02 0.  0.
         12    1    3    3    0    0  0.10080735079E+02 -0.84952448490E+01 -0.34380073939E+02  0.36820916458E+02  0.00000000000E+00 0. -1.
         11    1    4    4    0    0 -0.10379099556E+02  0.53089768639E+01  0.17512527642E+02  0.21038050470E+02  0.51100000000E-03 0. -1.
        -11    1    4    4    0    0 -0.13774128042E+02 -0.16028129978E+01  0.76312458740E+01  0.15828187725E+02  0.51100000000E-03 0.  1.
         12    1    4    4    0    0  0.14072492518E+02  0.47890809829E+01  0.92363004227E+01  0.17500845346E+02  0.00000000000E+00 0. -1.
</event>
<event>
 8    1  0.2432279E-006  0.9118800E+02  0.7816164E-02  0.1184000E+00
        -11   -1    0    0    0    0  0.00000000000E+00  0.00000000000E+00  0.45593999997E+02  0.45594000000E+02  0.51100000000E-03 0. -1.
         11   -1    0    0    0    0 -0.00000000000E+00 -0.00000000000E+00 -0.45593999997E+02  0.45594000000E+02  0.51100000000E-03 0.  1.
         23    2    1    2    0    0  0.00000000000E+00  0.88817841970E-15  0.00000000000E+00  0.91188000000E+02  0.91188000000E+02 0.  0.
    9900012    2    3    3    0    0 -0.31474576120E+02  0.77896180211E+01  0.17448563011E+02  0.54367089609E+02  0.40000012382E+02 0.  0.
        -12    1    3    3    0    0  0.31474576120E+02 -0.77896180211E+01 -0.17448563011E+02  0.36820910391E+02  0.00000000000E+00 0.  1.
         11    1    4    4    0    0 -0.22907949083E+02  0.28869232695E+01  0.63591559712E+01  0.23948848032E+02  0.51100000000E-03 0. -1.
        -11    1    4    4    0    0  0.54919903088E+01  0.10698444005E+02  0.78902620987E+00  0.12051606710E+02  0.51100000000E-03 0.  1.
        -12    1    4    4    0    0 -0.14058617346E+02 -0.57957492532E+01  0.10300380830E+02  0.18366634867E+02  0.00000000000E+00 0.  1.
</event>
<event>
 8    1  0.2432279E-006  0.9118800E+02  0.7816164E-02  0.1184000E+00
        -11   -1    0    0    0    0  0.00000000000E+00  0.00000000000E+00  0.45593999997E+02  0.45594000000E+02  0.51100000000E-03 0.  1.
         11   -1    0    0    0    0 -0.00000000000E+00 -0.00000000000E+00 -0.45593999997E+02  0.45594000000E+02  0.51100000000E-03 0. -1.
         23    2    1    2    0    0  0.35527136788E-14  0.17763568394E-14 -0.35527136788E-14  0.91188000000E+02  0.91188000000E+02 0.  0.
    9900012    2    3    3    0    0 -0.25489797088E+02 -0.14702187992E+02 -0.22133599129E+02  0.54367077989E+02  0.39999985891E+02 0.  0.
        -12    1    3    3    0    0  0.25489797088E+02  0.14702187992E+02  0.22133599129E+02  0.36820922011E+02  0.00000000000E+00 0.  1.
         11    1    4    4    0    0 -0.81901678573E+01  0.33343750686E+01 -0.64985991291E+01  0.10974000981E+02  0.51100000000E-03 0. -1.
        -11    1    4    4    0    0  0.34342180457E+01 -0.11838456946E+02  0.51764648619E+01  0.13369319548E+02  0.51100000000E-03 0.  1.
        -12    1    4    4    0    0 -0.20733847277E+02 -0.61981061146E+01 -0.20811464862E+02  0.30023757460E+02  0.00000000000E+00 0.  1.
</event>
<event>
 8    1  0.2432279E-006  0.9118800E+02  0.7816164E-02  0.1184000E+00
        -11   -1    0    0    0    0  0.00000000000E+00  0.00000000000E+00  0.45593999997E+02  0.45594000000E+02  0.51100000000E-03 0. -1.
         11   -1    0    0    0    0 -0.00000000000E+00 -0.00000000000E+00 -0.45593999997E+02  0.45594000000E+02  0.51100000000E-03 0.  1.
         23    2    1    2    0    0 -0.35527136788E-14 -0.17763568394E-14 -0.35527136788E-14  0.91188000000E+02  0.91188000000E+02 0.  0.
    9900012    2    3    3    0    0 -0.25310525796E+02 -0.10089285627E+02 -0.24766185337E+02  0.54367077460E+02  0.39999984686E+02 0.  0.
         12    1    3    3    0    0  0.25310525796E+02  0.10089285627E+02  0.24766185337E+02  0.36820922540E+02  0.00000000000E+00 0. -1.
         11    1    4    4    0    0  0.19909346314E+01 -0.14427240224E+01 -0.31207965233E+01  0.39729893672E+01  0.51100000000E-03 0. -1.
        -11    1    4    4    0    0 -0.14087937153E+02  0.35497104572E+01 -0.27817189344E+02  0.31382581806E+02  0.51100000000E-03 0.  1.
         12    1    4    4    0    0 -0.13213523275E+02 -0.12196272061E+02  0.61718005303E+01  0.19011506287E+02  0.00000000000E+00 0. -1.
</event>
<event>
 8    1  0.2432279E-006  0.9118800E+02  0.7816164E-02  0.1184000E+00
        -11   -1    0    0    0    0  0.00000000000E+00  0.00000000000E+00  0.45593999997E+02  0.45594000000E+02  0.51100000000E-03 0. -1.
         11   -1    0    0    0    0 -0.00000000000E+00 -0.00000000000E+00 -0.45593999997E+02  0.45594000000E+02  0.51100000000E-03 0.  1.
         23    2    1    2    0    0  0.71054273576E-14  0.00000000000E+00 -0.22204460493E-15  0.91188000000E+02  0.91188000000E+02 0.  0.
    9900012    2    3    3    0    0 -0.36414198059E+02 -0.53822150166E+01  0.90310909224E+00  0.54367113743E+02  0.40000067399E+02 0.  0.
        -12    1    3    3    0    0  0.36414198059E+02  0.53822150166E+01 -0.90310909224E+00  0.36820886257E+02  0.00000000000E+00 0.  1.
         11    1    4    4    0    0 -0.23045709456E+01 -0.57671189429E+01 -0.48758719154E+01  0.78958745774E+01  0.51100000000E-03 0.  1.
        -11    1    4    4    0    0 -0.40344129765E+01  0.32341531993E+01  0.14197940372E+02  0.15110186831E+02  0.51100000000E-03 0. -1.
         12    1    4    4    0    0 -0.30075214136E+02 -0.28492492731E+01 -0.84189593645E+01  0.31361052335E+02  0.00000000000E+00 0. -1.
</event>
<event>
 8    1  0.2432279E-006  0.9118800E+02  0.7816164E-02  0.1184000E+00
        -11   -1    0    0    0    0  0.00000000000E+00  0.00000000000E+00  0.45593999997E+02  0.45594000000E+02  0.51100000000E-03 0.  1.
         11   -1    0    0    0    0 -0.00000000000E+00 -0.00000000000E+00 -0.45593999997E+02  0.45594000000E+02  0.51100000000E-03 0. -1.
         23    2    1    2    0    0  0.17763568394E-14  0.00000000000E+00  0.00000000000E+00  0.91188000000E+02  0.91188000000E+02 0.  0.
    9900012    2    3    3    0    0  0.11803481525E+02  0.34310001359E+02 -0.62676938610E+01  0.54367050043E+02  0.39999922184E+02 0.  0.
        -12    1    3    3    0    0 -0.11803481525E+02 -0.34310001359E+02  0.62676938610E+01  0.36820949957E+02  0.00000000000E+00 0.  1.
         11    1    4    4    0    0 -0.11559233088E+02  0.13306866890E+02 -0.46596842994E+01  0.18231874123E+02  0.51100000000E-03 0. -1.
        -11    1    4    4    0    0  0.22795032623E+02  0.20980305296E+02 -0.61271089159E+01  0.31580503266E+02  0.51100000000E-03 0.  1.
         12    1    4    4    0    0  0.56768199111E+00  0.22829173142E-01  0.45190993543E+01  0.45546726543E+01  0.00000000000E+00 0. -1.
</event>
<event>
 8    1  0.2432279E-006  0.9118800E+02  0.7816164E-02  0.1184000E+00
        -11   -1    0    0    0    0  0.00000000000E+00  0.00000000000E+00  0.45593999997E+02  0.45594000000E+02  0.51100000000E-03 0.  1.
         11   -1    0    0    0    0 -0.00000000000E+00 -0.00000000000E+00 -0.45593999997E+02  0.45594000000E+02  0.51100000000E-03 0. -1.
         23    2    1    2    0    0  0.17763568394E-14 -0.35527136788E-14  0.35527136788E-14  0.91188000000E+02  0.91188000000E+02 0.  0.
    9900012    2    3    3    0    0  0.13852690723E+02 -0.27474016074E+02  0.20225255171E+02  0.54367088194E+02  0.40000009156E+02 0.  0.
         12    1    3    3    0    0 -0.13852690723E+02  0.27474016074E+02 -0.20225255171E+02  0.36820911806E+02  0.00000000000E+00 0. -1.
         11    1    4    4    0    0  0.19612682091E+00  0.36324065112E+01  0.84957337962E+01  0.92417712474E+01  0.51100000000E-03 0. -1.
        -11    1    4    4    0    0  0.71967996783E+00 -0.58672724260E+01  0.15429832749E+02  0.16523394442E+02  0.51100000000E-03 0.  1.
        -12    1    4    4    0    0  0.12936883935E+02 -0.25239150159E+02 -0.37003113738E+01  0.28601922504E+02  0.00000000000E+00 0.  1.
</event>
<event>
 8    1  0.2432279E-006  0.9118800E+02  0.7816164E-02  0.1184000E+00
        -11   -1    0    0    0    0  0.00000000000E+00  0.00000000000E+00  0.45593999997E+02  0.45594000000E+02  0.51100000000E-03 0. -1.
         11   -1    0    0    0    0 -0.00000000000E+00 -0.00000000000E+00 -0.45593999997E+02  0.45594000000E+02  0.51100000000E-03 0.  1.
         23    2    1    2    0    0  0.00000000000E+00 -0.88817841970E-15  0.00000000000E+00  0.91188000000E+02  0.91188000000E+02 0.  0.
    9900012    2    3    3    0    0 -0.96624727448E+01  0.45835473702E+01 -0.35233703045E+02  0.54366998978E+02  0.39999805769E+02 0.  0.
         12    1    3    3    0    0  0.96624727448E+01 -0.45835473702E+01  0.35233703045E+02  0.36821001022E+02  0.00000000000E+00 0. -1.
         11    1    4    4    0    0 -0.43525891485E+01 -0.10113172822E+02 -0.11022012592E+02  0.15579026242E+02  0.51100000000E-03 0. -1.
        -11    1    4    4    0    0  0.74486191068E+01  0.63952270074E+01  0.42697242493E+00  0.98266556258E+01  0.51100000000E-03 0.  1.
         12    1    4    4    0    0 -0.12758502703E+02  0.83014931848E+01 -0.24638662878E+02  0.28961317110E+02  0.00000000000E+00 0. -1.
</event>
<event>
 8    1  0.2432279E-006  0.9118800E+02  0.7816164E-02  0.1184000E+00
        -11   -1    0    0    0    0  0.00000000000E+00  0.00000000000E+00  0.45593999997E+02  0.45594000000E+02  0.51100000000E-03 0.  1.
         11   -1    0    0    0    0 -0.00000000000E+00 -0.00000000000E+00 -0.45593999997E+02  0.45594000000E+02  0.51100000000E-03 0. -1.
         23    2    1    2    0    0  0.00000000000E+00  0.00000000000E+00  0.88817841970E-15  0.91188000000E+02  0.91188000000E+02 0.  0.
    9900012    2    3    3    0    0  0.64274211914E+01 -0.35653307860E+02  0.65810212812E+01  0.54367082771E+02  0.39999996793E+02 0.  0.
         12    1    3    3    0    0 -0.64274211914E+01  0.35653307860E+02 -0.65810212812E+01  0.36820917229E+02  0.00000000000E+00 0. -1.
         11    1    4    4    0    0  0.14734292097E+01 -0.24524204446E+02 -0.14922005495E+01  0.24613700658E+02  0.51100000000E-03 0. -1.
        -11    1    4    4    0    0  0.38822272888E+01 -0.18727657432E+02  0.74156393641E+00  0.19140187014E+02  0.51100000000E-03 0.  1.
        -12    1    4    4    0    0  0.10717646929E+01  0.75985540181E+01  0.73316578943E+01  0.10613195099E+02  0.00000000000E+00 0.  1.
</event>
<event>
 8    1  0.2432279E-006  0.9118800E+02  0.7816164E-02  0.1184000E+00
        -11   -1    0    0    0    0  0.00000000000E+00  0.00000000000E+00  0.45593999997E+02  0.45594000000E+02  0.51100000000E-03 0.  1.
         11   -1    0    0    0    0 -0.00000000000E+00 -0.00000000000E+00 -0.45593999997E+02  0.45594000000E+02  0.51100000000E-03 0. -1.
         23    2    1    2    0    0  0.17763568394E-14  0.35527136788E-14  0.00000000000E+00  0.91188000000E+02  0.91188000000E+02 0.  0.
    9900012    2    3    3    0    0  0.83746804184E+01 -0.25788097170E+02 -0.24912215503E+02  0.54367085983E+02  0.40000004115E+02 0.  0.
        -12    1    3    3    0    0 -0.83746804184E+01  0.25788097170E+02  0.24912215503E+02  0.36820914017E+02  0.00000000000E+00 0.  1.
         11    1    4    4    0    0  0.11518126243E+02 -0.34196943034E+02 -0.14486243046E+02  0.38883793319E+02  0.51100000000E-03 0.  1.
        -11    1    4    4    0    0  0.93415980044E+00  0.27784994429E+01 -0.72892526035E+01  0.78565843383E+01  0.51100000000E-03 0. -1.
        -12    1    4    4    0    0 -0.40776056246E+01  0.56303464207E+01 -0.31367198539E+01  0.76267083259E+01  0.00000000000E+00 0.  1.
</event>
<event>
 8    1  0.2432279E-006  0.9118800E+02  0.7816164E-02  0.1184000E+00
        -11   -1    0    0    0    0  0.00000000000E+00  0.00000000000E+00  0.45593999997E+02  0.45594000000E+02  0.51100000000E-03 0. -1.
         11   -1    0    0    0    0 -0.00000000000E+00 -0.00000000000E+00 -0.45593999997E+02  0.45594000000E+02  0.51100000000E-03 0.  1.
         23    2    1    2    0    0 -0.35527136788E-14  0.35527136788E-14  0.35527136788E-14  0.91188000000E+02  0.91188000000E+02 0.  0.
    9900012    2    3    3    0    0 -0.23279909053E+02 -0.16321767261E+02 -0.23397114003E+02  0.54367092954E+02  0.40000020007E+02 0.  0.
         12    1    3    3    0    0  0.23279909053E+02  0.16321767261E+02  0.23397114003E+02  0.36820907046E+02  0.00000000000E+00 0. -1.
         11    1    4    4    0    0 -0.58034711822E+01 -0.58950439476E+01 -0.68701831505E+01  0.10753196627E+02  0.51100000000E-03 0. -1.
        -11    1    4    4    0    0  0.45012543711E+01 -0.15892126205E+02 -0.12255814208E+02  0.20567594619E+02  0.51100000000E-03 0.  1.
         12    1    4    4    0    0 -0.21977692242E+02  0.54654028920E+01 -0.42711166440E+01  0.23046301709E+02  0.00000000000E+00 0. -1.
</event>
<event>
 8    1  0.2432279E-006  0.9118800E+02  0.7816164E-02  0.1184000E+00
        -11   -1    0    0    0    0  0.00000000000E+00  0.00000000000E+00  0.45593999997E+02  0.45594000000E+02  0.51100000000E-03 0.  1.
         11   -1    0    0    0    0 -0.00000000000E+00 -0.00000000000E+00 -0.45593999997E+02  0.45594000000E+02  0.51100000000E-03 0. -1.
         23    2    1    2    0    0  0.00000000000E+00  0.00000000000E+00  0.00000000000E+00  0.91188000000E+02  0.91188000000E+02 0.  0.
    9900012    2    3    3    0    0  0.96996583608E+01  0.32004772435E+02 -0.15407504647E+02  0.54367081619E+02  0.39999994168E+02 0.  0.
         12    1    3    3    0    0 -0.96996583608E+01 -0.32004772435E+02  0.15407504647E+02  0.36820918381E+02  0.00000000000E+00 0. -1.
         11    1    4    4    0    0 -0.24428039410E+01 -0.78792718777E+01 -0.82429729485E+01  0.11661767435E+02  0.51100000000E-03 0. -1.
        -11    1    4    4    0    0  0.41076464821E+01  0.21039302507E+02 -0.17054234803E+01  0.21504266533E+02  0.51100000000E-03 0.  1.
         12    1    4    4    0    0  0.80348158197E+01  0.18844741806E+02 -0.54591082181E+01  0.21201047652E+02  0.00000000000E+00 0. -1.
</event>
<event>
 8    1  0.2432279E-006  0.9118800E+02  0.7816164E-02  0.1184000E+00
        -11   -1    0    0    0    0  0.00000000000E+00  0.00000000000E+00  0.45593999997E+02  0.45594000000E+02  0.51100000000E-03 0.  1.
         11   -1    0    0    0    0 -0.00000000000E+00 -0.00000000000E+00 -0.45593999997E+02  0.45594000000E+02  0.51100000000E-03 0. -1.
         23    2    1    2    0    0  0.00000000000E+00 -0.35527136788E-14 -0.35527136788E-14  0.91188000000E+02  0.91188000000E+02 0.  0.
    9900012    2    3    3    0    0  0.17318712528E+02  0.13605870748E+02  0.29508010198E+02  0.54367079475E+02  0.39999989280E+02 0.  0.
         12    1    3    3    0    0 -0.17318712528E+02 -0.13605870748E+02 -0.29508010198E+02  0.36820920525E+02  0.00000000000E+00 0. -1.
         11    1    4    4    0    0  0.98615618665E+01  0.10780731835E+02 -0.30712167884E+01  0.14930068793E+02  0.51100000000E-03 0. -1.
        -11    1    4    4    0    0 -0.39274264479E+01 -0.60483091622E+01  0.69096194806E+01  0.99874703430E+01  0.51100000000E-03 0.  1.
        -12    1    4    4    0    0  0.11384577109E+02  0.88734480753E+01  0.25669607506E+02  0.29449540339E+02  0.00000000000E+00 0.  1.
</event>
<event>
 8    1  0.2432279E-006  0.9118800E+02  0.7816164E-02  0.1184000E+00
        -11   -1    0    0    0    0  0.00000000000E+00  0.00000000000E+00  0.45593999997E+02  0.45594000000E+02  0.51100000000E-03 0.  1.
         11   -1    0    0    0    0 -0.00000000000E+00 -0.00000000000E+00 -0.45593999997E+02  0.45594000000E+02  0.51100000000E-03 0. -1.
         23    2    1    2    0    0 -0.44408920985E-15  0.00000000000E+00 -0.17763568394E-14  0.91188000000E+02  0.91188000000E+02 0.  0.
    9900012    2    3    3    0    0 -0.34069875978E+01  0.34903855859E+02  0.11220732286E+02  0.54366925174E+02  0.39999637516E+02 0.  0.
        -12    1    3    3    0    0  0.34069875978E+01 -0.34903855859E+02 -0.11220732286E+02  0.36821074826E+02  0.00000000000E+00 0.  1.
         11    1    4    4    0    0 -0.44025245268E+01  0.11459549052E+02 -0.39593759390E+01  0.12898842768E+02  0.51100000000E-03 0. -1.
        -11    1    4    4    0    0 -0.11208381406E+02  0.20942133584E+02  0.28211597946E+01  0.23919860276E+02  0.51100000000E-03 0.  1.
        -12    1    4    4    0    0  0.12203918335E+02  0.25021732240E+01  0.12358948430E+02  0.17548222129E+02  0.00000000000E+00 0.  1.
</event>
<event>
 8    1  0.2432279E-006  0.9118800E+02  0.7816164E-02  0.1184000E+00
        -11   -1    0    0    0    0  0.00000000000E+00  0.00000000000E+00  0.45593999997E+02  0.45594000000E+02  0.51100000000E-03 0. -1.
         11   -1    0    0    0    0 -0.00000000000E+00 -0.00000000000E+00 -0.45593999997E+02  0.45594000000E+02  0.51100000000E-03 0.  1.
         23    2    1    2    0    0  0.00000000000E+00  0.00000000000E+00  0.00000000000E+00  0.91188000000E+02  0.91188000000E+02 0.  0.
    9900012    2    3    3    0    0 -0.58976161183E+01 -0.33360823592E+02 -0.14424019365E+02  0.54367098853E+02  0.40000033456E+02 0.  0.
         12    1    3    3    0    0  0.58976161183E+01  0.33360823592E+02  0.14424019365E+02  0.36820901147E+02  0.00000000000E+00 0. -1.
         11    1    4    4    0    0 -0.11552935098E+02 -0.32327466032E+02 -0.65970902092E+01  0.34957931417E+02  0.51100000000E-03 0. -1.
        -11    1    4    4    0    0 -0.17835415068E+01  0.56208587687E+01 -0.73415110088E+01  0.94166266655E+01  0.51100000000E-03 0.  1.
         12    1    4    4    0    0  0.74388604864E+01 -0.66542163287E+01 -0.48541814657E+00  0.99925407711E+01  0.00000000000E+00 0. -1.
</event>
<event>
 8    1  0.2432279E-006  0.9118800E+02  0.7816164E-02  0.1184000E+00
        -11   -1    0    0    0    0  0.00000000000E+00  0.00000000000E+00  0.45593999997E+02  0.45594000000E+02  0.51100000000E-03 0. -1.
         11   -1    0    0    0    0 -0.00000000000E+00 -0.00000000000E+00 -0.45593999997E+02  0.45594000000E+02  0.51100000000E-03 0.  1.
         23    2    1    2    0    0  0.00000000000E+00 -0.35527136788E-14  0.17763568394E-14  0.91188000000E+02  0.91188000000E+02 0.  0.
    9900012    2    3    3    0    0 -0.18770174879E+02  0.27547975073E+02 -0.15638774896E+02  0.54367059275E+02  0.39999943230E+02 0.  0.
        -12    1    3    3    0    0  0.18770174879E+02 -0.27547975073E+02  0.15638774896E+02  0.36820940725E+02  0.00000000000E+00 0.  1.
         11    1    4    4    0    0 -0.68624039337E+01  0.19745879719E+01  0.40047601994E+01  0.81871661718E+01  0.51100000000E-03 0. -1.
        -11    1    4    4    0    0 -0.14644390646E+02  0.30996117983E+02 -0.11791504332E+02  0.36252683792E+02  0.51100000000E-03 0.  1.
         12    1    4    4    0    0  0.27366197016E+01 -0.54227308820E+01 -0.78520307634E+01  0.99272093117E+01  0.00000000000E+00 0. -1.
</event>
<event>
 8    1  0.2432279E-006  0.9118800E+02  0.7816164E-02  0.1184000E+00
        -11   -1    0    0    0    0  0.00000000000E+00  0.00000000000E+00  0.45593999997E+02  0.45594000000E+02  0.51100000000E-03 0.  1.
         11   -1    0    0    0    0 -0.00000000000E+00 -0.00000000000E+00 -0.45593999997E+02  0.45594000000E+02  0.51100000000E-03 0. -1.
         23    2    1    2    0    0  0.00000000000E+00 -0.44408920985E-15  0.00000000000E+00  0.91188000000E+02  0.91188000000E+02 0.  0.
    9900012    2    3    3    0    0  0.36049766927E+02 -0.39993626252E+01  0.63403454857E+01  0.54367074186E+02  0.39999977222E+02 0.  0.
         12    1    3    3    0    0 -0.36049766927E+02  0.39993626252E+01 -0.63403454857E+01  0.36820925814E+02  0.00000000000E+00 0. -1.
         11    1    4    4    0    0  0.21271407290E+02 -0.17465620308E+02 -0.77221200242E+00  0.27533924029E+02  0.51100000000E-03 0. -1.
        -11    1    4    4    0    0  0.49871871529E+01  0.11792248656E+02  0.10266428233E+02  0.16411237399E+02  0.51100000000E-03 0.  1.
        -12    1    4    4    0    0  0.97911724846E+01  0.16740090269E+01 -0.31538707448E+01  0.10421912757E+02  0.00000000000E+00 0.  1.
</event>
<event>
 8    1  0.2432279E-006  0.9118800E+02  0.7816164E-02  0.1184000E+00
        -11   -1    0    0    0    0  0.00000000000E+00  0.00000000000E+00  0.45593999997E+02  0.45594000000E+02  0.51100000000E-03 0. -1.
         11   -1    0    0    0    0 -0.00000000000E+00 -0.00000000000E+00 -0.45593999997E+02  0.45594000000E+02  0.51100000000E-03 0.  1.
         23    2    1    2    0    0  0.71054273576E-14  0.71054273576E-14 -0.17763568394E-14  0.91188000000E+02  0.91188000000E+02 0.  0.
    9900012    2    3    3    0    0 -0.25554530635E+02 -0.26112523443E+02  0.45697380797E+01  0.54367076293E+02  0.39999982026E+02 0.  0.
         12    1    3    3    0    0  0.25554530635E+02  0.26112523443E+02 -0.45697380797E+01  0.36820923707E+02  0.00000000000E+00 0. -1.
         11    1    4    4    0    0 -0.12697054493E+02 -0.44477151715E+01 -0.55187317299E+01  0.14541449831E+02  0.51100000000E-03 0. -1.
        -11    1    4    4    0    0 -0.10614677774E+02 -0.89268857855E+01 -0.91702080475E+01  0.16626887561E+02  0.51100000000E-03 0.  1.
        -12    1    4    4    0    0 -0.22427983678E+01 -0.12737922486E+02  0.19258677857E+02  0.23198738900E+02  0.00000000000E+00 0.  1.
</event>
<event>
 8    1  0.2432279E-006  0.9118800E+02  0.7816164E-02  0.1184000E+00
        -11   -1    0    0    0    0  0.00000000000E+00  0.00000000000E+00  0.45593999997E+02  0.45594000000E+02  0.51100000000E-03 0. -1.
         11   -1    0    0    0    0 -0.00000000000E+00 -0.00000000000E+00 -0.45593999997E+02  0.45594000000E+02  0.51100000000E-03 0.  1.
         23    2    1    2    0    0 -0.88817841970E-15 -0.10658141036E-13  0.35527136788E-14  0.91188000000E+02  0.91188000000E+02 0.  0.
    9900012    2    3    3    0    0  0.50333202692E+01 -0.27978858361E+02  0.23401472077E+02  0.54367085787E+02  0.40000003668E+02 0.  0.
        -12    1    3    3    0    0 -0.50333202692E+01  0.27978858361E+02 -0.23401472077E+02  0.36820914213E+02  0.00000000000E+00 0.  1.
         11    1    4    4    0    0 -0.45143412389E+01 -0.25008861573E+02  0.10418499244E+02  0.27465752507E+02  0.51100000000E-03 0. -1.
        -11    1    4    4    0    0  0.13458828752E+01  0.89625673515E+01  0.44811655535E+01  0.10110383733E+02  0.51100000000E-03 0.  1.
        -12    1    4    4    0    0  0.82017786329E+01 -0.11932564139E+02  0.85018072795E+01  0.16790949547E+02  0.00000000000E+00 0.  1.
</event>
<event>
 8    1  0.2432279E-006  0.9118800E+02  0.7816164E-02  0.1184000E+00
        -11   -1    0    0    0    0  0.00000000000E+00  0.00000000000E+00  0.45593999997E+02  0.45594000000E+02  0.51100000000E-03 0.  1.
         11   -1    0    0    0    0 -0.00000000000E+00 -0.00000000000E+00 -0.45593999997E+02  0.45594000000E+02  0.51100000000E-03 0. -1.
         23    2    1    2    0    0  0.00000000000E+00 -0.71054273576E-14 -0.22204460493E-15  0.91188000000E+02  0.91188000000E+02 0.  0.
    9900012    2    3    3    0    0  0.40379699526E+01  0.36597692112E+02 -0.28857323181E+00  0.54367088227E+02  0.40000009232E+02 0.  0.
        -12    1    3    3    0    0 -0.40379699526E+01 -0.36597692112E+02  0.28857323181E+00  0.36820911773E+02  0.00000000000E+00 0.  1.
         11    1    4    4    0    0  0.32411658785E+01  0.21104590739E+02  0.93772139604E+01  0.23320399834E+02  0.51100000000E-03 0. -1.
        -11    1    4    4    0    0  0.34228367247E+01  0.59728964341E+01  0.81551493414E+01  0.10672289543E+02  0.51100000000E-03 0.  1.
         12    1    4    4    0    0 -0.26260326506E+01  0.95202049392E+01 -0.17820936534E+02  0.20374398850E+02  0.00000000000E+00 0. -1.
</event>
<event>
 8    1  0.2432279E-006  0.9118800E+02  0.7816164E-02  0.1184000E+00
        -11   -1    0    0    0    0  0.00000000000E+00  0.00000000000E+00  0.45593999997E+02  0.45594000000E+02  0.51100000000E-03 0. -1.
         11   -1    0    0    0    0 -0.00000000000E+00 -0.00000000000E+00 -0.45593999997E+02  0.45594000000E+02  0.51100000000E-03 0.  1.
         23    2    1    2    0    0  0.00000000000E+00  0.00000000000E+00  0.17763568394E-14  0.91188000000E+02  0.91188000000E+02 0.  0.
    9900012    2    3    3    0    0 -0.23027030605E+02  0.25857211279E+02  0.12527417695E+02  0.54367140318E+02  0.40000127982E+02 0.  0.
        -12    1    3    3    0    0  0.23027030605E+02 -0.25857211279E+02 -0.12527417695E+02  0.36820859682E+02  0.00000000000E+00 0.  1.
         11    1    4    4    0    0 -0.70394437474E+00 -0.18527117522E+01  0.33550652056E+01  0.38967346990E+01  0.51100000000E-03 0. -1.
        -11    1    4    4    0    0  0.90980068030E+01  0.45235423940E+01 -0.72319629080E+00  0.10186224851E+02  0.51100000000E-03 0.  1.
         12    1    4    4    0    0 -0.31421093033E+02  0.23186380638E+02  0.98955487805E+01  0.40284180768E+02  0.00000000000E+00 0. -1.
</event>
<event>
 8    1  0.2432279E-006  0.9118800E+02  0.7816164E-02  0.1184000E+00
        -11   -1    0    0    0    0  0.00000000000E+00  0.00000000000E+00  0.45593999997E+02  0.45594000000E+02  0.51100000000E-03 0.  1.
         11   -1    0    0    0    0 -0.00000000000E+00 -0.00000000000E+00 -0.45593999997E+02  0.45594000000E+02  0.51100000000E-03 0. -1.
         23    2    1    2    0    0  0.00000000000E+00  0.00000000000E+00  0.00000000000E+00  0.91188000000E+02  0.91188000000E+02 0.  0.
    9900012    2    3    3    0    0  0.65882987085E+01  0.16172411590E+02  0.32416438513E+02  0.54367108344E+02  0.40000055091E+02 0.  0.
         12    1    3    3    0    0 -0.65882987085E+01 -0.16172411590E+02 -0.32416438513E+02  0.36820891656E+02  0.00000000000E+00 0. -1.
         11    1    4    4    0    0  0.10623752328E+02  0.11585003707E+02  0.21845432377E+02  0.26912809969E+02  0.51100000000E-03 0. -1.
        -11    1    4    4    0    0 -0.10377350937E+02  0.39801345647E+01  0.15727298819E+02  0.19258214144E+02  0.51100000000E-03 0.  1.
         12    1    4    4    0    0  0.63418973184E+01  0.60727331811E+00 -0.51562926833E+01  0.81960842306E+01  0.00000000000E+00 0. -1.
</event>
<event>
 8    1  0.2432279E-006  0.9118800E+02  0.7816164E-02  0.1184000E+00
        -11   -1    0    0    0    0  0.00000000000E+00  0.00000000000E+00  0.45593999997E+02  0.45594000000E+02  0.51100000000E-03 0.  1.
         11   -1    0    0    0    0 -0.00000000000E+00 -0.00000000000E+00 -0.45593999997E+02  0.45594000000E+02  0.51100000000E-03 0. -1.
         23    2    1    2    0    0  0.00000000000E+00  0.13322676296E-14  0.17763568394E-14  0.91188000000E+02  0.91188000000E+02 0.  0.
    9900012    2    3    3    0    0  0.33418596888E+02 -0.17656337335E+01  0.15357726734E+02  0.54367084057E+02  0.39999999724E+02 0.  0.
         12    1    3    3    0    0 -0.33418596888E+02  0.17656337335E+01 -0.15357726734E+02  0.36820915943E+02  0.00000000000E+00 0. -1.
         11    1    4    4    0    0  0.18813343324E+02 -0.85245165661E+01 -0.90942562040E+01  0.22568003144E+02  0.51100000000E-03 0. -1.
        -11    1    4    4    0    0  0.90242047295E+01  0.10052741631E+02  0.13666086904E+02  0.19216030205E+02  0.51100000000E-03 0.  1.
        -12    1    4    4    0    0  0.55810488344E+01 -0.32938587985E+01  0.10785896034E+02  0.12583050709E+02  0.00000000000E+00 0.  1.
</event>
<event>
 8    1  0.2432279E-006  0.9118800E+02  0.7816164E-02  0.1184000E+00
        -11   -1    0    0    0    0  0.00000000000E+00  0.00000000000E+00  0.45593999997E+02  0.45594000000E+02  0.51100000000E-03 0. -1.
         11   -1    0    0    0    0 -0.00000000000E+00 -0.00000000000E+00 -0.45593999997E+02  0.45594000000E+02  0.51100000000E-03 0.  1.
         23    2    1    2    0    0  0.00000000000E+00  0.00000000000E+00  0.00000000000E+00  0.91188000000E+02  0.91188000000E+02 0.  0.
    9900012    2    3    3    0    0  0.28053625217E+02  0.13503421916E+02  0.19657929900E+02  0.54367048095E+02  0.39999917742E+02 0.  0.
        -12    1    3    3    0    0 -0.28053625217E+02 -0.13503421916E+02 -0.19657929900E+02  0.36820951905E+02  0.00000000000E+00 0.  1.
         11    1    4    4    0    0  0.10339028413E+02 -0.52091436690E+01 -0.13348993352E+01  0.11653868147E+02  0.51100000000E-03 0. -1.
        -11    1    4    4    0    0  0.22884010565E+02  0.11080217019E+02  0.77545614579E+01  0.26581617190E+02  0.51100000000E-03 0.  1.
        -12    1    4    4    0    0 -0.51694137619E+01  0.76323485663E+01  0.13238267777E+02  0.16131562758E+02  0.00000000000E+00 0.  1.
</event>
<event>
 8    1  0.2432279E-006  0.9118800E+02  0.7816164E-02  0.1184000E+00
        -11   -1    0    0    0    0  0.00000000000E+00  0.00000000000E+00  0.45593999997E+02  0.45594000000E+02  0.51100000000E-03 0.  1.
         11   -1    0    0    0    0 -0.00000000000E+00 -0.00000000000E+00 -0.45593999997E+02  0.45594000000E+02  0.51100000000E-03 0. -1.
         23    2    1    2    0    0  0.00000000000E+00  0.00000000000E+00  0.00000000000E+00  0.91188000000E+02  0.91188000000E+02 0.  0.
    9900012    2    3    3    0    0 -0.21311574059E+02  0.13557876902E+02  0.26791440131E+02  0.54367075524E+02  0.39999980272E+02 0.  0.
         12    1    3    3    0    0  0.21311574059E+02 -0.13557876902E+02 -0.26791440131E+02  0.36820924476E+02  0.00000000000E+00 0. -1.
         11    1    4    4    0    0 -0.86097834560E+01 -0.69496098073E+01  0.46376829379E+01  0.11997230969E+02  0.51100000000E-03 0. -1.
        -11    1    4    4    0    0 -0.11888855007E+02  0.44694606310E+01  0.23016139833E+02  0.26288089409E+02  0.51100000000E-03 0.  1.
         12    1    4    4    0    0 -0.81293559655E+00  0.16038026078E+02 -0.86238263932E+00  0.16081755146E+02  0.00000000000E+00 0. -1.
</event>
<event>
 8    1  0.2432279E-006  0.9118800E+02  0.7816164E-02  0.1184000E+00
        -11   -1    0    0    0    0  0.00000000000E+00  0.00000000000E+00  0.45593999997E+02  0.45594000000E+02  0.51100000000E-03 0.  1.
         11   -1    0    0    0    0 -0.00000000000E+00 -0.00000000000E+00 -0.45593999997E+02  0.45594000000E+02  0.51100000000E-03 0. -1.
         23    2    1    2    0    0  0.00000000000E+00  0.00000000000E+00 -0.71054273576E-14  0.91188000000E+02  0.91188000000E+02 0.  0.
    9900012    2    3    3    0    0 -0.94432201793E+01 -0.31089679886E+02  0.17321579388E+02  0.54367085898E+02  0.40000003922E+02 0.  0.
         12    1    3    3    0    0  0.94432201793E+01  0.31089679886E+02 -0.17321579388E+02  0.36820914102E+02  0.00000000000E+00 0. -1.
         11    1    4    4    0    0  0.39404923837E+01 -0.17648789422E+01  0.61511718657E+01  0.75152640332E+01  0.51100000000E-03 0. -1.
        -11    1    4    4    0    0  0.38375450650E+00 -0.20969308348E+02 -0.74284215061E+01  0.22249508005E+02  0.51100000000E-03 0.  1.
        -12    1    4    4    0    0 -0.13767467070E+02 -0.83554925960E+01  0.18598829029E+02  0.24602313860E+02  0.00000000000E+00 0.  1.
</event>
<event>
 8    1  0.2432279E-006  0.9118800E+02  0.7816164E-02  0.1184000E+00
        -11   -1    0    0    0    0  0.00000000000E+00  0.00000000000E+00  0.45593999997E+02  0.45594000000E+02  0.51100000000E-03 0. -1.
         11   -1    0    0    0    0 -0.00000000000E+00 -0.00000000000E+00 -0.45593999997E+02  0.45594000000E+02  0.51100000000E-03 0.  1.
         23    2    1    2    0    0 -0.88817841970E-15  0.00000000000E+00 -0.17763568394E-14  0.91188000000E+02  0.91188000000E+02 0.  0.
    9900012    2    3    3    0    0  0.42556923446E+01 -0.35741970963E+02  0.77576408726E+01  0.54367076634E+02  0.39999982802E+02 0.  0.
        -12    1    3    3    0    0 -0.42556923446E+01  0.35741970963E+02 -0.77576408726E+01  0.36820923366E+02  0.00000000000E+00 0.  1.
         11    1    4    4    0    0  0.32769795116E+01 -0.57969776536E+01  0.54962520515E+01  0.86343692017E+01  0.51100000000E-03 0. -1.
        -11    1    4    4    0    0 -0.11600734149E+02  0.10816976035E+01 -0.24993117798E+01  0.11916109354E+02  0.51100000000E-03 0.  1.
        -12    1    4    4    0    0  0.12579446982E+02 -0.31026690913E+02  0.47607006009E+01  0.33816598078E+02  0.00000000000E+00 0.  1.
</event>
<event>
 8    1  0.2432279E-006  0.9118800E+02  0.7816164E-02  0.1184000E+00
        -11   -1    0    0    0    0  0.00000000000E+00  0.00000000000E+00  0.45593999997E+02  0.45594000000E+02  0.51100000000E-03 0. -1.
         11   -1    0    0    0    0 -0.00000000000E+00 -0.00000000000E+00 -0.45593999997E+02  0.45594000000E+02  0.51100000000E-03 0.  1.
         23    2    1    2    0    0  0.35527136788E-14  0.17763568394E-14 -0.35527136788E-14  0.91188000000E+02  0.91188000000E+02 0.  0.
    9900012    2    3    3    0    0  0.19661299526E+02 -0.13192764178E+02 -0.28198658428E+02  0.54367081179E+02  0.39999993164E+02 0.  0.
         12    1    3    3    0    0 -0.19661299526E+02  0.13192764178E+02  0.28198658428E+02  0.36820918821E+02  0.00000000000E+00 0. -1.
         11    1    4    4    0    0  0.25442232779E+02 -0.17117658714E+02 -0.28846944023E+02  0.42100684417E+02  0.51100000000E-03 0. -1.
        -11    1    4    4    0    0 -0.21151944591E+01 -0.20249853041E+01 -0.31595767985E+01  0.43078462007E+01  0.51100000000E-03 0.  1.
        -12    1    4    4    0    0 -0.36657387941E+01  0.59498798407E+01  0.38078623940E+01  0.79585505614E+01  0.00000000000E+00 0.  1.
</event>
<event>
 8    1  0.2432279E-006  0.9118800E+02  0.7816164E-02  0.1184000E+00
        -11   -1    0    0    0    0  0.00000000000E+00  0.00000000000E+00  0.45593999997E+02  0.45594000000E+02  0.51100000000E-03 0. -1.
         11   -1    0    0    0    0 -0.00000000000E+00 -0.00000000000E+00 -0.45593999997E+02  0.45594000000E+02  0.51100000000E-03 0.  1.
         23    2    1    2    0    0 -0.71054273576E-14  0.00000000000E+00 -0.88817841970E-15  0.91188000000E+02  0.91188000000E+02 0.  0.
    9900012    2    3    3    0    0  0.36377224194E+02  0.54976718753E+01 -0.15010495811E+01  0.54367082223E+02  0.39999995543E+02 0.  0.
        -12    1    3    3    0    0 -0.36377224194E+02 -0.54976718753E+01  0.15010495811E+01  0.36820917777E+02  0.00000000000E+00 0.  1.
         11    1    4    4    0    0 -0.74627042901E+00  0.51362927319E+01 -0.65898468030E+01  0.83883552457E+01  0.51100000000E-03 0. -1.
        -11    1    4    4    0    0  0.98447670291E+01  0.10855459201E+02 -0.43129016311E+01  0.15276175996E+02  0.51100000000E-03 0.  1.
         12    1    4    4    0    0  0.27278727594E+02 -0.10494080058E+02  0.94016988529E+01  0.30702550981E+02  0.00000000000E+00 0. -1.
</event>
<event>
 8    1  0.2432279E-006  0.9118800E+02  0.7816164E-02  0.1184000E+00
        -11   -1    0    0    0    0  0.00000000000E+00  0.00000000000E+00  0.45593999997E+02  0.45594000000E+02  0.51100000000E-03 0.  1.
         11   -1    0    0    0    0 -0.00000000000E+00 -0.00000000000E+00 -0.45593999997E+02  0.45594000000E+02  0.51100000000E-03 0. -1.
         23    2    1    2    0    0 -0.17763568394E-14  0.00000000000E+00  0.71054273576E-14  0.91188000000E+02  0.91188000000E+02 0.  0.
    9900012    2    3    3    0    0  0.14636675792E+02 -0.48051322598E+01  0.33443343177E+02  0.54367098637E+02  0.40000032964E+02 0.  0.
         12    1    3    3    0    0 -0.14636675792E+02  0.48051322598E+01 -0.33443343177E+02  0.36820901363E+02  0.00000000000E+00 0. -1.
         11    1    4    4    0    0 -0.42846319471E+01  0.80667499957E+00 -0.54295736733E+01  0.69634090797E+01  0.51100000000E-03 0. -1.
        -11    1    4    4    0    0  0.49637768494E+01 -0.97728500695E+01  0.90503875448E+01  0.14214682341E+02  0.51100000000E-03 0.  1.
         12    1    4    4    0    0  0.13957530890E+02  0.41610428101E+01  0.29822529306E+02  0.33189007216E+02  0.00000000000E+00 0. -1.
</event>
<event>
 8    1  0.2432279E-006  0.9118800E+02  0.7816164E-02  0.1184000E+00
        -11   -1    0    0    0    0  0.00000000000E+00  0.00000000000E+00  0.45593999997E+02  0.45594000000E+02  0.51100000000E-03 0. -1.
         11   -1    0    0    0    0 -0.00000000000E+00 -0.00000000000E+00 -0.45593999997E+02  0.45594000000E+02  0.51100000000E-03 0.  1.
         23    2    1    2    0    0  0.17763568394E-14  0.71054273576E-14  0.17763568394E-14  0.91188000000E+02  0.91188000000E+02 0.  0.
    9900012    2    3    3    0    0 -0.15772765351E+02 -0.32288654614E+02 -0.80276142471E+01  0.54367082927E+02  0.39999997149E+02 0.  0.
         12    1    3    3    0    0  0.15772765351E+02  0.32288654614E+02  0.80276142471E+01  0.36820917073E+02  0.00000000000E+00 0. -1.
         11    1    4    4    0    0  0.15245454752E+01  0.19955753966E+01  0.80532616535E+00  0.26372543607E+01  0.51100000000E-03 0. -1.
        -11    1    4    4    0    0 -0.22866180531E+02 -0.25432407785E+02  0.48129867602E+01  0.34537435047E+02  0.51100000000E-03 0.  1.
         12    1    4    4    0    0  0.55688697052E+01 -0.88518222256E+01 -0.13645927173E+02  0.17192393519E+02  0.00000000000E+00 0. -1.
</event>
<event>
 8    1  0.2432279E-006  0.9118800E+02  0.7816164E-02  0.1184000E+00
        -11   -1    0    0    0    0  0.00000000000E+00  0.00000000000E+00  0.45593999997E+02  0.45594000000E+02  0.51100000000E-03 0.  1.
         11   -1    0    0    0    0 -0.00000000000E+00 -0.00000000000E+00 -0.45593999997E+02  0.45594000000E+02  0.51100000000E-03 0. -1.
         23    2    1    2    0    0  0.00000000000E+00 -0.35527136788E-14  0.00000000000E+00  0.91188000000E+02  0.91188000000E+02 0.  0.
    9900012    2    3    3    0    0 -0.22902705588E+02 -0.27013184464E+02 -0.10076363019E+02  0.54367093577E+02  0.40000021427E+02 0.  0.
         12    1    3    3    0    0  0.22902705588E+02  0.27013184464E+02  0.10076363019E+02  0.36820906423E+02  0.00000000000E+00 0. -1.
         11    1    4    4    0    0  0.25050806725E-01  0.25819845549E+01 -0.11913057405E+01  0.28436739288E+01  0.51100000000E-03 0. -1.
        -11    1    4    4    0    0 -0.28131176763E+02 -0.15061984926E+02  0.29874389518E+01  0.32049201047E+02  0.51100000000E-03 0.  1.
        -12    1    4    4    0    0  0.52034203684E+01 -0.14533184092E+02 -0.11872496230E+02  0.19474218601E+02  0.00000000000E+00 0.  1.
</event>
<event>
 8    1  0.2432279E-006  0.9118800E+02  0.7816164E-02  0.1184000E+00
        -11   -1    0    0    0    0  0.00000000000E+00  0.00000000000E+00  0.45593999997E+02  0.45594000000E+02  0.51100000000E-03 0. -1.
         11   -1    0    0    0    0 -0.00000000000E+00 -0.00000000000E+00 -0.45593999997E+02  0.45594000000E+02  0.51100000000E-03 0.  1.
         23    2    1    2    0    0  0.00000000000E+00  0.00000000000E+00 -0.22204460493E-14  0.91188000000E+02  0.91188000000E+02 0.  0.
    9900012    2    3    3    0    0  0.35129084725E+02 -0.10970001191E+02  0.11769784356E+01  0.54367098355E+02  0.40000032319E+02 0.  0.
        -12    1    3    3    0    0 -0.35129084725E+02  0.10970001191E+02 -0.11769784356E+01  0.36820901645E+02  0.00000000000E+00 0.  1.
         11    1    4    4    0    0  0.18650882126E+02  0.65308772470E+00 -0.66740563451E+01  0.19819812209E+02  0.51100000000E-03 0. -1.
        -11    1    4    4    0    0  0.12858498982E+02 -0.18477511476E+01 -0.82337181119E+01  0.15380159121E+02  0.51100000000E-03 0.  1.
         12    1    4    4    0    0  0.36197036169E+01 -0.97753377684E+01  0.16084752893E+02  0.19167127025E+02  0.00000000000E+00 0. -1.
</event>
<event>
 8    1  0.2432279E-006  0.9118800E+02  0.7816164E-02  0.1184000E+00
        -11   -1    0    0    0    0  0.00000000000E+00  0.00000000000E+00  0.45593999997E+02  0.45594000000E+02  0.51100000000E-03 0.  1.
         11   -1    0    0    0    0 -0.00000000000E+00 -0.00000000000E+00 -0.45593999997E+02  0.45594000000E+02  0.51100000000E-03 0. -1.
         23    2    1    2    0    0 -0.17763568394E-14 -0.35527136788E-14  0.35527136788E-14  0.91188000000E+02  0.91188000000E+02 0.  0.
    9900012    2    3    3    0    0 -0.82700589598E+01  0.24784628191E+02 -0.25944337631E+02  0.54367077620E+02  0.39999985051E+02 0.  0.
         12    1    3    3    0    0  0.82700589598E+01 -0.24784628191E+02  0.25944337631E+02  0.36820922380E+02  0.00000000000E+00 0. -1.
         11    1    4    4    0    0 -0.45659711776E+01  0.17802330371E+02 -0.14454484513E+02  0.23381684760E+02  0.51100000000E-03 0. -1.
        -11    1    4    4    0    0 -0.15787025893E+02  0.37232893012E+01 -0.56591324104E+01  0.17179023537E+02  0.51100000000E-03 0.  1.
        -12    1    4    4    0    0  0.12082938111E+02  0.32590085184E+01 -0.58307207083E+01  0.13806369323E+02  0.00000000000E+00 0.  1.
</event>
<event>
 8    1  0.2432279E-006  0.9118800E+02  0.7816164E-02  0.1184000E+00
        -11   -1    0    0    0    0  0.00000000000E+00  0.00000000000E+00  0.45593999997E+02  0.45594000000E+02  0.51100000000E-03 0. -1.
         11   -1    0    0    0    0 -0.00000000000E+00 -0.00000000000E+00 -0.45593999997E+02  0.45594000000E+02  0.51100000000E-03 0.  1.
         23    2    1    2    0    0  0.00000000000E+00  0.00000000000E+00  0.00000000000E+00  0.91188000000E+02  0.91188000000E+02 0.  0.
    9900012    2    3    3    0    0  0.22178870476E+01  0.33966590874E+02  0.14040354729E+02  0.54367083669E+02  0.39999998841E+02 0.  0.
        -12    1    3    3    0    0 -0.22178870476E+01 -0.33966590874E+02 -0.14040354729E+02  0.36820916331E+02  0.00000000000E+00 0.  1.
         11    1    4    4    0    0  0.51486928255E+01 -0.41247337269E+01  0.12989788176E+02  0.14569044693E+02  0.51100000000E-03 0. -1.
        -11    1    4    4    0    0  0.33566995960E+01  0.22224256093E+02  0.27603976939E+01  0.22645193458E+02  0.51100000000E-03 0.  1.
         12    1    4    4    0    0 -0.62875053739E+01  0.15867068508E+02 -0.17098311415E+01  0.17152845518E+02  0.00000000000E+00 0. -1.
</event>
<event>
 8    1  0.2432279E-006  0.9118800E+02  0.7816164E-02  0.1184000E+00
        -11   -1    0    0    0    0  0.00000000000E+00  0.00000000000E+00  0.45593999997E+02  0.45594000000E+02  0.51100000000E-03 0.  1.
         11   -1    0    0    0    0 -0.00000000000E+00 -0.00000000000E+00 -0.45593999997E+02  0.45594000000E+02  0.51100000000E-03 0. -1.
         23    2    1    2    0    0 -0.35527136788E-14 -0.35527136788E-14  0.00000000000E+00  0.91188000000E+02  0.91188000000E+02 0.  0.
    9900012    2    3    3    0    0  0.17202400546E+02  0.99638471216E+01  0.30993162417E+02  0.54367123440E+02  0.40000089506E+02 0.  0.
         12    1    3    3    0    0 -0.17202400546E+02 -0.99638471216E+01 -0.30993162417E+02  0.36820876560E+02  0.00000000000E+00 0. -1.
         11    1    4    4    0    0  0.19977460002E+02  0.14247616040E+02  0.20505014839E+02  0.31977321726E+02  0.51100000000E-03 0. -1.
        -11    1    4    4    0    0  0.59981455035E+01 -0.81542311409E+01  0.44470548420E+01  0.11056470142E+02  0.51100000000E-03 0.  1.
        -12    1    4    4    0    0 -0.87732049589E+01  0.38704622223E+01  0.60410927363E+01  0.11333331572E+02  0.00000000000E+00 0.  1.
</event>
<event>
 8    1  0.2432279E-006  0.9118800E+02  0.7816164E-02  0.1184000E+00
        -11   -1    0    0    0    0  0.00000000000E+00  0.00000000000E+00  0.45593999997E+02  0.45594000000E+02  0.51100000000E-03 0.  1.
         11   -1    0    0    0    0 -0.00000000000E+00 -0.00000000000E+00 -0.45593999997E+02  0.45594000000E+02  0.51100000000E-03 0. -1.
         23    2    1    2    0    0  0.35527136788E-14 -0.35527136788E-14 -0.35527136788E-14  0.91188000000E+02  0.91188000000E+02 0.  0.
    9900012    2    3    3    0    0 -0.18754761896E+02  0.20200730812E+02  0.24412482547E+02  0.54367083075E+02  0.39999997486E+02 0.  0.
         12    1    3    3    0    0  0.18754761896E+02 -0.20200730812E+02 -0.24412482547E+02  0.36820916925E+02  0.00000000000E+00 0. -1.
         11    1    4    4    0    0 -0.30022580979E+01  0.12946495332E+02  0.21093459122E+00  0.13291718803E+02  0.51100000000E-03 0. -1.
        -11    1    4    4    0    0 -0.23019667994E+02  0.28893843815E+01  0.22714891642E+02  0.32468753583E+02  0.51100000000E-03 0.  1.
         12    1    4    4    0    0  0.72671641961E+01  0.43648510989E+01  0.14866563130E+01  0.86066106896E+01  0.00000000000E+00 0. -1.
</event>
<event>
 8    1  0.2432279E-006  0.9118800E+02  0.7816164E-02  0.1184000E+00
        -11   -1    0    0    0    0  0.00000000000E+00  0.00000000000E+00  0.45593999997E+02  0.45594000000E+02  0.51100000000E-03 0.  1.
         11   -1    0    0    0    0 -0.00000000000E+00 -0.00000000000E+00 -0.45593999997E+02  0.45594000000E+02  0.51100000000E-03 0. -1.
         23    2    1    2    0    0  0.00000000000E+00  0.00000000000E+00  0.35527136788E-14  0.91188000000E+02  0.91188000000E+02 0.  0.
    9900012    2    3    3    0    0 -0.30957367765E+02 -0.65011824407E+01 -0.18845693403E+02  0.54367025653E+02  0.39999866580E+02 0.  0.
        -12    1    3    3    0    0  0.30957367765E+02  0.65011824407E+01  0.18845693403E+02  0.36820974347E+02  0.00000000000E+00 0.  1.
         11    1    4    4    0    0 -0.35587394218E+02 -0.24383219177E+01 -0.26131472347E+01  0.35766416926E+02  0.51100000000E-03 0. -1.
        -11    1    4    4    0    0  0.10529715454E+01  0.19318226235E+00 -0.10713195990E+02  0.10766551771E+02  0.51100000000E-03 0.  1.
         12    1    4    4    0    0  0.35770549074E+01 -0.42560427853E+01 -0.55193501779E+01  0.78340569558E+01  0.00000000000E+00 0. -1.
</event>
<event>
 8    1  0.2432279E-006  0.9118800E+02  0.7816164E-02  0.1184000E+00
        -11   -1    0    0    0    0  0.00000000000E+00  0.00000000000E+00  0.45593999997E+02  0.45594000000E+02  0.51100000000E-03 0.  1.
         11   -1    0    0    0    0 -0.00000000000E+00 -0.00000000000E+00 -0.45593999997E+02  0.45594000000E+02  0.51100000000E-03 0. -1.
         23    2    1    2    0    0  0.00000000000E+00  0.00000000000E+00  0.88817841970E-15  0.91188000000E+02  0.91188000000E+02 0.  0.
    9900012    2    3    3    0    0  0.30621558515E+02  0.19681832149E+02 -0.55432454398E+01  0.54367055789E+02  0.39999935281E+02 0.  0.
        -12    1    3    3    0    0 -0.30621558515E+02 -0.19681832149E+02  0.55432454398E+01  0.36820944211E+02  0.00000000000E+00 0.  1.
         11    1    4    4    0    0  0.31179816012E+02  0.76604595061E+01 -0.74797602015E+01  0.32966807236E+02  0.51100000000E-03 0. -1.
        -11    1    4    4    0    0 -0.40390057761E+01 -0.25959235763E+01  0.39793713964E+01  0.62360070434E+01  0.51100000000E-03 0.  1.
         12    1    4    4    0    0  0.34807482795E+01  0.14617296219E+02 -0.20428566348E+01  0.15164241510E+02  0.00000000000E+00 0. -1.
</event>
<event>
 8    1  0.2432279E-006  0.9118800E+02  0.7816164E-02  0.1184000E+00
        -11   -1    0    0    0    0  0.00000000000E+00  0.00000000000E+00  0.45593999997E+02  0.45594000000E+02  0.51100000000E-03 0.  1.
         11   -1    0    0    0    0 -0.00000000000E+00 -0.00000000000E+00 -0.45593999997E+02  0.45594000000E+02  0.51100000000E-03 0. -1.
         23    2    1    2    0    0  0.35527136788E-14  0.00000000000E+00  0.00000000000E+00  0.91188000000E+02  0.91188000000E+02 0.  0.
    9900012    2    3    3    0    0  0.14705683621E+02 -0.27719710777E+02  0.19265022302E+02  0.54367074148E+02  0.39999977134E+02 0.  0.
         12    1    3    3    0    0 -0.14705683621E+02  0.27719710777E+02 -0.19265022302E+02  0.36820925852E+02  0.00000000000E+00 0. -1.
         11    1    4    4    0    0 -0.11213756164E+02 -0.18078920644E+02  0.49897970289E+01  0.21851630914E+02  0.51100000000E-03 0. -1.
        -11    1    4    4    0    0  0.17855364152E+02 -0.53100447427E+01  0.45821262424E+01  0.19183495129E+02  0.51100000000E-03 0.  1.
         12    1    4    4    0    0  0.80640756332E+01 -0.43307453902E+01  0.96930990307E+01  0.13331948105E+02  0.00000000000E+00 0. -1.
</event>
<event>
 8    1  0.2432279E-006  0.9118800E+02  0.7816164E-02  0.1184000E+00
        -11   -1    0    0    0    0  0.00000000000E+00  0.00000000000E+00  0.45593999997E+02  0.45594000000E+02  0.51100000000E-03 0.  1.
         11   -1    0    0    0    0 -0.00000000000E+00 -0.00000000000E+00 -0.45593999997E+02  0.45594000000E+02  0.51100000000E-03 0. -1.
         23    2    1    2    0    0  0.00000000000E+00  0.00000000000E+00  0.71054273576E-14  0.91188000000E+02  0.91188000000E+02 0.  0.
    9900012    2    3    3    0    0  0.13124029154E+02  0.24359838168E+02 -0.24292752430E+02  0.54367086412E+02  0.40000005094E+02 0.  0.
        -12    1    3    3    0    0 -0.13124029154E+02 -0.24359838168E+02  0.24292752430E+02  0.36820913588E+02  0.00000000000E+00 0.  1.
         11    1    4    4    0    0  0.25389959843E+01  0.11843415926E+02 -0.53078064226E+01  0.13224439901E+02  0.51100000000E-03 0. -1.
        -11    1    4    4    0    0  0.16833755660E+02  0.10840060163E+02  0.10892507583E+01  0.20051650841E+02  0.51100000000E-03 0.  1.
        -12    1    4    4    0    0 -0.62487224910E+01  0.16763620789E+01 -0.20074196766E+02  0.21090995671E+02  0.00000000000E+00 0.  1.
</event>
<event>
 8    1  0.2432279E-006  0.9118800E+02  0.7816164E-02  0.1184000E+00
        -11   -1    0    0    0    0  0.00000000000E+00  0.00000000000E+00  0.45593999997E+02  0.45594000000E+02  0.51100000000E-03 0.  1.
         11   -1    0    0    0    0 -0.00000000000E+00 -0.00000000000E+00 -0.45593999997E+02  0.45594000000E+02  0.51100000000E-03 0. -1.
         23    2    1    2    0    0  0.00000000000E+00  0.71054273576E-14 -0.88817841970E-15  0.91188000000E+02  0.91188000000E+02 0.  0.
    9900012    2    3    3    0    0 -0.16175411725E+02  0.32669599496E+02  0.51799734708E+01  0.54367098315E+02  0.40000032229E+02 0.  0.
        -12    1    3    3    0    0  0.16175411725E+02 -0.32669599496E+02 -0.51799734708E+01  0.36820901685E+02  0.00000000000E+00 0.  1.
         11    1    4    4    0    0  0.23952874492E+01 -0.27738020954E+01 -0.36966209756E+01  0.52054189963E+01  0.51100000000E-03 0. -1.
        -11    1    4    4    0    0 -0.15002079307E+02  0.37318569750E+02  0.14048746913E+02  0.42604052879E+02  0.51100000000E-03 0.  1.
        -12    1    4    4    0    0 -0.35686198678E+01 -0.18751681576E+01 -0.51721524665E+01  0.65576264393E+01  0.00000000000E+00 0.  1.
</event>
<event>
 8    1  0.2432279E-006  0.9118800E+02  0.7816164E-02  0.1184000E+00
        -11   -1    0    0    0    0  0.00000000000E+00  0.00000000000E+00  0.45593999997E+02  0.45594000000E+02  0.51100000000E-03 0.  1.
         11   -1    0    0    0    0 -0.00000000000E+00 -0.00000000000E+00 -0.45593999997E+02  0.45594000000E+02  0.51100000000E-03 0. -1.
         23    2    1    2    0    0 -0.19984014443E-14  0.35527136788E-14  0.00000000000E+00  0.91188000000E+02  0.91188000000E+02 0.  0.
    9900012    2    3    3    0    0  0.96927781915E+00  0.19853754805E+02  0.30994652749E+02  0.54367087757E+02  0.40000008160E+02 0.  0.
         12    1    3    3    0    0 -0.96927781915E+00 -0.19853754805E+02 -0.30994652749E+02  0.36820912243E+02  0.00000000000E+00 0. -1.
         11    1    4    4    0    0  0.82730825517E+01 -0.57682486646E+01  0.23129509398E+02  0.25232732567E+02  0.51100000000E-03 0. -1.
        -11    1    4    4    0    0 -0.58271816678E+01  0.75794004595E+01  0.50549316882E+01  0.10814605501E+02  0.51100000000E-03 0.  1.
         12    1    4    4    0    0 -0.14766230647E+01  0.18042603010E+02  0.28102116633E+01  0.18319749689E+02  0.00000000000E+00 0. -1.
</event>
<event>
 8    1  0.2432279E-006  0.9118800E+02  0.7816164E-02  0.1184000E+00
        -11   -1    0    0    0    0  0.00000000000E+00  0.00000000000E+00  0.45593999997E+02  0.45594000000E+02  0.51100000000E-03 0.  1.
         11   -1    0    0    0    0 -0.00000000000E+00 -0.00000000000E+00 -0.45593999997E+02  0.45594000000E+02  0.51100000000E-03 0. -1.
         23    2    1    2    0    0  0.00000000000E+00 -0.71054273576E-14 -0.17763568394E-14  0.91188000000E+02  0.91188000000E+02 0.  0.
    9900012    2    3    3    0    0  0.67066801705E+01  0.32599259122E+02  0.15750843326E+02  0.54367077691E+02  0.39999985212E+02 0.  0.
         12    1    3    3    0    0 -0.67066801705E+01 -0.32599259122E+02 -0.15750843326E+02  0.36820922309E+02  0.00000000000E+00 0. -1.
         11    1    4    4    0    0  0.82265095488E+01  0.43085764445E+01  0.73397327398E+01  0.11836847861E+02  0.51100000000E-03 0. -1.
        -11    1    4    4    0    0 -0.10373669254E+02  0.30725591931E+02  0.76263531351E+01  0.33314205314E+02  0.51100000000E-03 0.  1.
        -12    1    4    4    0    0  0.88538398757E+01 -0.24349092532E+01  0.78475745064E+00  0.92160245156E+01  0.00000000000E+00 0.  1.
</event>
<event>
 8    1  0.2432279E-006  0.9118800E+02  0.7816164E-02  0.1184000E+00
        -11   -1    0    0    0    0  0.00000000000E+00  0.00000000000E+00  0.45593999997E+02  0.45594000000E+02  0.51100000000E-03 0. -1.
         11   -1    0    0    0    0 -0.00000000000E+00 -0.00000000000E+00 -0.45593999997E+02  0.45594000000E+02  0.51100000000E-03 0.  1.
         23    2    1    2    0    0 -0.35527136788E-14  0.00000000000E+00  0.00000000000E+00  0.91188000000E+02  0.91188000000E+02 0.  0.
    9900012    2    3    3    0    0  0.28028410122E+02  0.21172905029E+02 -0.11040680027E+02  0.54367078002E+02  0.39999985921E+02 0.  0.
        -12    1    3    3    0    0 -0.28028410122E+02 -0.21172905029E+02  0.11040680027E+02  0.36820921998E+02  0.00000000000E+00 0.  1.
         11    1    4    4    0    0  0.20763505939E+02 -0.10899780294E+01 -0.35267973802E+01  0.21089085589E+02  0.51100000000E-03 0. -1.
        -11    1    4    4    0    0 -0.63283329409E+01  0.81235186928E+01 -0.89065240585E+01  0.13614900838E+02  0.51100000000E-03 0.  1.
         12    1    4    4    0    0  0.13593237124E+02  0.14139364365E+02  0.13926414117E+01  0.19663091575E+02  0.00000000000E+00 0. -1.
</event>
<event>
 8    1  0.2432279E-006  0.9118800E+02  0.7816164E-02  0.1184000E+00
        -11   -1    0    0    0    0  0.00000000000E+00  0.00000000000E+00  0.45593999997E+02  0.45594000000E+02  0.51100000000E-03 0.  1.
         11   -1    0    0    0    0 -0.00000000000E+00 -0.00000000000E+00 -0.45593999997E+02  0.45594000000E+02  0.51100000000E-03 0. -1.
         23    2    1    2    0    0  0.88817841970E-15 -0.35527136788E-14  0.00000000000E+00  0.91188000000E+02  0.91188000000E+02 0.  0.
    9900012    2    3    3    0    0 -0.25278484133E+01  0.29628105350E+02 -0.21715569833E+02  0.54367073648E+02  0.39999975996E+02 0.  0.
        -12    1    3    3    0    0  0.25278484133E+01 -0.29628105350E+02  0.21715569833E+02  0.36820926352E+02  0.00000000000E+00 0.  1.
         11    1    4    4    0    0 -0.50899089732E+01  0.10990749728E+02 -0.22781499169E+02  0.25801171632E+02  0.51100000000E-03 0. -1.
        -11    1    4    4    0    0 -0.33714794692E+01  0.80075019775E+01  0.10161526523E+02  0.13369501983E+02  0.51100000000E-03 0.  1.
        -12    1    4    4    0    0  0.59335400291E+01  0.10629853644E+02 -0.90955971875E+01  0.15196400033E+02  0.00000000000E+00 0.  1.
</event>
<event>
 8    1  0.2432279E-006  0.9118800E+02  0.7816164E-02  0.1184000E+00
        -11   -1    0    0    0    0  0.00000000000E+00  0.00000000000E+00  0.45593999997E+02  0.45594000000E+02  0.51100000000E-03 0.  1.
         11   -1    0    0    0    0 -0.00000000000E+00 -0.00000000000E+00 -0.45593999997E+02  0.45594000000E+02  0.51100000000E-03 0. -1.
         23    2    1    2    0    0  0.17763568394E-14  0.00000000000E+00  0.00000000000E+00  0.91188000000E+02  0.91188000000E+02 0.  0.
    9900012    2    3    3    0    0 -0.82903195800E+01  0.41972312527E+01 -0.35629102229E+02  0.54367094599E+02  0.40000023758E+02 0.  0.
        -12    1    3    3    0    0  0.82903195800E+01 -0.41972312527E+01  0.35629102229E+02  0.36820905401E+02  0.00000000000E+00 0.  1.
         11    1    4    4    0    0 -0.84287133614E+01  0.14566704895E+02 -0.12258492704E+02  0.20820728711E+02  0.51100000000E-03 0. -1.
        -11    1    4    4    0    0  0.61980264064E+01 -0.14598338230E+02 -0.19714655912E+02  0.25302068461E+02  0.51100000000E-03 0.  1.
        -12    1    4    4    0    0 -0.60596326250E+01  0.42288645878E+01 -0.36559536129E+01  0.82442974274E+01  0.00000000000E+00 0.  1.
</event>
<event>
 8    1  0.2432279E-006  0.9118800E+02  0.7816164E-02  0.1184000E+00
        -11   -1    0    0    0    0  0.00000000000E+00  0.00000000000E+00  0.45593999997E+02  0.45594000000E+02  0.51100000000E-03 0. -1.
         11   -1    0    0    0    0 -0.00000000000E+00 -0.00000000000E+00 -0.45593999997E+02  0.45594000000E+02  0.51100000000E-03 0.  1.
         23    2    1    2    0    0  0.00000000000E+00  0.88817841970E-15 -0.71054273576E-14  0.91188000000E+02  0.91188000000E+02 0.  0.
    9900012    2    3    3    0    0 -0.13716962038E+02  0.64517205860E+01  0.33555927386E+02  0.54367081912E+02  0.39999994835E+02 0.  0.
        -12    1    3    3    0    0  0.13716962038E+02 -0.64517205860E+01 -0.33555927386E+02  0.36820918088E+02  0.00000000000E+00 0.  1.
         11    1    4    4    0    0 -0.72553321929E+01  0.27390685291E+01  0.80132907307E+01  0.11151464937E+02  0.51100000000E-03 0. -1.
        -11    1    4    4    0    0  0.77364280930E+01  0.12445863853E+02  0.21574509204E+02  0.26080860690E+02  0.51100000000E-03 0.  1.
        -12    1    4    4    0    0 -0.14198057938E+02 -0.87332117963E+01  0.39681274516E+01  0.17134756285E+02  0.00000000000E+00 0.  1.
</event>
<event>
 8    1  0.2432279E-006  0.9118800E+02  0.7816164E-02  0.1184000E+00
        -11   -1    0    0    0    0  0.00000000000E+00  0.00000000000E+00  0.45593999997E+02  0.45594000000E+02  0.51100000000E-03 0.  1.
         11   -1    0    0    0    0 -0.00000000000E+00 -0.00000000000E+00 -0.45593999997E+02  0.45594000000E+02  0.51100000000E-03 0. -1.
         23    2    1    2    0    0  0.00000000000E+00 -0.35527136788E-14  0.17763568394E-14  0.91188000000E+02  0.91188000000E+02 0.  0.
    9900012    2    3    3    0    0 -0.27450664020E+02  0.21238460385E+02 -0.12295047496E+02  0.54367090891E+02  0.40000015305E+02 0.  0.
        -12    1    3    3    0    0  0.27450664020E+02 -0.21238460385E+02  0.12295047496E+02  0.36820909109E+02  0.00000000000E+00 0.  1.
         11    1    4    4    0    0 -0.65325397861E+01 -0.14505790068E+01  0.69719483386E+01  0.96636597317E+01  0.51100000000E-03 0. -1.
        -11    1    4    4    0    0 -0.29422133061E+01 -0.53425842821E+01  0.25178785995E+00  0.61043610098E+01  0.51100000000E-03 0.  1.
         12    1    4    4    0    0 -0.17975910927E+02  0.28031623674E+02 -0.19518783695E+02  0.38599070150E+02  0.00000000000E+00 0. -1.
</event>
<event>
 8    1  0.2432279E-006  0.9118800E+02  0.7816164E-02  0.1184000E+00
        -11   -1    0    0    0    0  0.00000000000E+00  0.00000000000E+00  0.45593999997E+02  0.45594000000E+02  0.51100000000E-03 0.  1.
         11   -1    0    0    0    0 -0.00000000000E+00 -0.00000000000E+00 -0.45593999997E+02  0.45594000000E+02  0.51100000000E-03 0. -1.
         23    2    1    2    0    0  0.00000000000E+00 -0.17763568394E-14 -0.35527136788E-14  0.91188000000E+02  0.91188000000E+02 0.  0.
    9900012    2    3    3    0    0  0.24787096650E+02  0.75566851628E+01  0.26158654302E+02  0.54367097704E+02  0.40000030836E+02 0.  0.
         12    1    3    3    0    0 -0.24787096650E+02 -0.75566851628E+01 -0.26158654302E+02  0.36820902296E+02  0.00000000000E+00 0. -1.
         11    1    4    4    0    0 -0.23038061795E+00  0.14765594046E+02  0.40080687776E+01  0.15301648877E+02  0.51100000000E-03 0. -1.
        -11    1    4    4    0    0  0.19336460642E+02 -0.12866864258E+02  0.12039366813E+02  0.26161063807E+02  0.51100000000E-03 0.  1.
         12    1    4    4    0    0  0.56810166264E+01  0.56579553752E+01  0.10111218711E+02  0.12904385021E+02  0.00000000000E+00 0. -1.
</event>
<event>
 8    1  0.2432279E-006  0.9118800E+02  0.7816164E-02  0.1184000E+00
        -11   -1    0    0    0    0  0.00000000000E+00  0.00000000000E+00  0.45593999997E+02  0.45594000000E+02  0.51100000000E-03 0. -1.
         11   -1    0    0    0    0 -0.00000000000E+00 -0.00000000000E+00 -0.45593999997E+02  0.45594000000E+02  0.51100000000E-03 0.  1.
         23    2    1    2    0    0 -0.35527136788E-14  0.00000000000E+00  0.44408920985E-15  0.91188000000E+02  0.91188000000E+02 0.  0.
    9900012    2    3    3    0    0  0.28721590957E+02  0.23033901301E+02  0.53539627776E+00  0.54367122153E+02  0.40000086572E+02 0.  0.
         12    1    3    3    0    0 -0.28721590957E+02 -0.23033901301E+02 -0.53539627776E+00  0.36820877847E+02  0.00000000000E+00 0. -1.
         11    1    4    4    0    0  0.94844393566E+01  0.14751744280E+02  0.13972359889E+02  0.22423099481E+02  0.51100000000E-03 0. -1.
        -11    1    4    4    0    0  0.50537785108E+01  0.82306000360E+01  0.31132383140E+01  0.10147694677E+02  0.51100000000E-03 0.  1.
        -12    1    4    4    0    0  0.14183373090E+02  0.51556985309E-01 -0.16550201925E+02  0.21796327995E+02  0.00000000000E+00 0.  1.
</event>
<event>
 8    1  0.2432279E-006  0.9118800E+02  0.7816164E-02  0.1184000E+00
        -11   -1    0    0    0    0  0.00000000000E+00  0.00000000000E+00  0.45593999997E+02  0.45594000000E+02  0.51100000000E-03 0. -1.
         11   -1    0    0    0    0 -0.00000000000E+00 -0.00000000000E+00 -0.45593999997E+02  0.45594000000E+02  0.51100000000E-03 0.  1.
         23    2    1    2    0    0  0.00000000000E+00 -0.35527136788E-14 -0.17763568394E-14  0.91188000000E+02  0.91188000000E+02 0.  0.
    9900012    2    3    3    0    0  0.32449156465E+02 -0.15909582799E+02 -0.70510402731E+01  0.54367085439E+02  0.40000002876E+02 0.  0.
        -12    1    3    3    0    0 -0.32449156465E+02  0.15909582799E+02  0.70510402731E+01  0.36820914561E+02  0.00000000000E+00 0.  1.
         11    1    4    4    0    0 -0.49364114052E+01  0.18830788651E+01 -0.58756071736E+00  0.53159544234E+01  0.51100000000E-03 0. -1.
        -11    1    4    4    0    0  0.24372841037E+02 -0.10697414026E+02 -0.16347454583E+02  0.31236346116E+02  0.51100000000E-03 0.  1.
         12    1    4    4    0    0  0.13012726834E+02 -0.70952476381E+01  0.98839750272E+01  0.17814784900E+02  0.00000000000E+00 0. -1.
</event>
<event>
 8    1  0.2432279E-006  0.9118800E+02  0.7816164E-02  0.1184000E+00
        -11   -1    0    0    0    0  0.00000000000E+00  0.00000000000E+00  0.45593999997E+02  0.45594000000E+02  0.51100000000E-03 0.  1.
         11   -1    0    0    0    0 -0.00000000000E+00 -0.00000000000E+00 -0.45593999997E+02  0.45594000000E+02  0.51100000000E-03 0. -1.
         23    2    1    2    0    0 -0.71054273576E-14  0.00000000000E+00  0.71054273576E-14  0.91188000000E+02  0.91188000000E+02 0.  0.
    9900012    2    3    3    0    0  0.26614030471E+02 -0.26315397345E+01 -0.25309066295E+02  0.54367075840E+02  0.39999980992E+02 0.  0.
        -12    1    3    3    0    0 -0.26614030471E+02  0.26315397345E+01  0.25309066295E+02  0.36820924160E+02  0.00000000000E+00 0.  1.
         11    1    4    4    0    0 -0.75924159729E+01 -0.17289904846E+01 -0.47855148267E+00  0.78014870496E+01  0.51100000000E-03 0. -1.
        -11    1    4    4    0    0  0.84606365916E+01 -0.36800218187E+01  0.18224270039E+01  0.94045825302E+01  0.51100000000E-03 0.  1.
         12    1    4    4    0    0  0.25745809853E+02  0.27774725687E+01 -0.26652941816E+02  0.37161006260E+02  0.00000000000E+00 0. -1.
</event>
<event>
 8    1  0.2432279E-006  0.9118800E+02  0.7816164E-02  0.1184000E+00
        -11   -1    0    0    0    0  0.00000000000E+00  0.00000000000E+00  0.45593999997E+02  0.45594000000E+02  0.51100000000E-03 0. -1.
         11   -1    0    0    0    0 -0.00000000000E+00 -0.00000000000E+00 -0.45593999997E+02  0.45594000000E+02  0.51100000000E-03 0.  1.
         23    2    1    2    0    0 -0.35527136788E-14 -0.17763568394E-14  0.00000000000E+00  0.91188000000E+02  0.91188000000E+02 0.  0.
    9900012    2    3    3    0    0  0.30030081058E+02 -0.13041105689E+02 -0.16849512090E+02  0.54367051295E+02  0.39999925036E+02 0.  0.
         12    1    3    3    0    0 -0.30030081058E+02  0.13041105689E+02  0.16849512090E+02  0.36820948705E+02  0.00000000000E+00 0. -1.
         11    1    4    4    0    0  0.36138872775E+01  0.21584843887E+00 -0.98832895339E+01  0.10525501607E+02  0.51100000000E-03 0. -1.
        -11    1    4    4    0    0  0.20920416034E+02 -0.21437952718E+02 -0.12592166766E+02  0.32493265270E+02  0.51100000000E-03 0.  1.
         12    1    4    4    0    0  0.54957777466E+01  0.81809985909E+01  0.56259442098E+01  0.11348284418E+02  0.00000000000E+00 0. -1.
</event>
<event>
 8    1  0.2432279E-006  0.9118800E+02  0.7816164E-02  0.1184000E+00
        -11   -1    0    0    0    0  0.00000000000E+00  0.00000000000E+00  0.45593999997E+02  0.45594000000E+02  0.51100000000E-03 0.  1.
         11   -1    0    0    0    0 -0.00000000000E+00 -0.00000000000E+00 -0.45593999997E+02  0.45594000000E+02  0.51100000000E-03 0. -1.
         23    2    1    2    0    0  0.00000000000E+00  0.00000000000E+00  0.00000000000E+00  0.91188000000E+02  0.91188000000E+02 0.  0.
    9900012    2    3    3    0    0 -0.23894344418E+02  0.25059855623E+02 -0.12524236630E+02  0.54366911448E+02  0.39999606226E+02 0.  0.
         12    1    3    3    0    0  0.23894344418E+02 -0.25059855623E+02  0.12524236630E+02  0.36821088552E+02  0.00000000000E+00 0. -1.
         11    1    4    4    0    0 -0.85253124906E+01 -0.27744704071E+01 -0.79707878885E+01  0.11996336896E+02  0.51100000000E-03 0. -1.
        -11    1    4    4    0    0 -0.20203641096E+02  0.30483242529E+02 -0.45908682851E+01  0.36857716431E+02  0.51100000000E-03 0.  1.
         12    1    4    4    0    0  0.48346091689E+01 -0.26489164994E+01  0.37419543801E-01  0.55128581207E+01  0.00000000000E+00 0. -1.
</event>
<event>
 8    1  0.2432279E-006  0.9118800E+02  0.7816164E-02  0.1184000E+00
        -11   -1    0    0    0    0  0.00000000000E+00  0.00000000000E+00  0.45593999997E+02  0.45594000000E+02  0.51100000000E-03 0.  1.
         11   -1    0    0    0    0 -0.00000000000E+00 -0.00000000000E+00 -0.45593999997E+02  0.45594000000E+02  0.51100000000E-03 0. -1.
         23    2    1    2    0    0  0.17763568394E-14  0.35527136788E-14  0.35527136788E-14  0.91188000000E+02  0.91188000000E+02 0.  0.
    9900012    2    3    3    0    0 -0.65111944249E+01 -0.27929174050E+02 -0.23094262320E+02  0.54367090614E+02  0.40000014672E+02 0.  0.
        -12    1    3    3    0    0  0.65111944249E+01  0.27929174050E+02  0.23094262320E+02  0.36820909386E+02  0.00000000000E+00 0.  1.
         11    1    4    4    0    0 -0.13066060240E-01 -0.10476583016E+02 -0.51063707822E+01  0.11654783792E+02  0.51100000000E-03 0. -1.
        -11    1    4    4    0    0  0.30098614132E+01  0.88249453587E+01  0.27648893855E+00  0.93282030801E+01  0.51100000000E-03 0.  1.
         12    1    4    4    0    0 -0.95079897778E+01 -0.26277536392E+02 -0.18264380476E+02  0.33384103741E+02  0.00000000000E+00 0. -1.
</event>
<event>
 8    1  0.2432279E-006  0.9118800E+02  0.7816164E-02  0.1184000E+00
        -11   -1    0    0    0    0  0.00000000000E+00  0.00000000000E+00  0.45593999997E+02  0.45594000000E+02  0.51100000000E-03 0. -1.
         11   -1    0    0    0    0 -0.00000000000E+00 -0.00000000000E+00 -0.45593999997E+02  0.45594000000E+02  0.51100000000E-03 0.  1.
         23    2    1    2    0    0  0.00000000000E+00 -0.17763568394E-14  0.00000000000E+00  0.91188000000E+02  0.91188000000E+02 0.  0.
    9900012    2    3    3    0    0  0.11878841230E+02 -0.10755435899E+02 -0.33151066102E+02  0.54367089446E+02  0.40000012010E+02 0.  0.
         12    1    3    3    0    0 -0.11878841230E+02  0.10755435899E+02  0.33151066102E+02  0.36820910554E+02  0.00000000000E+00 0. -1.
         11    1    4    4    0    0  0.21805249938E+02 -0.10058164843E+02 -0.19170480805E+02  0.30726909044E+02  0.51100000000E-03 0. -1.
        -11    1    4    4    0    0 -0.39028017683E+01  0.16811356005E+01 -0.16235703175E+02  0.16782614111E+02  0.51100000000E-03 0.  1.
         12    1    4    4    0    0 -0.60236069393E+01 -0.23784066564E+01  0.22551178786E+01  0.68575662905E+01  0.00000000000E+00 0. -1.
</event>
<event>
 8    1  0.2432279E-006  0.9118800E+02  0.7816164E-02  0.1184000E+00
        -11   -1    0    0    0    0  0.00000000000E+00  0.00000000000E+00  0.45593999997E+02  0.45594000000E+02  0.51100000000E-03 0.  1.
         11   -1    0    0    0    0 -0.00000000000E+00 -0.00000000000E+00 -0.45593999997E+02  0.45594000000E+02  0.51100000000E-03 0. -1.
         23    2    1    2    0    0 -0.35527136788E-14  0.00000000000E+00  0.00000000000E+00  0.91188000000E+02  0.91188000000E+02 0.  0.
    9900012    2    3    3    0    0 -0.25777892102E+02  0.20298247820E+02 -0.16711146679E+02  0.54367068329E+02  0.39999963870E+02 0.  0.
        -12    1    3    3    0    0  0.25777892102E+02 -0.20298247820E+02  0.16711146679E+02  0.36820931671E+02  0.00000000000E+00 0.  1.
         11    1    4    4    0    0 -0.14849438544E+02  0.31029508959E+01  0.76846601417E+01  0.17005532367E+02  0.51100000000E-03 0. -1.
        -11    1    4    4    0    0 -0.88059872931E+00  0.17662724226E+02 -0.18962412259E+02  0.25929141138E+02  0.51100000000E-03 0.  1.
         12    1    4    4    0    0 -0.10047854829E+02 -0.46742730214E+00 -0.54333945612E+01  0.11432394824E+02  0.00000000000E+00 0. -1.
</event>
<event>
 8    1  0.2432279E-006  0.9118800E+02  0.7816164E-02  0.1184000E+00
        -11   -1    0    0    0    0  0.00000000000E+00  0.00000000000E+00  0.45593999997E+02  0.45594000000E+02  0.51100000000E-03 0. -1.
         11   -1    0    0    0    0 -0.00000000000E+00 -0.00000000000E+00 -0.45593999997E+02  0.45594000000E+02  0.51100000000E-03 0.  1.
         23    2    1    2    0    0 -0.35527136788E-14  0.00000000000E+00 -0.35527136788E-14  0.91188000000E+02  0.91188000000E+02 0.  0.
    9900012    2    3    3    0    0 -0.19117302453E+02  0.13437437626E+02  0.28456017110E+02  0.54367069909E+02  0.39999967471E+02 0.  0.
         12    1    3    3    0    0  0.19117302453E+02 -0.13437437626E+02 -0.28456017110E+02  0.36820930091E+02  0.00000000000E+00 0. -1.
         11    1    4    4    0    0 -0.66516018581E+01 -0.21507660606E+01  0.94764214613E+01  0.11775914652E+02  0.51100000000E-03 0. -1.
        -11    1    4    4    0    0 -0.16394903864E+02 -0.15657102482E+01 -0.32022375818E+00  0.16472609532E+02  0.51100000000E-03 0.  1.
         12    1    4    4    0    0  0.39292032692E+01  0.17153913935E+02  0.19299819407E+02  0.26118545724E+02  0.00000000000E+00 0. -1.
</event>
<event>
 8    1  0.2432279E-006  0.9118800E+02  0.7816164E-02  0.1184000E+00
        -11   -1    0    0    0    0  0.00000000000E+00  0.00000000000E+00  0.45593999997E+02  0.45594000000E+02  0.51100000000E-03 0. -1.
         11   -1    0    0    0    0 -0.00000000000E+00 -0.00000000000E+00 -0.45593999997E+02  0.45594000000E+02  0.51100000000E-03 0.  1.
         23    2    1    2    0    0 -0.17763568394E-14  0.00000000000E+00  0.00000000000E+00  0.91188000000E+02  0.91188000000E+02 0.  0.
    9900012    2    3    3    0    0 -0.13270530971E+02  0.18049152732E+02 -0.29221596528E+02  0.54367073746E+02  0.39999976218E+02 0.  0.
         12    1    3    3    0    0  0.13270530971E+02 -0.18049152732E+02  0.29221596528E+02  0.36820926254E+02  0.00000000000E+00 0. -1.
         11    1    4    4    0    0  0.12179416214E+02 -0.46600693195E+00 -0.23431561990E+01  0.12411515741E+02  0.51100000000E-03 0. -1.
        -11    1    4    4    0    0 -0.16544668911E+02  0.10836897412E+02 -0.12565025110E+02  0.23431693733E+02  0.51100000000E-03 0.  1.
         12    1    4    4    0    0 -0.89052782741E+01  0.76782622511E+01 -0.14313415218E+02  0.18523864272E+02  0.00000000000E+00 0. -1.
</event>
<event>
 8    1  0.2432279E-006  0.9118800E+02  0.7816164E-02  0.1184000E+00
        -11   -1    0    0    0    0  0.00000000000E+00  0.00000000000E+00  0.45593999997E+02  0.45594000000E+02  0.51100000000E-03 0. -1.
         11   -1    0    0    0    0 -0.00000000000E+00 -0.00000000000E+00 -0.45593999997E+02  0.45594000000E+02  0.51100000000E-03 0.  1.
         23    2    1    2    0    0  0.00000000000E+00 -0.35527136788E-14 -0.17763568394E-14  0.91188000000E+02  0.91188000000E+02 0.  0.
    9900012    2    3    3    0    0  0.14120753690E+02 -0.31438649416E+02 -0.12960965756E+02  0.54367204310E+02  0.40000273865E+02 0.  0.
         12    1    3    3    0    0 -0.14120753690E+02  0.31438649416E+02  0.12960965756E+02  0.36820795690E+02  0.00000000000E+00 0. -1.
         11    1    4    4    0    0  0.23701770194E+01  0.19613004494E+01  0.40153919740E+01  0.50584396331E+01  0.51100000000E-03 0. -1.
        -11    1    4    4    0    0  0.19803650040E+02 -0.23648118369E+02 -0.38557240218E+01  0.31085119676E+02  0.51100000000E-03 0.  1.
        -12    1    4    4    0    0 -0.80530733687E+01 -0.97518314964E+01 -0.13120633708E+02  0.18223645001E+02  0.00000000000E+00 0.  1.
</event>
<event>
 8    1  0.2432279E-006  0.9118800E+02  0.7816164E-02  0.1184000E+00
        -11   -1    0    0    0    0  0.00000000000E+00  0.00000000000E+00  0.45593999997E+02  0.45594000000E+02  0.51100000000E-03 0.  1.
         11   -1    0    0    0    0 -0.00000000000E+00 -0.00000000000E+00 -0.45593999997E+02  0.45594000000E+02  0.51100000000E-03 0. -1.
         23    2    1    2    0    0  0.00000000000E+00  0.88817841970E-15  0.35527136788E-14  0.91188000000E+02  0.91188000000E+02 0.  0.
    9900012    2    3    3    0    0 -0.27293359155E+02  0.60542459587E+01  0.23962426891E+02  0.54367092209E+02  0.40000018308E+02 0.  0.
         12    1    3    3    0    0  0.27293359155E+02 -0.60542459587E+01 -0.23962426891E+02  0.36820907791E+02  0.00000000000E+00 0. -1.
         11    1    4    4    0    0  0.57328588132E+01  0.73443100703E+00  0.16033791564E+01  0.59979900014E+01  0.51100000000E-03 0. -1.
        -11    1    4    4    0    0 -0.10596321119E+01  0.33130579492E+01  0.15142235858E+02  0.15536617400E+02  0.51100000000E-03 0.  1.
         12    1    4    4    0    0 -0.31966585856E+02  0.20067570025E+01  0.72168118765E+01  0.32832484807E+02  0.00000000000E+00 0. -1.
</event>
<event>
 8    1  0.2432279E-006  0.9118800E+02  0.7816164E-02  0.1184000E+00
        -11   -1    0    0    0    0  0.00000000000E+00  0.00000000000E+00  0.45593999997E+02  0.45594000000E+02  0.51100000000E-03 0.  1.
         11   -1    0    0    0    0 -0.00000000000E+00 -0.00000000000E+00 -0.45593999997E+02  0.45594000000E+02  0.51100000000E-03 0. -1.
         23    2    1    2    0    0 -0.35527136788E-14  0.35527136788E-14  0.17763568394E-14  0.91188000000E+02  0.91188000000E+02 0.  0.
    9900012    2    3    3    0    0  0.25398378159E+02 -0.24768395921E+02  0.98604325466E+01  0.54367093173E+02  0.40000020506E+02 0.  0.
         12    1    3    3    0    0 -0.25398378159E+02  0.24768395921E+02 -0.98604325466E+01  0.36820906827E+02  0.00000000000E+00 0. -1.
         11    1    4    4    0    0  0.88315008975E+01 -0.12688908771E+02  0.30549763160E+01  0.15758702182E+02  0.51100000000E-03 0.  1.
        -11    1    4    4    0    0  0.20565812678E+02 -0.15694326021E+02  0.14158430704E+02  0.29491111892E+02  0.51100000000E-03 0. -1.
         12    1    4    4    0    0 -0.39989354169E+01  0.36148388722E+01 -0.73529744738E+01  0.91172790981E+01  0.00000000000E+00 0. -1.
</event>
<event>
 8    1  0.2432279E-006  0.9118800E+02  0.7816164E-02  0.1184000E+00
        -11   -1    0    0    0    0  0.00000000000E+00  0.00000000000E+00  0.45593999997E+02  0.45594000000E+02  0.51100000000E-03 0. -1.
         11   -1    0    0    0    0 -0.00000000000E+00 -0.00000000000E+00 -0.45593999997E+02  0.45594000000E+02  0.51100000000E-03 0.  1.
         23    2    1    2    0    0  0.17763568394E-14  0.35527136788E-14  0.00000000000E+00  0.91188000000E+02  0.91188000000E+02 0.  0.
    9900012    2    3    3    0    0  0.76525777415E+01  0.19890302579E+02  0.30026545690E+02  0.54367088430E+02  0.40000009694E+02 0.  0.
        -12    1    3    3    0    0 -0.76525777415E+01 -0.19890302579E+02 -0.30026545690E+02  0.36820911570E+02  0.00000000000E+00 0.  1.
         11    1    4    4    0    0 -0.94147071439E+01  0.19692852409E+01  0.13945482625E+02  0.16940817008E+02  0.51100000000E-03 0. -1.
        -11    1    4    4    0    0 -0.54842272066E+00  0.15303138593E+02  0.11164831062E+02  0.18950996575E+02  0.51100000000E-03 0.  1.
        -12    1    4    4    0    0  0.17615707606E+02  0.26178787448E+01  0.49162320023E+01  0.18475274847E+02  0.00000000000E+00 0.  1.
</event>
<event>
 8    1  0.2432279E-006  0.9118800E+02  0.7816164E-02  0.1184000E+00
        -11   -1    0    0    0    0  0.00000000000E+00  0.00000000000E+00  0.45593999997E+02  0.45594000000E+02  0.51100000000E-03 0. -1.
         11   -1    0    0    0    0 -0.00000000000E+00 -0.00000000000E+00 -0.45593999997E+02  0.45594000000E+02  0.51100000000E-03 0.  1.
         23    2    1    2    0    0  0.00000000000E+00  0.00000000000E+00 -0.17763568394E-14  0.91188000000E+02  0.91188000000E+02 0.  0.
    9900012    2    3    3    0    0 -0.32496810514E+02 -0.10492846444E+02  0.13770619579E+02  0.54367184098E+02  0.40000227788E+02 0.  0.
        -12    1    3    3    0    0  0.32496810514E+02  0.10492846444E+02 -0.13770619579E+02  0.36820815902E+02  0.00000000000E+00 0.  1.
         11    1    4    4    0    0 -0.21322357010E+02 -0.96801216928E+01 -0.74519204267E+01  0.24573945201E+02  0.51100000000E-03 0. -1.
        -11    1    4    4    0    0 -0.63583352592E+00  0.47353817138E+01 -0.71518801515E+00  0.48311094385E+01  0.51100000000E-03 0.  1.
         12    1    4    4    0    0 -0.10538619978E+02 -0.55481064646E+01  0.21937728021E+02  0.24962129458E+02  0.00000000000E+00 0. -1.
</event>
<event>
 8    1  0.2432279E-006  0.9118800E+02  0.7816164E-02  0.1184000E+00
        -11   -1    0    0    0    0  0.00000000000E+00  0.00000000000E+00  0.45593999997E+02  0.45594000000E+02  0.51100000000E-03 0.  1.
         11   -1    0    0    0    0 -0.00000000000E+00 -0.00000000000E+00 -0.45593999997E+02  0.45594000000E+02  0.51100000000E-03 0. -1.
         23    2    1    2    0    0  0.17763568394E-14  0.00000000000E+00  0.35527136788E-14  0.91188000000E+02  0.91188000000E+02 0.  0.
    9900012    2    3    3    0    0  0.56043571147E+01 -0.25779902255E+02 -0.25685948102E+02  0.54367080554E+02  0.39999991739E+02 0.  0.
        -12    1    3    3    0    0 -0.56043571147E+01  0.25779902255E+02  0.25685948102E+02  0.36820919446E+02  0.00000000000E+00 0.  1.
         11    1    4    4    0    0  0.13927745023E+02 -0.80780430071E+01  0.49663527072E+01  0.16849377429E+02  0.51100000000E-03 0. -1.
        -11    1    4    4    0    0 -0.43361621884E+01 -0.23116841757E+01 -0.12250988798E+02  0.13199731552E+02  0.51100000000E-03 0.  1.
         12    1    4    4    0    0 -0.39872257204E+01 -0.15390175072E+02 -0.18401312011E+02  0.24317971573E+02  0.00000000000E+00 0. -1.
</event>
<event>
 8    1  0.2432279E-006  0.9118800E+02  0.7816164E-02  0.1184000E+00
        -11   -1    0    0    0    0  0.00000000000E+00  0.00000000000E+00  0.45593999997E+02  0.45594000000E+02  0.51100000000E-03 0.  1.
         11   -1    0    0    0    0 -0.00000000000E+00 -0.00000000000E+00 -0.45593999997E+02  0.45594000000E+02  0.51100000000E-03 0. -1.
         23    2    1    2    0    0 -0.35527136788E-14 -0.35527136788E-14  0.00000000000E+00  0.91188000000E+02  0.91188000000E+02 0.  0.
    9900012    2    3    3    0    0 -0.22187579824E+02 -0.29129044857E+02  0.38718374532E+01  0.54367067394E+02  0.39999961737E+02 0.  0.
        -12    1    3    3    0    0  0.22187579824E+02  0.29129044857E+02 -0.38718374532E+01  0.36820932606E+02  0.00000000000E+00 0.  1.
         11    1    4    4    0    0 -0.11346500234E+02 -0.81270520481E+01  0.65271067375E+01  0.15407633341E+02  0.51100000000E-03 0. -1.
        -11    1    4    4    0    0 -0.12843458783E+02  0.42562041202E+01 -0.78629862384E+00  0.13553153611E+02  0.51100000000E-03 0.  1.
         12    1    4    4    0    0  0.20023791925E+01 -0.25258196929E+02 -0.18689706605E+01  0.25406280442E+02  0.00000000000E+00 0. -1.
</event>
<event>
 8    1  0.2432279E-006  0.9118800E+02  0.7816164E-02  0.1184000E+00
        -11   -1    0    0    0    0  0.00000000000E+00  0.00000000000E+00  0.45593999997E+02  0.45594000000E+02  0.51100000000E-03 0. -1.
         11   -1    0    0    0    0 -0.00000000000E+00 -0.00000000000E+00 -0.45593999997E+02  0.45594000000E+02  0.51100000000E-03 0.  1.
         23    2    1    2    0    0  0.00000000000E+00  0.00000000000E+00  0.00000000000E+00  0.91188000000E+02  0.91188000000E+02 0.  0.
    9900012    2    3    3    0    0 -0.28340232735E+02 -0.10689520898E+02 -0.20936691192E+02  0.54367086288E+02  0.40000004811E+02 0.  0.
         12    1    3    3    0    0  0.28340232735E+02  0.10689520898E+02  0.20936691192E+02  0.36820913712E+02  0.00000000000E+00 0. -1.
         11    1    4    4    0    0 -0.13047741564E+02 -0.13115473503E+02 -0.21991566295E+02  0.28738270538E+02  0.51100000000E-03 0. -1.
        -11    1    4    4    0    0 -0.45424381087E+01 -0.88836486828E+01 -0.15072916308E+00  0.99787613175E+01  0.51100000000E-03 0.  1.
         12    1    4    4    0    0 -0.10750053062E+02  0.11309601287E+02  0.12056042667E+01  0.15650054433E+02  0.00000000000E+00 0. -1.
</event>
<event>
 8    1  0.2432279E-006  0.9118800E+02  0.7816164E-02  0.1184000E+00
        -11   -1    0    0    0    0  0.00000000000E+00  0.00000000000E+00  0.45593999997E+02  0.45594000000E+02  0.51100000000E-03 0. -1.
         11   -1    0    0    0    0 -0.00000000000E+00 -0.00000000000E+00 -0.45593999997E+02  0.45594000000E+02  0.51100000000E-03 0.  1.
         23    2    1    2    0    0  0.22204460493E-15  0.00000000000E+00  0.00000000000E+00  0.91188000000E+02  0.91188000000E+02 0.  0.
    9900012    2    3    3    0    0  0.87437318551E+00 -0.50322052210E+01 -0.36464926225E+02  0.54367102911E+02  0.40000042706E+02 0.  0.
         12    1    3    3    0    0 -0.87437318551E+00  0.50322052210E+01  0.36464926225E+02  0.36820897089E+02  0.00000000000E+00 0. -1.
         11    1    4    4    0    0  0.10286820652E+02 -0.13193084567E+01  0.10217150754E+01  0.10421283793E+02  0.51100000000E-03 0. -1.
        -11    1    4    4    0    0  0.10302822826E+00 -0.33395876952E+01  0.16080794014E+01  0.37080156974E+01  0.51100000000E-03 0.  1.
        -12    1    4    4    0    0 -0.95154756950E+01 -0.37330906906E+00 -0.39094720702E+02  0.40237803421E+02  0.00000000000E+00 0.  1.
</event>
<event>
 8    1  0.2432279E-006  0.9118800E+02  0.7816164E-02  0.1184000E+00
        -11   -1    0    0    0    0  0.00000000000E+00  0.00000000000E+00  0.45593999997E+02  0.45594000000E+02  0.51100000000E-03 0.  1.
         11   -1    0    0    0    0 -0.00000000000E+00 -0.00000000000E+00 -0.45593999997E+02  0.45594000000E+02  0.51100000000E-03 0. -1.
         23    2    1    2    0    0  0.00000000000E+00 -0.44408920985E-15  0.00000000000E+00  0.91188000000E+02  0.91188000000E+02 0.  0.
    9900012    2    3    3    0    0  0.17242770127E+02 -0.25198133938E+01 -0.32436373976E+02  0.54367069296E+02  0.39999966075E+02 0.  0.
        -12    1    3    3    0    0 -0.17242770127E+02  0.25198133938E+01  0.32436373976E+02  0.36820930704E+02  0.00000000000E+00 0.  1.
         11    1    4    4    0    0 -0.52113511486E+01  0.14903945450E+01 -0.14796624839E+02  0.15758158635E+02  0.51100000000E-03 0. -1.
        -11    1    4    4    0    0  0.29582057864E+01 -0.12146414750E+02 -0.28539180232E+01  0.12823073778E+02  0.51100000000E-03 0.  1.
         12    1    4    4    0    0  0.19495915489E+02  0.81362068116E+01 -0.14785831114E+02  0.25785836883E+02  0.00000000000E+00 0. -1.
</event>
<event>
 8    1  0.2432279E-006  0.9118800E+02  0.7816164E-02  0.1184000E+00
        -11   -1    0    0    0    0  0.00000000000E+00  0.00000000000E+00  0.45593999997E+02  0.45594000000E+02  0.51100000000E-03 0. -1.
         11   -1    0    0    0    0 -0.00000000000E+00 -0.00000000000E+00 -0.45593999997E+02  0.45594000000E+02  0.51100000000E-03 0.  1.
         23    2    1    2    0    0  0.00000000000E+00 -0.13322676296E-14  0.00000000000E+00  0.91188000000E+02  0.91188000000E+02 0.  0.
    9900012    2    3    3    0    0  0.18183745101E+02  0.22920811811E+01  0.31935530459E+02  0.54367077581E+02  0.39999984962E+02 0.  0.
        -12    1    3    3    0    0 -0.18183745101E+02 -0.22920811811E+01 -0.31935530459E+02  0.36820922419E+02  0.00000000000E+00 0.  1.
         11    1    4    4    0    0  0.12822029953E+02 -0.52278840154E+01  0.33567546070E+02  0.36311366992E+02  0.51100000000E-03 0. -1.
        -11    1    4    4    0    0  0.90587183240E+01  0.28056089411E+00 -0.34994382554E+01  0.97152025431E+01  0.51100000000E-03 0.  1.
         12    1    4    4    0    0 -0.36970031758E+01  0.72394043024E+01  0.18674226450E+01  0.83405080463E+01  0.00000000000E+00 0. -1.
</event>
<event>
 8    1  0.2432279E-006  0.9118800E+02  0.7816164E-02  0.1184000E+00
        -11   -1    0    0    0    0  0.00000000000E+00  0.00000000000E+00  0.45593999997E+02  0.45594000000E+02  0.51100000000E-03 0. -1.
         11   -1    0    0    0    0 -0.00000000000E+00 -0.00000000000E+00 -0.45593999997E+02  0.45594000000E+02  0.51100000000E-03 0.  1.
         23    2    1    2    0    0 -0.71054273576E-14  0.13322676296E-14  0.35527136788E-14  0.91188000000E+02  0.91188000000E+02 0.  0.
    9900012    2    3    3    0    0  0.32717600129E+02 -0.28675444559E+01 -0.16646762789E+02  0.54367097231E+02  0.40000029757E+02 0.  0.
         12    1    3    3    0    0 -0.32717600129E+02  0.28675444559E+01  0.16646762789E+02  0.36820902769E+02  0.00000000000E+00 0. -1.
         11    1    4    4    0    0  0.73567838308E+01 -0.13016015119E+02  0.44271097504E+01  0.15592890011E+02  0.51100000000E-03 0. -1.
        -11    1    4    4    0    0 -0.52064281640E-01 -0.32960087629E+01 -0.45347738821E+01  0.56062963601E+01  0.51100000000E-03 0.  1.
         12    1    4    4    0    0  0.25412880579E+02  0.13444479425E+02 -0.16539098658E+02  0.33167910859E+02  0.00000000000E+00 0. -1.
</event>
<event>
 8    1  0.2432279E-006  0.9118800E+02  0.7816164E-02  0.1184000E+00
        -11   -1    0    0    0    0  0.00000000000E+00  0.00000000000E+00  0.45593999997E+02  0.45594000000E+02  0.51100000000E-03 0.  1.
         11   -1    0    0    0    0 -0.00000000000E+00 -0.00000000000E+00 -0.45593999997E+02  0.45594000000E+02  0.51100000000E-03 0. -1.
         23    2    1    2    0    0 -0.26645352591E-14  0.00000000000E+00  0.00000000000E+00  0.91188000000E+02  0.91188000000E+02 0.  0.
    9900012    2    3    3    0    0  0.44309669045E+01 -0.14508598815E+02  0.33550650274E+02  0.54367095053E+02  0.40000024793E+02 0.  0.
         12    1    3    3    0    0 -0.44309669045E+01  0.14508598815E+02 -0.33550650274E+02  0.36820904947E+02  0.00000000000E+00 0. -1.
         11    1    4    4    0    0 -0.60562797675E+01  0.15029740105E+01  0.74287457515E+00  0.62840527046E+01  0.51100000000E-03 0. -1.
        -11    1    4    4    0    0 -0.60253659004E+01 -0.16387172885E+02  0.10667833746E+02  0.20460868664E+02  0.51100000000E-03 0.  1.
        -12    1    4    4    0    0  0.16512612572E+02  0.37560006010E+00  0.22139941953E+02  0.27622173684E+02  0.00000000000E+00 0.  1.
</event>
<event>
 8    1  0.2432279E-006  0.9118800E+02  0.7816164E-02  0.1184000E+00
        -11   -1    0    0    0    0  0.00000000000E+00  0.00000000000E+00  0.45593999997E+02  0.45594000000E+02  0.51100000000E-03 0. -1.
         11   -1    0    0    0    0 -0.00000000000E+00 -0.00000000000E+00 -0.45593999997E+02  0.45594000000E+02  0.51100000000E-03 0.  1.
         23    2    1    2    0    0 -0.44408920985E-15  0.00000000000E+00 -0.35527136788E-14  0.91188000000E+02  0.91188000000E+02 0.  0.
    9900012    2    3    3    0    0 -0.22599704886E+01  0.20829877372E+02 -0.30278530804E+02  0.54367072722E+02  0.39999973884E+02 0.  0.
         12    1    3    3    0    0  0.22599704886E+01 -0.20829877372E+02  0.30278530804E+02  0.36820927278E+02  0.00000000000E+00 0. -1.
         11    1    4    4    0    0 -0.66212422451E+01  0.56948512782E+01 -0.33998228861E+01  0.93718181730E+01  0.51100000000E-03 0. -1.
        -11    1    4    4    0    0  0.48677692121E+01  0.25055643822E+02 -0.15378906270E+02  0.29799181578E+02  0.51100000000E-03 0.  1.
         12    1    4    4    0    0 -0.50649745548E+00 -0.99206177279E+01 -0.11499801648E+02  0.15196072971E+02  0.00000000000E+00 0. -1.
</event>
<event>
 8    1  0.2432279E-006  0.9118800E+02  0.7816164E-02  0.1184000E+00
        -11   -1    0    0    0    0  0.00000000000E+00  0.00000000000E+00  0.45593999997E+02  0.45594000000E+02  0.51100000000E-03 0.  1.
         11   -1    0    0    0    0 -0.00000000000E+00 -0.00000000000E+00 -0.45593999997E+02  0.45594000000E+02  0.51100000000E-03 0. -1.
         23    2    1    2    0    0  0.00000000000E+00  0.00000000000E+00  0.35527136788E-14  0.91188000000E+02  0.91188000000E+02 0.  0.
    9900012    2    3    3    0    0  0.21982948496E+02  0.87183934088E+01  0.28222697642E+02  0.54367067497E+02  0.39999961972E+02 0.  0.
         12    1    3    3    0    0 -0.21982948496E+02 -0.87183934088E+01 -0.28222697642E+02  0.36820932503E+02  0.00000000000E+00 0. -1.
         11    1    4    4    0    0  0.10528488610E+02  0.10786825593E+02  0.16792514687E+02  0.22565310292E+02  0.51100000000E-03 0. -1.
        -11    1    4    4    0    0  0.11667280866E+02  0.10704745851E+02  0.20788517411E+01  0.15969929598E+02  0.51100000000E-03 0.  1.
         12    1    4    4    0    0 -0.21282097942E+00 -0.12773178036E+02  0.93513312144E+01  0.15831827607E+02  0.00000000000E+00 0. -1.
</event>
<event>
 8    1  0.2432279E-006  0.9118800E+02  0.7816164E-02  0.1184000E+00
        -11   -1    0    0    0    0  0.00000000000E+00  0.00000000000E+00  0.45593999997E+02  0.45594000000E+02  0.51100000000E-03 0. -1.
         11   -1    0    0    0    0 -0.00000000000E+00 -0.00000000000E+00 -0.45593999997E+02  0.45594000000E+02  0.51100000000E-03 0.  1.
         23    2    1    2    0    0 -0.88817841970E-15  0.71054273576E-14  0.17763568394E-14  0.91188000000E+02  0.91188000000E+02 0.  0.
    9900012    2    3    3    0    0  0.63675879225E+01 -0.32842407099E+02 -0.15382119748E+02  0.54367088985E+02  0.40000010959E+02 0.  0.
         12    1    3    3    0    0 -0.63675879225E+01  0.32842407099E+02  0.15382119748E+02  0.36820911015E+02  0.00000000000E+00 0. -1.
         11    1    4    4    0    0 -0.11457398853E+02 -0.10294625303E+02 -0.97053746227E+01  0.18205647350E+02  0.51100000000E-03 0. -1.
        -11    1    4    4    0    0  0.56643901089E+01 -0.22248530491E+02 -0.56077481466E+00  0.22965123404E+02  0.51100000000E-03 0.  1.
         12    1    4    4    0    0  0.12160596666E+02 -0.29925130456E+00 -0.51159703111E+01  0.13196318231E+02  0.00000000000E+00 0. -1.
</event>
<event>
 8    1  0.2432279E-006  0.9118800E+02  0.7816164E-02  0.1184000E+00
        -11   -1    0    0    0    0  0.00000000000E+00  0.00000000000E+00  0.45593999997E+02  0.45594000000E+02  0.51100000000E-03 0. -1.
         11   -1    0    0    0    0 -0.00000000000E+00 -0.00000000000E+00 -0.45593999997E+02  0.45594000000E+02  0.51100000000E-03 0.  1.
         23    2    1    2    0    0  0.00000000000E+00  0.00000000000E+00 -0.12212453271E-14  0.91188000000E+02  0.91188000000E+02 0.  0.
    9900012    2    3    3    0    0 -0.29361658368E+02  0.22201476348E+02  0.87564223768E+00  0.54367091762E+02  0.40000017289E+02 0.  0.
        -12    1    3    3    0    0  0.29361658368E+02 -0.22201476348E+02 -0.87564223768E+00  0.36820908238E+02  0.00000000000E+00 0.  1.
         11    1    4    4    0    0 -0.19873072486E+02  0.98191470412E+01  0.11091163950E+02  0.24786459543E+02  0.51100000000E-03 0. -1.
        -11    1    4    4    0    0 -0.11107030738E+02  0.13082712391E+02 -0.16042748058E+02  0.23492408579E+02  0.51100000000E-03 0.  1.
        -12    1    4    4    0    0  0.16184448551E+01 -0.70038308426E+00  0.58272263450E+01  0.60882236399E+01  0.00000000000E+00 0.  1.
</event>
<event>
 8    1  0.2432279E-006  0.9118800E+02  0.7816164E-02  0.1184000E+00
        -11   -1    0    0    0    0  0.00000000000E+00  0.00000000000E+00  0.45593999997E+02  0.45594000000E+02  0.51100000000E-03 0.  1.
         11   -1    0    0    0    0 -0.00000000000E+00 -0.00000000000E+00 -0.45593999997E+02  0.45594000000E+02  0.51100000000E-03 0. -1.
         23    2    1    2    0    0 -0.44408920985E-14 -0.17763568394E-14 -0.71054273576E-14  0.91188000000E+02  0.91188000000E+02 0.  0.
    9900012    2    3    3    0    0  0.50165465346E+01  0.11600527480E+02  0.34583830615E+02  0.54367091307E+02  0.40000016253E+02 0.  0.
         12    1    3    3    0    0 -0.50165465346E+01 -0.11600527480E+02 -0.34583830615E+02  0.36820908693E+02  0.00000000000E+00 0. -1.
         11    1    4    4    0    0  0.12553528517E+02  0.14522018616E+02  0.15390450165E+02  0.24603781406E+02  0.51100000000E-03 0. -1.
        -11    1    4    4    0    0 -0.13227845643E+02 -0.56231681013E+01  0.68868998185E+01  0.15938171452E+02  0.51100000000E-03 0.  1.
        -12    1    4    4    0    0  0.56908636603E+01  0.27016769652E+01  0.12306480632E+02  0.13825138450E+02  0.00000000000E+00 0.  1.
</event>
<event>
 8    1  0.2432279E-006  0.9118800E+02  0.7816164E-02  0.1184000E+00
        -11   -1    0    0    0    0  0.00000000000E+00  0.00000000000E+00  0.45593999997E+02  0.45594000000E+02  0.51100000000E-03 0. -1.
         11   -1    0    0    0    0 -0.00000000000E+00 -0.00000000000E+00 -0.45593999997E+02  0.45594000000E+02  0.51100000000E-03 0.  1.
         23    2    1    2    0    0 -0.17763568394E-14  0.44408920985E-15 -0.71054273576E-14  0.91188000000E+02  0.91188000000E+02 0.  0.
    9900012    2    3    3    0    0 -0.97720494579E+01 -0.38809282892E+01 -0.35287754302E+02  0.54367079877E+02  0.39999990197E+02 0.  0.
         12    1    3    3    0    0  0.97720494579E+01  0.38809282892E+01  0.35287754302E+02  0.36820920123E+02  0.00000000000E+00 0. -1.
         11    1    4    4    0    0 -0.16906125695E+00 -0.26477473399E+00  0.81564847668E+01  0.81625321672E+01  0.51100000000E-03 0. -1.
        -11    1    4    4    0    0  0.12182474009E+01 -0.21774861219E+01 -0.22005716913E+02  0.22146718711E+02  0.51100000000E-03 0.  1.
         12    1    4    4    0    0 -0.10821235602E+02 -0.14386674333E+01 -0.21438522156E+02  0.24057828999E+02  0.00000000000E+00 0. -1.
</event>
<event>
 8    1  0.2432279E-006  0.9118800E+02  0.7816164E-02  0.1184000E+00
        -11   -1    0    0    0    0  0.00000000000E+00  0.00000000000E+00  0.45593999997E+02  0.45594000000E+02  0.51100000000E-03 0. -1.
         11   -1    0    0    0    0 -0.00000000000E+00 -0.00000000000E+00 -0.45593999997E+02  0.45594000000E+02  0.51100000000E-03 0.  1.
         23    2    1    2    0    0  0.00000000000E+00  0.00000000000E+00  0.16653345369E-14  0.91188000000E+02  0.91188000000E+02 0.  0.
    9900012    2    3    3    0    0  0.26279468110E+02  0.25783982437E+02 -0.59629961485E+00  0.54367085187E+02  0.40000002300E+02 0.  0.
        -12    1    3    3    0    0 -0.26279468110E+02 -0.25783982437E+02  0.59629961485E+00  0.36820914813E+02  0.00000000000E+00 0.  1.
         11    1    4    4    0    0  0.16371316523E+02  0.11847377179E+02  0.13455714882E+02  0.24278315715E+02  0.51100000000E-03 0. -1.
        -11    1    4    4    0    0  0.20018528689E+01  0.87066998515E+01 -0.17783361107E+02  0.19901305729E+02  0.51100000000E-03 0.  1.
        -12    1    4    4    0    0  0.79062987181E+01  0.52299054065E+01  0.37313466100E+01  0.10187463743E+02  0.00000000000E+00 0.  1.
</event>
<event>
 8    1  0.2432279E-006  0.9118800E+02  0.7816164E-02  0.1184000E+00
        -11   -1    0    0    0    0  0.00000000000E+00  0.00000000000E+00  0.45593999997E+02  0.45594000000E+02  0.51100000000E-03 0. -1.
         11   -1    0    0    0    0 -0.00000000000E+00 -0.00000000000E+00 -0.45593999997E+02  0.45594000000E+02  0.51100000000E-03 0.  1.
         23    2    1    2    0    0 -0.17763568394E-14  0.00000000000E+00  0.35527136788E-14  0.91188000000E+02  0.91188000000E+02 0.  0.
    9900012    2    3    3    0    0 -0.15906080641E+02 -0.17178297257E+02  0.28419777769E+02  0.54367067551E+02  0.39999962096E+02 0.  0.
        -12    1    3    3    0    0  0.15906080641E+02  0.17178297257E+02 -0.28419777769E+02  0.36820932449E+02  0.00000000000E+00 0.  1.
         11    1    4    4    0    0 -0.95236064583E+01  0.16510963639E+01  0.98793283842E+01  0.13821227469E+02  0.51100000000E-03 0. -1.
        -11    1    4    4    0    0 -0.15242128706E+02 -0.76030143672E+01 -0.12236647479E+00  0.17033592949E+02  0.51100000000E-03 0.  1.
        -12    1    4    4    0    0  0.88596545230E+01 -0.11226379253E+02  0.18662815859E+02  0.23512247132E+02  0.00000000000E+00 0.  1.
</event>
<event>
 8    1  0.2432279E-006  0.9118800E+02  0.7816164E-02  0.1184000E+00
        -11   -1    0    0    0    0  0.00000000000E+00  0.00000000000E+00  0.45593999997E+02  0.45594000000E+02  0.51100000000E-03 0. -1.
         11   -1    0    0    0    0 -0.00000000000E+00 -0.00000000000E+00 -0.45593999997E+02  0.45594000000E+02  0.51100000000E-03 0.  1.
         23    2    1    2    0    0 -0.17763568394E-14 -0.35527136788E-14  0.35527136788E-14  0.91188000000E+02  0.91188000000E+02 0.  0.
    9900012    2    3    3    0    0 -0.99723157445E+01 -0.25877775408E+02  0.24221307798E+02  0.54367107931E+02  0.40000054149E+02 0.  0.
        -12    1    3    3    0    0  0.99723157445E+01  0.25877775408E+02 -0.24221307798E+02  0.36820892069E+02  0.00000000000E+00 0.  1.
         11    1    4    4    0    0 -0.15171853898E+02 -0.28200733179E+02  0.26562906891E+02  0.41605943389E+02  0.51100000000E-03 0. -1.
        -11    1    4    4    0    0 -0.16235619705E+01  0.25543089597E+01  0.28709764663E+01  0.41716847753E+01  0.51100000000E-03 0.  1.
         12    1    4    4    0    0  0.68231001243E+01 -0.23135118852E+00 -0.52125755602E+01  0.85894797659E+01  0.00000000000E+00 0. -1.
</event>
<event>
 8    1  0.2432279E-006  0.9118800E+02  0.7816164E-02  0.1184000E+00
        -11   -1    0    0    0    0  0.00000000000E+00  0.00000000000E+00  0.45593999997E+02  0.45594000000E+02  0.51100000000E-03 0.  1.
         11   -1    0    0    0    0 -0.00000000000E+00 -0.00000000000E+00 -0.45593999997E+02  0.45594000000E+02  0.51100000000E-03 0. -1.
         23    2    1    2    0    0  0.00000000000E+00 -0.35527136788E-14  0.00000000000E+00  0.91188000000E+02  0.91188000000E+02 0.  0.
    9900012    2    3    3    0    0 -0.19516644469E+02 -0.30335451442E+02 -0.73920167066E+01  0.54367069315E+02  0.39999966117E+02 0.  0.
        -12    1    3    3    0    0  0.19516644469E+02  0.30335451442E+02  0.73920167066E+01  0.36820930685E+02  0.00000000000E+00 0.  1.
         11    1    4    4    0    0 -0.14659158664E+02 -0.10142983583E+02 -0.52283502572E+01  0.18577047542E+02  0.51100000000E-03 0. -1.
        -11    1    4    4    0    0  0.60421592786E+01  0.33522672672E+01  0.53946035741E+01  0.87662496292E+01  0.51100000000E-03 0.  1.
        -12    1    4    4    0    0 -0.10899645084E+02 -0.23544735126E+02 -0.75582700235E+01  0.27023772144E+02  0.00000000000E+00 0.  1.
</event>
<event>
 8    1  0.2432279E-006  0.9118800E+02  0.7816164E-02  0.1184000E+00
        -11   -1    0    0    0    0  0.00000000000E+00  0.00000000000E+00  0.45593999997E+02  0.45594000000E+02  0.51100000000E-03 0.  1.
         11   -1    0    0    0    0 -0.00000000000E+00 -0.00000000000E+00 -0.45593999997E+02  0.45594000000E+02  0.51100000000E-03 0. -1.
         23    2    1    2    0    0  0.88817841970E-15  0.00000000000E+00  0.00000000000E+00  0.91188000000E+02  0.91188000000E+02 0.  0.
    9900012    2    3    3    0    0 -0.34363715383E+01  0.34684149691E+02  0.11873507708E+02  0.54367094601E+02  0.40000023761E+02 0.  0.
         12    1    3    3    0    0  0.34363715383E+01 -0.34684149691E+02 -0.11873507708E+02  0.36820905399E+02  0.00000000000E+00 0. -1.
         11    1    4    4    0    0  0.24789852606E+01 -0.22851339786E+01  0.11858446518E+02  0.12328420795E+02  0.51100000000E-03 0. -1.
        -11    1    4    4    0    0 -0.11868056310E+02  0.28077475596E+02 -0.37116915628E+01  0.30707849988E+02  0.51100000000E-03 0.  1.
        -12    1    4    4    0    0  0.59526995110E+01  0.88918080741E+01  0.37267527532E+01  0.11330823817E+02  0.00000000000E+00 0.  1.
</event>
<event>
 8    1  0.2432279E-006  0.9118800E+02  0.7816164E-02  0.1184000E+00
        -11   -1    0    0    0    0  0.00000000000E+00  0.00000000000E+00  0.45593999997E+02  0.45594000000E+02  0.51100000000E-03 0. -1.
         11   -1    0    0    0    0 -0.00000000000E+00 -0.00000000000E+00 -0.45593999997E+02  0.45594000000E+02  0.51100000000E-03 0.  1.
         23    2    1    2    0    0 -0.35527136788E-14  0.00000000000E+00  0.88817841970E-15  0.91188000000E+02  0.91188000000E+02 0.  0.
    9900012    2    3    3    0    0 -0.30659818610E+02  0.18976083327E+02  0.74607894622E+01  0.54367087531E+02  0.40000007646E+02 0.  0.
         12    1    3    3    0    0  0.30659818610E+02 -0.18976083327E+02 -0.74607894622E+01  0.36820912469E+02  0.00000000000E+00 0. -1.
         11    1    4    4    0    0 -0.23812867320E+02  0.70583107663E+01 -0.11346337852E+02  0.27305892840E+02  0.51100000000E-03 0. -1.
        -11    1    4    4    0    0 -0.10381061230E+02  0.46644194263E+01  0.11393087143E+02  0.16103592014E+02  0.51100000000E-03 0.  1.
         12    1    4    4    0    0  0.35341099408E+01  0.72533531346E+01  0.74140401714E+01  0.10957602677E+02  0.00000000000E+00 0. -1.
</event>
<event>
 8    1  0.2432279E-006  0.9118800E+02  0.7816164E-02  0.1184000E+00
        -11   -1    0    0    0    0  0.00000000000E+00  0.00000000000E+00  0.45593999997E+02  0.45594000000E+02  0.51100000000E-03 0.  1.
         11   -1    0    0    0    0 -0.00000000000E+00 -0.00000000000E+00 -0.45593999997E+02  0.45594000000E+02  0.51100000000E-03 0. -1.
         23    2    1    2    0    0  0.35527136788E-14 -0.35527136788E-14 -0.88817841970E-15  0.91188000000E+02  0.91188000000E+02 0.  0.
    9900012    2    3    3    0    0  0.24499316396E+02 -0.26550689350E+02 -0.71149659049E+01  0.54367104456E+02  0.40000046227E+02 0.  0.
         12    1    3    3    0    0 -0.24499316396E+02  0.26550689350E+02  0.71149659049E+01  0.36820895544E+02  0.00000000000E+00 0. -1.
         11    1    4    4    0    0  0.24115974853E+01  0.56866808559E+01 -0.39582985811E+01  0.73363662331E+01  0.51100000000E-03 0. -1.
        -11    1    4    4    0    0 -0.31499583439E+01 -0.74082605602E+00 -0.57382145446E+01  0.65877285337E+01  0.51100000000E-03 0.  1.
        -12    1    4    4    0    0  0.25237677255E+02 -0.31496544150E+02  0.25815472207E+01  0.40443009689E+02  0.00000000000E+00 0.  1.
</event>
<event>
 8    1  0.2432279E-006  0.9118800E+02  0.7816164E-02  0.1184000E+00
        -11   -1    0    0    0    0  0.00000000000E+00  0.00000000000E+00  0.45593999997E+02  0.45594000000E+02  0.51100000000E-03 0. -1.
         11   -1    0    0    0    0 -0.00000000000E+00 -0.00000000000E+00 -0.45593999997E+02  0.45594000000E+02  0.51100000000E-03 0.  1.
         23    2    1    2    0    0  0.00000000000E+00  0.35527136788E-14  0.00000000000E+00  0.91188000000E+02  0.91188000000E+02 0.  0.
    9900012    2    3    3    0    0 -0.50142255011E+01 -0.16117518420E+02 -0.32724157899E+02  0.54366981986E+02  0.39999767032E+02 0.  0.
         12    1    3    3    0    0  0.50142255011E+01  0.16117518420E+02  0.32724157899E+02  0.36821018014E+02  0.00000000000E+00 0. -1.
         11    1    4    4    0    0 -0.29112392366E+01 -0.11625804432E+02 -0.67133855448E+01  0.13736964305E+02  0.51100000000E-03 0. -1.
        -11    1    4    4    0    0 -0.47726866941E+01 -0.99492941879E+01 -0.30912909360E+02  0.32823390417E+02  0.51100000000E-03 0.  1.
         12    1    4    4    0    0  0.26697004297E+01  0.54575801998E+01  0.49021370053E+01  0.78066272640E+01  0.00000000000E+00 0. -1.
</event>
<event>
 8    1  0.2432279E-006  0.9118800E+02  0.7816164E-02  0.1184000E+00
        -11   -1    0    0    0    0  0.00000000000E+00  0.00000000000E+00  0.45593999997E+02  0.45594000000E+02  0.51100000000E-03 0. -1.
         11   -1    0    0    0    0 -0.00000000000E+00 -0.00000000000E+00 -0.45593999997E+02  0.45594000000E+02  0.51100000000E-03 0.  1.
         23    2    1    2    0    0  0.00000000000E+00 -0.88817841970E-15  0.00000000000E+00  0.91188000000E+02  0.91188000000E+02 0.  0.
    9900012    2    3    3    0    0 -0.95841461334E+01  0.12402550178E+01 -0.35530082845E+02  0.54367070128E+02  0.39999967971E+02 0.  0.
         12    1    3    3    0    0  0.95841461334E+01 -0.12402550178E+01  0.35530082845E+02  0.36820929872E+02  0.00000000000E+00 0. -1.
         11    1    4    4    0    0 -0.11914171692E+02 -0.11075624565E+02 -0.19217466570E+02  0.25177926210E+02  0.51100000000E-03 0. -1.
        -11    1    4    4    0    0 -0.92459774602E+01  0.59418383599E+01 -0.73959619860E+01  0.13247407152E+02  0.51100000000E-03 0.  1.
        -12    1    4    4    0    0  0.11576003019E+02  0.63740412224E+01 -0.89166542898E+01  0.15941736766E+02  0.00000000000E+00 0.  1.
</event>
<event>
 8    1  0.2432279E-006  0.9118800E+02  0.7816164E-02  0.1184000E+00
        -11   -1    0    0    0    0  0.00000000000E+00  0.00000000000E+00  0.45593999997E+02  0.45594000000E+02  0.51100000000E-03 0.  1.
         11   -1    0    0    0    0 -0.00000000000E+00 -0.00000000000E+00 -0.45593999997E+02  0.45594000000E+02  0.51100000000E-03 0. -1.
         23    2    1    2    0    0 -0.88817841970E-15  0.35527136788E-14 -0.35527136788E-14  0.91188000000E+02  0.91188000000E+02 0.  0.
    9900012    2    3    3    0    0 -0.78992719122E+01  0.21838909594E+02 -0.28573492576E+02  0.54367069173E+02  0.39999965794E+02 0.  0.
        -12    1    3    3    0    0  0.78992719122E+01 -0.21838909594E+02  0.28573492576E+02  0.36820930827E+02  0.00000000000E+00 0.  1.
         11    1    4    4    0    0 -0.48981379013E+01  0.78101743605E+00  0.32831038412E+01  0.59481521692E+01  0.51100000000E-03 0. -1.
        -11    1    4    4    0    0  0.59420407387E+01  0.12964288081E+02  0.10027527126E+00  0.14261510052E+02  0.51100000000E-03 0.  1.
         12    1    4    4    0    0 -0.89431747496E+01  0.80936040771E+01 -0.31956871688E+02  0.34157406951E+02  0.00000000000E+00 0. -1.
</event>
<event>
 8    1  0.2432279E-006  0.9118800E+02  0.7816164E-02  0.1184000E+00
        -11   -1    0    0    0    0  0.00000000000E+00  0.00000000000E+00  0.45593999997E+02  0.45594000000E+02  0.51100000000E-03 0. -1.
         11   -1    0    0    0    0 -0.00000000000E+00 -0.00000000000E+00 -0.45593999997E+02  0.45594000000E+02  0.51100000000E-03 0.  1.
         23    2    1    2    0    0  0.35527136788E-14  0.00000000000E+00 -0.35527136788E-14  0.91188000000E+02  0.91188000000E+02 0.  0.
    9900012    2    3    3    0    0  0.19732502426E+02  0.61097149030E+01 -0.30480793387E+02  0.54367095153E+02  0.40000025021E+02 0.  0.
         12    1    3    3    0    0 -0.19732502426E+02 -0.61097149030E+01  0.30480793387E+02  0.36820904847E+02  0.00000000000E+00 0. -1.
         11    1    4    4    0    0 -0.35362046769E+01 -0.90877078983E+01 -0.23202803533E+01  0.10023715855E+02  0.51100000000E-03 0. -1.
        -11    1    4    4    0    0  0.23757524665E+02  0.58110691359E+01 -0.23220975755E+02  0.33725394260E+02  0.51100000000E-03 0.  1.
        -12    1    4    4    0    0 -0.48881756216E+00  0.93863536653E+01 -0.49395372787E+01  0.10617985038E+02  0.00000000000E+00 0.  1.
</event>
<event>
 8    1  0.2432279E-006  0.9118800E+02  0.7816164E-02  0.1184000E+00
        -11   -1    0    0    0    0  0.00000000000E+00  0.00000000000E+00  0.45593999997E+02  0.45594000000E+02  0.51100000000E-03 0. -1.
         11   -1    0    0    0    0 -0.00000000000E+00 -0.00000000000E+00 -0.45593999997E+02  0.45594000000E+02  0.51100000000E-03 0.  1.
         23    2    1    2    0    0  0.00000000000E+00  0.17763568394E-14 -0.71054273576E-14  0.91188000000E+02  0.91188000000E+02 0.  0.
    9900012    2    3    3    0    0  0.15194618091E+02  0.97518216654E+01 -0.32090597691E+02  0.54367069745E+02  0.39999967097E+02 0.  0.
         12    1    3    3    0    0 -0.15194618091E+02 -0.97518216654E+01  0.32090597691E+02  0.36820930255E+02  0.00000000000E+00 0. -1.
         11    1    4    4    0    0  0.15889165168E+01 -0.95422736396E+01  0.25622796358E+01  0.10007243332E+02  0.51100000000E-03 0. -1.
        -11    1    4    4    0    0  0.15407266674E+02  0.14957227910E+02 -0.21470162125E+02  0.30365612048E+02  0.51100000000E-03 0.  1.
        -12    1    4    4    0    0 -0.18015650992E+01  0.43368673950E+01 -0.13182715202E+02  0.13994214365E+02  0.00000000000E+00 0.  1.
</event>
<event>
 8    1  0.2432279E-006  0.9118800E+02  0.7816164E-02  0.1184000E+00
        -11   -1    0    0    0    0  0.00000000000E+00  0.00000000000E+00  0.45593999997E+02  0.45594000000E+02  0.51100000000E-03 0.  1.
         11   -1    0    0    0    0 -0.00000000000E+00 -0.00000000000E+00 -0.45593999997E+02  0.45594000000E+02  0.51100000000E-03 0. -1.
         23    2    1    2    0    0 -0.35527136788E-14 -0.12628786905E-14  0.00000000000E+00  0.91188000000E+02  0.91188000000E+02 0.  0.
    9900012    2    3    3    0    0  0.31455484202E+02 -0.95627616897E-01  0.19139581939E+02  0.54367078938E+02  0.39999988055E+02 0.  0.
         12    1    3    3    0    0 -0.31455484202E+02  0.95627616897E-01 -0.19139581939E+02  0.36820921062E+02  0.00000000000E+00 0. -1.
         11    1    4    4    0    0  0.16795237183E+02  0.97371467354E+01  0.51483495574E+01  0.20084758450E+02  0.51100000000E-03 0. -1.
        -11    1    4    4    0    0  0.21924685456E+02 -0.95894672904E+01  0.11859662964E+02  0.26707701532E+02  0.51100000000E-03 0.  1.
        -12    1    4    4    0    0 -0.72644384370E+01 -0.24330706184E+00  0.21315694184E+01  0.75746189552E+01  0.00000000000E+00 0.  1.
</event>
<event>
 8    1  0.2432279E-006  0.9118800E+02  0.7816164E-02  0.1184000E+00
        -11   -1    0    0    0    0  0.00000000000E+00  0.00000000000E+00  0.45593999997E+02  0.45594000000E+02  0.51100000000E-03 0.  1.
         11   -1    0    0    0    0 -0.00000000000E+00 -0.00000000000E+00 -0.45593999997E+02  0.45594000000E+02  0.51100000000E-03 0. -1.
         23    2    1    2    0    0  0.00000000000E+00  0.00000000000E+00 -0.17763568394E-14  0.91188000000E+02  0.91188000000E+02 0.  0.
    9900012    2    3    3    0    0 -0.47015737804E+01  0.33306996015E+02 -0.14977281951E+02  0.54367085370E+02  0.40000002717E+02 0.  0.
        -12    1    3    3    0    0  0.47015737804E+01 -0.33306996015E+02  0.14977281951E+02  0.36820914630E+02  0.00000000000E+00 0.  1.
         11    1    4    4    0    0  0.92722492433E+01  0.16304741722E+02 -0.75743587566E+01  0.20228448271E+02  0.51100000000E-03 0. -1.
        -11    1    4    4    0    0 -0.61869103744E+01  0.15668360483E+02 -0.15452779340E+02  0.22859653755E+02  0.51100000000E-03 0.  1.
        -12    1    4    4    0    0 -0.77869126492E+01  0.13338938109E+01  0.80498561454E+01  0.11278983344E+02  0.00000000000E+00 0.  1.
</event>
<event>
 8    1  0.2432279E-006  0.9118800E+02  0.7816164E-02  0.1184000E+00
        -11   -1    0    0    0    0  0.00000000000E+00  0.00000000000E+00  0.45593999997E+02  0.45594000000E+02  0.51100000000E-03 0.  1.
         11   -1    0    0    0    0 -0.00000000000E+00 -0.00000000000E+00 -0.45593999997E+02  0.45594000000E+02  0.51100000000E-03 0. -1.
         23    2    1    2    0    0 -0.35527136788E-14 -0.11102230246E-15  0.00000000000E+00  0.91188000000E+02  0.91188000000E+02 0.  0.
    9900012    2    3    3    0    0 -0.25852694406E+02  0.96531065905E+00  0.26200901613E+02  0.54367070109E+02  0.39999967928E+02 0.  0.
         12    1    3    3    0    0  0.25852694406E+02 -0.96531065905E+00 -0.26200901613E+02  0.36820929891E+02  0.00000000000E+00 0. -1.
         11    1    4    4    0    0 -0.14838623447E+02  0.26072954888E+01 -0.29613446166E+01  0.15354227358E+02  0.51100000000E-03 0. -1.
        -11    1    4    4    0    0 -0.59027431483E+01  0.90666999350E-01  0.32256145890E+02  0.32791912800E+02  0.51100000000E-03 0.  1.
        -12    1    4    4    0    0 -0.51113278100E+01 -0.17326518291E+01 -0.30938996600E+01  0.62209299505E+01  0.00000000000E+00 0.  1.
</event>
<event>
 8    1  0.2432279E-006  0.9118800E+02  0.7816164E-02  0.1184000E+00
        -11   -1    0    0    0    0  0.00000000000E+00  0.00000000000E+00  0.45593999997E+02  0.45594000000E+02  0.51100000000E-03 0.  1.
         11   -1    0    0    0    0 -0.00000000000E+00 -0.00000000000E+00 -0.45593999997E+02  0.45594000000E+02  0.51100000000E-03 0. -1.
         23    2    1    2    0    0  0.22204460493E-15 -0.17763568394E-14  0.00000000000E+00  0.91188000000E+02  0.91188000000E+02 0.  0.
    9900012    2    3    3    0    0 -0.49171602151E+00 -0.14687407981E+02 -0.33761191748E+02  0.54367084665E+02  0.40000001112E+02 0.  0.
        -12    1    3    3    0    0  0.49171602151E+00  0.14687407981E+02  0.33761191748E+02  0.36820915335E+02  0.00000000000E+00 0.  1.
         11    1    4    4    0    0 -0.25490301798E+01 -0.80806614527E+01 -0.43852368496E+00  0.84845122225E+01  0.51100000000E-03 0. -1.
        -11    1    4    4    0    0 -0.11624203371E+02 -0.10335230350E+02 -0.97017761957E+01  0.18332036221E+02  0.51100000000E-03 0.  1.
         12    1    4    4    0    0  0.13681517529E+02  0.37284838214E+01 -0.23620891867E+02  0.27550536222E+02  0.00000000000E+00 0. -1.
</event>
<event>
 8    1  0.2432279E-006  0.9118800E+02  0.7816164E-02  0.1184000E+00
        -11   -1    0    0    0    0  0.00000000000E+00  0.00000000000E+00  0.45593999997E+02  0.45594000000E+02  0.51100000000E-03 0.  1.
         11   -1    0    0    0    0 -0.00000000000E+00 -0.00000000000E+00 -0.45593999997E+02  0.45594000000E+02  0.51100000000E-03 0. -1.
         23    2    1    2    0    0  0.00000000000E+00 -0.17763568394E-14 -0.35527136788E-14  0.91188000000E+02  0.91188000000E+02 0.  0.
    9900012    2    3    3    0    0 -0.24198332477E+02 -0.34016890839E+01  0.27543357822E+02  0.54367253900E+02  0.40000386913E+02 0.  0.
         12    1    3    3    0    0  0.24198332477E+02  0.34016890839E+01 -0.27543357822E+02  0.36820746100E+02  0.00000000000E+00 0. -1.
         11    1    4    4    0    0 -0.13656554295E+02 -0.19275363044E+02  0.47205082552E+01  0.24089921007E+02  0.51100000000E-03 0. -1.
        -11    1    4    4    0    0 -0.53809287657E+01  0.81650205788E+01  0.73355814393E+01  0.12224267289E+02  0.51100000000E-03 0.  1.
         12    1    4    4    0    0 -0.51608494159E+01  0.77086533810E+01  0.15487268128E+02  0.18053065604E+02  0.00000000000E+00 0. -1.
</event>
<event>
 8    1  0.2432279E-006  0.9118800E+02  0.7816164E-02  0.1184000E+00
        -11   -1    0    0    0    0  0.00000000000E+00  0.00000000000E+00  0.45593999997E+02  0.45594000000E+02  0.51100000000E-03 0. -1.
         11   -1    0    0    0    0 -0.00000000000E+00 -0.00000000000E+00 -0.45593999997E+02  0.45594000000E+02  0.51100000000E-03 0.  1.
         23    2    1    2    0    0  0.00000000000E+00  0.00000000000E+00  0.35527136788E-14  0.91188000000E+02  0.91188000000E+02 0.  0.
    9900012    2    3    3    0    0 -0.25202127498E+02  0.56713331494E+01  0.26238689563E+02  0.54367080944E+02  0.39999992628E+02 0.  0.
        -12    1    3    3    0    0  0.25202127498E+02 -0.56713331494E+01 -0.26238689563E+02  0.36820919056E+02  0.00000000000E+00 0.  1.
         11    1    4    4    0    0 -0.76572237036E+01  0.38100858396E-01  0.26532930044E+02  0.27615772731E+02  0.51100000000E-03 0. -1.
        -11    1    4    4    0    0 -0.20847805995E+01  0.25795146238E+01  0.82026029501E+01  0.88477625003E+01  0.51100000000E-03 0.  1.
        -12    1    4    4    0    0 -0.15460123195E+02  0.30537176672E+01 -0.84968434313E+01  0.17903545713E+02  0.00000000000E+00 0.  1.
</event>
<event>
 8    1  0.2432279E-006  0.9118800E+02  0.7816164E-02  0.1184000E+00
        -11   -1    0    0    0    0  0.00000000000E+00  0.00000000000E+00  0.45593999997E+02  0.45594000000E+02  0.51100000000E-03 0.  1.
         11   -1    0    0    0    0 -0.00000000000E+00 -0.00000000000E+00 -0.45593999997E+02  0.45594000000E+02  0.51100000000E-03 0. -1.
         23    2    1    2    0    0 -0.22204460493E-14  0.00000000000E+00  0.00000000000E+00  0.91188000000E+02  0.91188000000E+02 0.  0.
    9900012    2    3    3    0    0  0.19803255214E+01 -0.36335215871E+02 -0.56231392789E+01  0.54366955787E+02  0.39999707306E+02 0.  0.
         12    1    3    3    0    0 -0.19803255214E+01  0.36335215871E+02  0.56231392789E+01  0.36821044213E+02  0.00000000000E+00 0. -1.
         11    1    4    4    0    0 -0.16124715043E+02 -0.61774649728E+01  0.34989704437E+01  0.17618464835E+02  0.51100000000E-03 0. -1.
        -11    1    4    4    0    0  0.88135867086E+01 -0.18663916749E+02 -0.71199584537E+01  0.21833801953E+02  0.51100000000E-03 0.  1.
         12    1    4    4    0    0  0.92914538561E+01 -0.11493834149E+02 -0.20021512689E+01  0.14914688998E+02  0.00000000000E+00 0. -1.
</event>
<event>
 8    1  0.2432279E-006  0.9118800E+02  0.7816164E-02  0.1184000E+00
        -11   -1    0    0    0    0  0.00000000000E+00  0.00000000000E+00  0.45593999997E+02  0.45594000000E+02  0.51100000000E-03 0.  1.
         11   -1    0    0    0    0 -0.00000000000E+00 -0.00000000000E+00 -0.45593999997E+02  0.45594000000E+02  0.51100000000E-03 0. -1.
         23    2    1    2    0    0  0.00000000000E+00  0.00000000000E+00 -0.17763568394E-14  0.91188000000E+02  0.91188000000E+02 0.  0.
    9900012    2    3    3    0    0  0.32875471835E+02  0.11315692427E+02 -0.12121804968E+02  0.54367086117E+02  0.40000004421E+02 0.  0.
        -12    1    3    3    0    0 -0.32875471835E+02 -0.11315692427E+02  0.12121804968E+02  0.36820913883E+02  0.00000000000E+00 0.  1.
         11    1    4    4    0    0  0.15613087944E+02  0.41487281540E+01 -0.16849633251E+02  0.23342891882E+02  0.51100000000E-03 0. -1.
        -11    1    4    4    0    0  0.37340278245E+00  0.48766114515E+01 -0.82576923028E+01  0.95974085730E+01  0.51100000000E-03 0.  1.
        -12    1    4    4    0    0  0.16888981109E+02  0.22903528215E+01  0.12985520586E+02  0.21426785663E+02  0.00000000000E+00 0.  1.
</event>
<event>
 8    1  0.2432279E-006  0.9118800E+02  0.7816164E-02  0.1184000E+00
        -11   -1    0    0    0    0  0.00000000000E+00  0.00000000000E+00  0.45593999997E+02  0.45594000000E+02  0.51100000000E-03 0.  1.
         11   -1    0    0    0    0 -0.00000000000E+00 -0.00000000000E+00 -0.45593999997E+02  0.45594000000E+02  0.51100000000E-03 0. -1.
         23    2    1    2    0    0 -0.35527136788E-14  0.17763568394E-14  0.00000000000E+00  0.91188000000E+02  0.91188000000E+02 0.  0.
    9900012    2    3    3    0    0  0.21566574285E+02 -0.74854129848E+01  0.28889983317E+02  0.54367086513E+02  0.40000005324E+02 0.  0.
         12    1    3    3    0    0 -0.21566574285E+02  0.74854129848E+01 -0.28889983317E+02  0.36820913487E+02  0.00000000000E+00 0. -1.
         11    1    4    4    0    0 -0.81593868119E+00  0.42143766303E+01 -0.20943864493E+01  0.47763146016E+01  0.51100000000E-03 0. -1.
        -11    1    4    4    0    0 -0.27013092975E+01 -0.12198562656E+02  0.49609733643E+01  0.13442963206E+02  0.51100000000E-03 0.  1.
         12    1    4    4    0    0  0.25083822263E+02  0.49877304057E+00  0.26023396402E+02  0.36147808705E+02  0.00000000000E+00 0. -1.
</event>
<event>
 8    1  0.2432279E-006  0.9118800E+02  0.7816164E-02  0.1184000E+00
        -11   -1    0    0    0    0  0.00000000000E+00  0.00000000000E+00  0.45593999997E+02  0.45594000000E+02  0.51100000000E-03 0.  1.
         11   -1    0    0    0    0 -0.00000000000E+00 -0.00000000000E+00 -0.45593999997E+02  0.45594000000E+02  0.51100000000E-03 0. -1.
         23    2    1    2    0    0  0.17763568394E-14  0.35527136788E-14  0.00000000000E+00  0.91188000000E+02  0.91188000000E+02 0.  0.
    9900012    2    3    3    0    0 -0.74012239104E+01  0.25393431298E+02 -0.25615918327E+02  0.54367085560E+02  0.40000003151E+02 0.  0.
        -12    1    3    3    0    0  0.74012239104E+01 -0.25393431298E+02  0.25615918327E+02  0.36820914440E+02  0.00000000000E+00 0.  1.
         11    1    4    4    0    0 -0.47288122185E+01  0.12002234161E+02  0.24272620483E+01  0.13126571951E+02  0.51100000000E-03 0. -1.
        -11    1    4    4    0    0  0.39101296202E+01 -0.31502121993E+01 -0.21805784111E+02  0.22376442333E+02  0.51100000000E-03 0.  1.
        -12    1    4    4    0    0 -0.65825413121E+01  0.16541409336E+02 -0.62373962640E+01  0.18864071276E+02  0.00000000000E+00 0.  1.
</event>
<event>
 8    1  0.2432279E-006  0.9118800E+02  0.7816164E-02  0.1184000E+00
        -11   -1    0    0    0    0  0.00000000000E+00  0.00000000000E+00  0.45593999997E+02  0.45594000000E+02  0.51100000000E-03 0.  1.
         11   -1    0    0    0    0 -0.00000000000E+00 -0.00000000000E+00 -0.45593999997E+02  0.45594000000E+02  0.51100000000E-03 0. -1.
         23    2    1    2    0    0  0.00000000000E+00 -0.88817841970E-15  0.71054273576E-14  0.91188000000E+02  0.91188000000E+02 0.  0.
    9900012    2    3    3    0    0 -0.47398533915E+01 -0.59475368829E+01 -0.36026953305E+02  0.54367071582E+02  0.39999971285E+02 0.  0.
        -12    1    3    3    0    0  0.47398533915E+01  0.59475368829E+01  0.36026953305E+02  0.36820928418E+02  0.00000000000E+00 0.  1.
         11    1    4    4    0    0  0.34084841103E+01 -0.56431273959E+00 -0.23615661521E+02  0.23867041755E+02  0.51100000000E-03 0.  1.
        -11    1    4    4    0    0 -0.11779768437E+02  0.38495009731E+01 -0.15741890080E+02  0.20034687563E+02  0.51100000000E-03 0. -1.
        -12    1    4    4    0    0  0.36314309354E+01 -0.92327251164E+01  0.33305982958E+01  0.10465342265E+02  0.00000000000E+00 0.  1.
</event>
<event>
 8    1  0.2432279E-006  0.9118800E+02  0.7816164E-02  0.1184000E+00
        -11   -1    0    0    0    0  0.00000000000E+00  0.00000000000E+00  0.45593999997E+02  0.45594000000E+02  0.51100000000E-03 0. -1.
         11   -1    0    0    0    0 -0.00000000000E+00 -0.00000000000E+00 -0.45593999997E+02  0.45594000000E+02  0.51100000000E-03 0.  1.
         23    2    1    2    0    0 -0.71054273576E-14  0.00000000000E+00  0.35527136788E-14  0.91188000000E+02  0.91188000000E+02 0.  0.
    9900012    2    3    3    0    0 -0.32379474707E+02  0.30132139214E+01  0.17270496264E+02  0.54367083639E+02  0.39999998772E+02 0.  0.
        -12    1    3    3    0    0  0.32379474707E+02 -0.30132139214E+01 -0.17270496264E+02  0.36820916361E+02  0.00000000000E+00 0.  1.
         11    1    4    4    0    0 -0.11131089482E+02  0.11339840029E+01  0.64623614835E+01  0.12920881896E+02  0.51100000000E-03 0. -1.
        -11    1    4    4    0    0  0.62009154886E+01 -0.62126133356E+01  0.93016776955E+01  0.12789414590E+02  0.51100000000E-03 0.  1.
        -12    1    4    4    0    0 -0.27449300714E+02  0.80918432541E+01  0.15064570847E+01  0.28656787152E+02  0.00000000000E+00 0.  1.
</event>
<event>
 8    1  0.2432279E-006  0.9118800E+02  0.7816164E-02  0.1184000E+00
        -11   -1    0    0    0    0  0.00000000000E+00  0.00000000000E+00  0.45593999997E+02  0.45594000000E+02  0.51100000000E-03 0. -1.
         11   -1    0    0    0    0 -0.00000000000E+00 -0.00000000000E+00 -0.45593999997E+02  0.45594000000E+02  0.51100000000E-03 0.  1.
         23    2    1    2    0    0 -0.71054273576E-14 -0.17763568394E-14 -0.71054273576E-14  0.91188000000E+02  0.91188000000E+02 0.  0.
    9900012    2    3    3    0    0  0.24924053590E+02  0.92750888843E+01  0.25466396961E+02  0.54367175793E+02  0.40000208854E+02 0.  0.
        -12    1    3    3    0    0 -0.24924053590E+02 -0.92750888843E+01 -0.25466396961E+02  0.36820824207E+02  0.00000000000E+00 0.  1.
         11    1    4    4    0    0 -0.26440987573E+01  0.98410978312E+01 -0.41008199169E+00  0.10198364195E+02  0.51100000000E-03 0.  1.
        -11    1    4    4    0    0  0.53356154088E+01  0.91079246566E+01  0.33533003350E+01  0.11075545438E+02  0.51100000000E-03 0. -1.
         12    1    4    4    0    0  0.22232536938E+02 -0.96739336034E+01  0.22523178617E+02  0.33093266160E+02  0.00000000000E+00 0. -1.
</event>
<event>
 8    1  0.2432279E-006  0.9118800E+02  0.7816164E-02  0.1184000E+00
        -11   -1    0    0    0    0  0.00000000000E+00  0.00000000000E+00  0.45593999997E+02  0.45594000000E+02  0.51100000000E-03 0. -1.
         11   -1    0    0    0    0 -0.00000000000E+00 -0.00000000000E+00 -0.45593999997E+02  0.45594000000E+02  0.51100000000E-03 0.  1.
         23    2    1    2    0    0  0.00000000000E+00  0.00000000000E+00  0.00000000000E+00  0.91188000000E+02  0.91188000000E+02 0.  0.
    9900012    2    3    3    0    0 -0.33478516206E+02 -0.92439797150E+01 -0.12227704177E+02  0.54367096185E+02  0.40000027373E+02 0.  0.
         12    1    3    3    0    0  0.33478516206E+02  0.92439797150E+01  0.12227704177E+02  0.36820903815E+02  0.00000000000E+00 0. -1.
         11    1    4    4    0    0 -0.14937999701E+02  0.24153744264E+01  0.78637016850E+01  0.17053318538E+02  0.51100000000E-03 0. -1.
        -11    1    4    4    0    0 -0.15965581476E+02 -0.15227144401E+01 -0.16624480142E+01  0.16123963061E+02  0.51100000000E-03 0.  1.
         12    1    4    4    0    0 -0.25749350285E+01 -0.10136639701E+02 -0.18428957848E+02  0.21189814586E+02  0.00000000000E+00 0. -1.
</event>
<event>
 8    1  0.2432279E-006  0.9118800E+02  0.7816164E-02  0.1184000E+00
        -11   -1    0    0    0    0  0.00000000000E+00  0.00000000000E+00  0.45593999997E+02  0.45594000000E+02  0.51100000000E-03 0. -1.
         11   -1    0    0    0    0 -0.00000000000E+00 -0.00000000000E+00 -0.45593999997E+02  0.45594000000E+02  0.51100000000E-03 0.  1.
         23    2    1    2    0    0 -0.17763568394E-14  0.00000000000E+00  0.00000000000E+00  0.91188000000E+02  0.91188000000E+02 0.  0.
    9900012    2    3    3    0    0 -0.14137171841E+02  0.87398286256E+01  0.32856280912E+02  0.54367089807E+02  0.40000012832E+02 0.  0.
        -12    1    3    3    0    0  0.14137171841E+02 -0.87398286256E+01 -0.32856280912E+02  0.36820910193E+02  0.00000000000E+00 0.  1.
         11    1    4    4    0    0 -0.11250169150E+02 -0.77109163323E+01  0.97726960642E+01  0.16778859473E+02  0.51100000000E-03 0. -1.
        -11    1    4    4    0    0 -0.77282684689E+01  0.20305915687E+02  0.11813780407E+02  0.24730987712E+02  0.51100000000E-03 0.  1.
         12    1    4    4    0    0  0.48412657779E+01 -0.38551707295E+01  0.11269804441E+02  0.12857242622E+02  0.00000000000E+00 0. -1.
</event>
<event>
 8    1  0.2432279E-006  0.9118800E+02  0.7816164E-02  0.1184000E+00
        -11   -1    0    0    0    0  0.00000000000E+00  0.00000000000E+00  0.45593999997E+02  0.45594000000E+02  0.51100000000E-03 0. -1.
         11   -1    0    0    0    0 -0.00000000000E+00 -0.00000000000E+00 -0.45593999997E+02  0.45594000000E+02  0.51100000000E-03 0.  1.
         23    2    1    2    0    0  0.88817841970E-15  0.71054273576E-14 -0.13322676296E-14  0.91188000000E+02  0.91188000000E+02 0.  0.
    9900012    2    3    3    0    0 -0.72806878654E+01  0.36035821481E+02  0.20461135291E+01  0.54367144141E+02  0.40000136698E+02 0.  0.
         12    1    3    3    0    0  0.72806878654E+01 -0.36035821481E+02 -0.20461135291E+01  0.36820855859E+02  0.00000000000E+00 0. -1.
         11    1    4    4    0    0 -0.54564626472E+01  0.93510510915E+01  0.88794138934E+01  0.14002111715E+02  0.51100000000E-03 0. -1.
        -11    1    4    4    0    0 -0.10699766279E+02  0.26823575427E+02 -0.10544667942E+02  0.30743767163E+02  0.51100000000E-03 0.  1.
        -12    1    4    4    0    0  0.88755410608E+01 -0.13880503674E+00  0.37113675776E+01  0.96212652628E+01  0.00000000000E+00 0.  1.
</event>
<event>
 8    1  0.2432279E-006  0.9118800E+02  0.7816164E-02  0.1184000E+00
        -11   -1    0    0    0    0  0.00000000000E+00  0.00000000000E+00  0.45593999997E+02  0.45594000000E+02  0.51100000000E-03 0. -1.
         11   -1    0    0    0    0 -0.00000000000E+00 -0.00000000000E+00 -0.45593999997E+02  0.45594000000E+02  0.51100000000E-03 0.  1.
         23    2    1    2    0    0  0.00000000000E+00  0.17763568394E-14  0.00000000000E+00  0.91188000000E+02  0.91188000000E+02 0.  0.
    9900012    2    3    3    0    0 -0.33079689294E+02  0.15183597352E+02  0.55654229689E+01  0.54367062951E+02  0.39999951610E+02 0.  0.
        -12    1    3    3    0    0  0.33079689294E+02 -0.15183597352E+02 -0.55654229689E+01  0.36820937049E+02  0.00000000000E+00 0.  1.
         11    1    4    4    0    0 -0.26160450092E+02  0.31995236305E+00  0.98236697438E+00  0.26180843448E+02  0.51100000000E-03 0. -1.
        -11    1    4    4    0    0 -0.12832538889E+02  0.13958719285E+02 -0.22620717508E+01  0.19095467192E+02  0.51100000000E-03 0.  1.
         12    1    4    4    0    0  0.59132996878E+01  0.90492570485E+00  0.68451277454E+01  0.90907523110E+01  0.00000000000E+00 0. -1.
</event>
<event>
 8    1  0.2432279E-006  0.9118800E+02  0.7816164E-02  0.1184000E+00
        -11   -1    0    0    0    0  0.00000000000E+00  0.00000000000E+00  0.45593999997E+02  0.45594000000E+02  0.51100000000E-03 0.  1.
         11   -1    0    0    0    0 -0.00000000000E+00 -0.00000000000E+00 -0.45593999997E+02  0.45594000000E+02  0.51100000000E-03 0. -1.
         23    2    1    2    0    0  0.35527136788E-14 -0.88817841970E-15  0.71054273576E-14  0.91188000000E+02  0.91188000000E+02 0.  0.
    9900012    2    3    3    0    0  0.23422958421E+02 -0.61301693519E+01  0.27740945741E+02  0.54367163126E+02  0.40000179978E+02 0.  0.
         12    1    3    3    0    0 -0.23422958421E+02  0.61301693519E+01 -0.27740945741E+02  0.36820836874E+02  0.00000000000E+00 0. -1.
         11    1    4    4    0    0  0.47797094765E+01 -0.88958476772E+01  0.12494616100E+02  0.16065402588E+02  0.51100000000E-03 0. -1.
        -11    1    4    4    0    0  0.25368798260E+02 -0.38442098578E+01  0.10250129892E+02  0.27630038684E+02  0.51100000000E-03 0.  1.
         12    1    4    4    0    0 -0.67255493157E+01  0.66098881830E+01  0.49961997498E+01  0.10671721854E+02  0.00000000000E+00 0. -1.
</event>
<event>
 8    1  0.2432279E-006  0.9118800E+02  0.7816164E-02  0.1184000E+00
        -11   -1    0    0    0    0  0.00000000000E+00  0.00000000000E+00  0.45593999997E+02  0.45594000000E+02  0.51100000000E-03 0.  1.
         11   -1    0    0    0    0 -0.00000000000E+00 -0.00000000000E+00 -0.45593999997E+02  0.45594000000E+02  0.51100000000E-03 0. -1.
         23    2    1    2    0    0  0.13322676296E-14  0.00000000000E+00  0.88817841970E-15  0.91188000000E+02  0.91188000000E+02 0.  0.
    9900012    2    3    3    0    0 -0.12830056373E+01 -0.36641084875E+02 -0.34007181609E+01  0.54367080833E+02  0.39999992376E+02 0.  0.
         12    1    3    3    0    0  0.12830056373E+01  0.36641084875E+02  0.34007181609E+01  0.36820919167E+02  0.00000000000E+00 0. -1.
         11    1    4    4    0    0  0.95314225208E+01  0.45486373786E+01 -0.66127793714E+00  0.10581843225E+02  0.51100000000E-03 0. -1.
        -11    1    4    4    0    0 -0.69812242391E+01 -0.31649300896E+02 -0.60779816154E+01  0.32975105760E+02  0.51100000000E-03 0.  1.
         12    1    4    4    0    0 -0.38332039190E+01 -0.95404213570E+01  0.33385413916E+01  0.10810131848E+02  0.00000000000E+00 0. -1.
</event>
<event>
 8    1  0.2432279E-006  0.9118800E+02  0.7816164E-02  0.1184000E+00
        -11   -1    0    0    0    0  0.00000000000E+00  0.00000000000E+00  0.45593999997E+02  0.45594000000E+02  0.51100000000E-03 0. -1.
         11   -1    0    0    0    0 -0.00000000000E+00 -0.00000000000E+00 -0.45593999997E+02  0.45594000000E+02  0.51100000000E-03 0.  1.
         23    2    1    2    0    0 -0.17763568394E-14  0.35527136788E-14  0.00000000000E+00  0.91188000000E+02  0.91188000000E+02 0.  0.
    9900012    2    3    3    0    0 -0.14820392143E+02  0.25380135102E+02  0.22180684175E+02  0.54367108763E+02  0.40000056047E+02 0.  0.
        -12    1    3    3    0    0  0.14820392143E+02 -0.25380135102E+02 -0.22180684175E+02  0.36820891237E+02  0.00000000000E+00 0.  1.
         11    1    4    4    0    0  0.47416303356E+01  0.11456702312E+02  0.40262971081E+01  0.13036493193E+02  0.51100000000E-03 0. -1.
        -11    1    4    4    0    0 -0.60237644051E+01  0.19613680593E+02  0.39402234628E+01  0.20892763465E+02  0.51100000000E-03 0.  1.
        -12    1    4    4    0    0 -0.13538258073E+02 -0.56902478032E+01  0.14214163604E+02  0.20437852105E+02  0.00000000000E+00 0.  1.
</event>
<event>
 8    1  0.2432279E-006  0.9118800E+02  0.7816164E-02  0.1184000E+00
        -11   -1    0    0    0    0  0.00000000000E+00  0.00000000000E+00  0.45593999997E+02  0.45594000000E+02  0.51100000000E-03 0. -1.
         11   -1    0    0    0    0 -0.00000000000E+00 -0.00000000000E+00 -0.45593999997E+02  0.45594000000E+02  0.51100000000E-03 0.  1.
         23    2    1    2    0    0  0.00000000000E+00  0.00000000000E+00  0.88817841970E-15  0.91188000000E+02  0.91188000000E+02 0.  0.
    9900012    2    3    3    0    0  0.50427280980E+01  0.36239763602E+02 -0.41267215318E+01  0.54367090136E+02  0.40000013582E+02 0.  0.
        -12    1    3    3    0    0 -0.50427280980E+01 -0.36239763602E+02  0.41267215318E+01  0.36820909864E+02  0.00000000000E+00 0.  1.
         11    1    4    4    0    0  0.25679592148E+01  0.30107445769E+02  0.36829226236E+01  0.30440378194E+02  0.51100000000E-03 0. -1.
        -11    1    4    4    0    0  0.61405751174E+01  0.80174920319E+01 -0.13525351890E+02  0.16879632261E+02  0.51100000000E-03 0.  1.
        -12    1    4    4    0    0 -0.36658062342E+01 -0.18851741988E+01  0.57157077351E+01  0.70470796803E+01  0.00000000000E+00 0.  1.
</event>
<event>
 8    1  0.2432279E-006  0.9118800E+02  0.7816164E-02  0.1184000E+00
        -11   -1    0    0    0    0  0.00000000000E+00  0.00000000000E+00  0.45593999997E+02  0.45594000000E+02  0.51100000000E-03 0.  1.
         11   -1    0    0    0    0 -0.00000000000E+00 -0.00000000000E+00 -0.45593999997E+02  0.45594000000E+02  0.51100000000E-03 0. -1.
         23    2    1    2    0    0  0.00000000000E+00  0.35527136788E-14  0.00000000000E+00  0.91188000000E+02  0.91188000000E+02 0.  0.
    9900012    2    3    3    0    0  0.18468646456E+02  0.26075453288E+02  0.18296492197E+02  0.54367057687E+02  0.39999939610E+02 0.  0.
         12    1    3    3    0    0 -0.18468646456E+02 -0.26075453288E+02 -0.18296492197E+02  0.36820942313E+02  0.00000000000E+00 0. -1.
         11    1    4    4    0    0 -0.95794370740E+00  0.14327996262E+01 -0.68993573677E+01  0.71113784363E+01  0.51100000000E-03 0. -1.
        -11    1    4    4    0    0  0.21563927015E+02  0.23101262529E+02  0.12006611670E+02  0.33805768780E+02  0.51100000000E-03 0.  1.
         12    1    4    4    0    0 -0.21373368518E+01  0.15413911325E+01  0.13189237894E+02  0.13449910471E+02  0.00000000000E+00 0. -1.
</event>
<event>
 8    1  0.2432279E-006  0.9118800E+02  0.7816164E-02  0.1184000E+00
        -11   -1    0    0    0    0  0.00000000000E+00  0.00000000000E+00  0.45593999997E+02  0.45594000000E+02  0.51100000000E-03 0.  1.
         11   -1    0    0    0    0 -0.00000000000E+00 -0.00000000000E+00 -0.45593999997E+02  0.45594000000E+02  0.51100000000E-03 0. -1.
         23    2    1    2    0    0  0.00000000000E+00  0.44408920985E-15 -0.17763568394E-14  0.91188000000E+02  0.91188000000E+02 0.  0.
    9900012    2    3    3    0    0  0.34392729652E+02  0.19996684763E+01  0.12996971119E+02  0.54367084949E+02  0.40000001758E+02 0.  0.
        -12    1    3    3    0    0 -0.34392729652E+02 -0.19996684763E+01 -0.12996971119E+02  0.36820915051E+02  0.00000000000E+00 0.  1.
         11    1    4    4    0    0  0.17491340674E+01 -0.22284592482E+01 -0.89942918427E+01  0.94298879431E+01  0.51100000000E-03 0. -1.
        -11    1    4    4    0    0  0.10312055607E+02 -0.70111400045E+01  0.13868860927E+02  0.18650465910E+02  0.51100000000E-03 0.  1.
        -12    1    4    4    0    0  0.22331539978E+02  0.11239267729E+02  0.81224020348E+01  0.26286731095E+02  0.00000000000E+00 0.  1.
</event>
<event>
 8    1  0.2432279E-006  0.9118800E+02  0.7816164E-02  0.1184000E+00
        -11   -1    0    0    0    0  0.00000000000E+00  0.00000000000E+00  0.45593999997E+02  0.45594000000E+02  0.51100000000E-03 0.  1.
         11   -1    0    0    0    0 -0.00000000000E+00 -0.00000000000E+00 -0.45593999997E+02  0.45594000000E+02  0.51100000000E-03 0. -1.
         23    2    1    2    0    0  0.00000000000E+00  0.00000000000E+00 -0.35527136788E-14  0.91188000000E+02  0.91188000000E+02 0.  0.
    9900012    2    3    3    0    0  0.51913037899E+01  0.30835591087E+02 -0.19442034897E+02  0.54367135892E+02  0.40000117894E+02 0.  0.
        -12    1    3    3    0    0 -0.51913037899E+01 -0.30835591087E+02  0.19442034897E+02  0.36820864108E+02  0.00000000000E+00 0.  1.
         11    1    4    4    0    0  0.66696389517E+01  0.93315198427E+01 -0.24503548209E+02  0.27055225399E+02  0.51100000000E-03 0. -1.
        -11    1    4    4    0    0 -0.80886483801E+01  0.71126207887E+01  0.38119818815E+01  0.11425708434E+02  0.51100000000E-03 0.  1.
         12    1    4    4    0    0  0.66103132182E+01  0.14391450455E+02  0.12495314306E+01  0.15886202059E+02  0.00000000000E+00 0. -1.
</event>
<event>
 8    1  0.2432279E-006  0.9118800E+02  0.7816164E-02  0.1184000E+00
        -11   -1    0    0    0    0  0.00000000000E+00  0.00000000000E+00  0.45593999997E+02  0.45594000000E+02  0.51100000000E-03 0.  1.
         11   -1    0    0    0    0 -0.00000000000E+00 -0.00000000000E+00 -0.45593999997E+02  0.45594000000E+02  0.51100000000E-03 0. -1.
         23    2    1    2    0    0  0.00000000000E+00 -0.17763568394E-14  0.00000000000E+00  0.91188000000E+02  0.91188000000E+02 0.  0.
    9900012    2    3    3    0    0 -0.57447712543E+01 -0.11306499745E+02 -0.34567909581E+02  0.54367086023E+02  0.40000004208E+02 0.  0.
        -12    1    3    3    0    0  0.57447712543E+01  0.11306499745E+02  0.34567909581E+02  0.36820913977E+02  0.00000000000E+00 0.  1.
         11    1    4    4    0    0 -0.14415783187E+02 -0.14216274443E+01 -0.14922217422E+02  0.20796836359E+02  0.51100000000E-03 0. -1.
        -11    1    4    4    0    0  0.61892129638E+01 -0.86627832871E+00 -0.22845003236E+02  0.23684403483E+02  0.51100000000E-03 0.  1.
        -12    1    4    4    0    0  0.24817989685E+01 -0.90185939720E+01  0.31993110770E+01  0.98858461813E+01  0.00000000000E+00 0.  1.
</event>
<event>
 8    1  0.2432279E-006  0.9118800E+02  0.7816164E-02  0.1184000E+00
        -11   -1    0    0    0    0  0.00000000000E+00  0.00000000000E+00  0.45593999997E+02  0.45594000000E+02  0.51100000000E-03 0.  1.
         11   -1    0    0    0    0 -0.00000000000E+00 -0.00000000000E+00 -0.45593999997E+02  0.45594000000E+02  0.51100000000E-03 0. -1.
         23    2    1    2    0    0 -0.17763568394E-14  0.00000000000E+00  0.00000000000E+00  0.91188000000E+02  0.91188000000E+02 0.  0.
    9900012    2    3    3    0    0  0.13526302899E+02  0.10875768791E+02  0.32473643670E+02  0.54367071846E+02  0.39999971888E+02 0.  0.
         12    1    3    3    0    0 -0.13526302899E+02 -0.10875768791E+02 -0.32473643670E+02  0.36820928154E+02  0.00000000000E+00 0. -1.
         11    1    4    4    0    0 -0.44541767511E+01  0.13118734204E+02  0.12265833874E+02  0.18503825511E+02  0.51100000000E-03 0. -1.
        -11    1    4    4    0    0 -0.24720334581E+01  0.45082508074E+01  0.11564015775E+02  0.12655502197E+02  0.51100000000E-03 0.  1.
         12    1    4    4    0    0  0.20452513108E+02 -0.67512162205E+01  0.86437940209E+01  0.23207744138E+02  0.00000000000E+00 0. -1.
</event>
<event>
 8    1  0.2432279E-006  0.9118800E+02  0.7816164E-02  0.1184000E+00
        -11   -1    0    0    0    0  0.00000000000E+00  0.00000000000E+00  0.45593999997E+02  0.45594000000E+02  0.51100000000E-03 0. -1.
         11   -1    0    0    0    0 -0.00000000000E+00 -0.00000000000E+00 -0.45593999997E+02  0.45594000000E+02  0.51100000000E-03 0.  1.
         23    2    1    2    0    0  0.35527136788E-14  0.00000000000E+00  0.00000000000E+00  0.91188000000E+02  0.91188000000E+02 0.  0.
    9900012    2    3    3    0    0 -0.29380966934E+02 -0.18356935547E+01 -0.22117176061E+02  0.54367075708E+02  0.39999980692E+02 0.  0.
         12    1    3    3    0    0  0.29380966934E+02  0.18356935547E+01  0.22117176061E+02  0.36820924292E+02  0.00000000000E+00 0. -1.
         11    1    4    4    0    0  0.35474678166E+01 -0.49403212401E+01 -0.11098842922E+01  0.61824869809E+01  0.51100000000E-03 0. -1.
        -11    1    4    4    0    0 -0.27965042745E+02  0.11208072196E+02 -0.64658426637E+01  0.30813497362E+02  0.51100000000E-03 0.  1.
        -12    1    4    4    0    0 -0.49633920053E+01 -0.81034445107E+01 -0.14541449105E+02  0.17371091365E+02  0.00000000000E+00 0.  1.
</event>
<event>
 8    1  0.2432279E-006  0.9118800E+02  0.7816164E-02  0.1184000E+00
        -11   -1    0    0    0    0  0.00000000000E+00  0.00000000000E+00  0.45593999997E+02  0.45594000000E+02  0.51100000000E-03 0. -1.
         11   -1    0    0    0    0 -0.00000000000E+00 -0.00000000000E+00 -0.45593999997E+02  0.45594000000E+02  0.51100000000E-03 0.  1.
         23    2    1    2    0    0  0.35527136788E-14  0.35527136788E-14 -0.35527136788E-14  0.91188000000E+02  0.91188000000E+02 0.  0.
    9900012    2    3    3    0    0 -0.17603057080E+02 -0.23070819053E+02  0.22663842016E+02  0.54367081417E+02  0.39999993707E+02 0.  0.
         12    1    3    3    0    0  0.17603057080E+02  0.23070819053E+02 -0.22663842016E+02  0.36820918583E+02  0.00000000000E+00 0. -1.
         11    1    4    4    0    0  0.62903173121E+01 -0.31242334002E+01  0.96442134526E+00  0.70893606918E+01  0.51100000000E-03 0. -1.
        -11    1    4    4    0    0  0.41972034630E+01 -0.90896133984E+01 -0.24517635549E+00  0.10014873956E+02  0.51100000000E-03 0.  1.
         12    1    4    4    0    0 -0.28090577855E+02 -0.10856972255E+02  0.21944597026E+02  0.37262846770E+02  0.00000000000E+00 0. -1.
</event>
<event>
 8    1  0.2432279E-006  0.9118800E+02  0.7816164E-02  0.1184000E+00
        -11   -1    0    0    0    0  0.00000000000E+00  0.00000000000E+00  0.45593999997E+02  0.45594000000E+02  0.51100000000E-03 0. -1.
         11   -1    0    0    0    0 -0.00000000000E+00 -0.00000000000E+00 -0.45593999997E+02  0.45594000000E+02  0.51100000000E-03 0.  1.
         23    2    1    2    0    0  0.00000000000E+00  0.13322676296E-14  0.00000000000E+00  0.91188000000E+02  0.91188000000E+02 0.  0.
    9900012    2    3    3    0    0 -0.34964738573E+02  0.22279341939E+01 -0.11326154161E+02  0.54367103728E+02  0.40000044568E+02 0.  0.
        -12    1    3    3    0    0  0.34964738573E+02 -0.22279341939E+01  0.11326154161E+02  0.36820896272E+02  0.00000000000E+00 0.  1.
         11    1    4    4    0    0 -0.11036126627E+02  0.60166750889E+01 -0.39619205149E+00  0.12575907063E+02  0.51100000000E-03 0. -1.
        -11    1    4    4    0    0 -0.31896345881E+02 -0.33622114689E+01 -0.10692770257E+02  0.33808529730E+02  0.51100000000E-03 0.  1.
        -12    1    4    4    0    0  0.79677339349E+01 -0.42652942615E+00 -0.23719185237E+00  0.79826669343E+01  0.00000000000E+00 0.  1.
</event>
<event>
 8    1  0.2432279E-006  0.9118800E+02  0.7816164E-02  0.1184000E+00
        -11   -1    0    0    0    0  0.00000000000E+00  0.00000000000E+00  0.45593999997E+02  0.45594000000E+02  0.51100000000E-03 0. -1.
         11   -1    0    0    0    0 -0.00000000000E+00 -0.00000000000E+00 -0.45593999997E+02  0.45594000000E+02  0.51100000000E-03 0.  1.
         23    2    1    2    0    0 -0.35527136788E-14  0.00000000000E+00  0.17763568394E-14  0.91188000000E+02  0.91188000000E+02 0.  0.
    9900012    2    3    3    0    0  0.21936749642E+02  0.24987386089E+02 -0.15817379009E+02  0.54367083021E+02  0.39999997364E+02 0.  0.
         12    1    3    3    0    0 -0.21936749642E+02 -0.24987386089E+02  0.15817379009E+02  0.36820916979E+02  0.00000000000E+00 0. -1.
         11    1    4    4    0    0  0.12187367491E+02  0.21333443646E+02 -0.78189151879E+01  0.25783389597E+02  0.51100000000E-03 0. -1.
        -11    1    4    4    0    0  0.73252143164E+01  0.14475409439E+02 -0.33852044635E+01  0.16572744272E+02  0.51100000000E-03 0.  1.
         12    1    4    4    0    0  0.24241678344E+01 -0.10821466995E+02 -0.46132593581E+01  0.12010949152E+02  0.00000000000E+00 0. -1.
</event>
<event>
 8    1  0.2432279E-006  0.9118800E+02  0.7816164E-02  0.1184000E+00
        -11   -1    0    0    0    0  0.00000000000E+00  0.00000000000E+00  0.45593999997E+02  0.45594000000E+02  0.51100000000E-03 0. -1.
         11   -1    0    0    0    0 -0.00000000000E+00 -0.00000000000E+00 -0.45593999997E+02  0.45594000000E+02  0.51100000000E-03 0.  1.
         23    2    1    2    0    0  0.17763568394E-14 -0.17763568394E-14 -0.35527136788E-14  0.91188000000E+02  0.91188000000E+02 0.  0.
    9900012    2    3    3    0    0 -0.12998092869E+02 -0.15592389502E+02 -0.30719815827E+02  0.54367080497E+02  0.39999991609E+02 0.  0.
         12    1    3    3    0    0  0.12998092869E+02  0.15592389502E+02  0.30719815827E+02  0.36820919503E+02  0.00000000000E+00 0. -1.
         11    1    4    4    0    0 -0.12286428472E+01  0.54325748594E+01  0.20851189664E+00  0.55736801417E+01  0.51100000000E-03 0. -1.
        -11    1    4    4    0    0  0.70648403910E+01 -0.14504198063E+02 -0.68267674134E+01  0.17518232924E+02  0.51100000000E-03 0.  1.
         12    1    4    4    0    0 -0.18834290413E+02 -0.65207662984E+01 -0.24101560310E+02  0.31275167431E+02  0.00000000000E+00 0. -1.
</event>
<event>
 8    1  0.2432279E-006  0.9118800E+02  0.7816164E-02  0.1184000E+00
        -11   -1    0    0    0    0  0.00000000000E+00  0.00000000000E+00  0.45593999997E+02  0.45594000000E+02  0.51100000000E-03 0.  1.
         11   -1    0    0    0    0 -0.00000000000E+00 -0.00000000000E+00 -0.45593999997E+02  0.45594000000E+02  0.51100000000E-03 0. -1.
         23    2    1    2    0    0  0.00000000000E+00  0.44408920985E-15 -0.88817841970E-15  0.91188000000E+02  0.91188000000E+02 0.  0.
    9900012    2    3    3    0    0 -0.36547690139E+02  0.34419121833E+01 -0.28632985082E+01  0.54367097073E+02  0.40000029397E+02 0.  0.
        -12    1    3    3    0    0  0.36547690139E+02 -0.34419121833E+01  0.28632985082E+01  0.36820902927E+02  0.00000000000E+00 0.  1.
         11    1    4    4    0    0 -0.20542651728E+02  0.38123526479E+01 -0.91867391888E+00  0.20913596887E+02  0.51100000000E-03 0. -1.
        -11    1    4    4    0    0 -0.21881892938E+02 -0.29363714282E+01 -0.90690798325E+01  0.23868131996E+02  0.51100000000E-03 0.  1.
        -12    1    4    4    0    0  0.58768545261E+01  0.25659309635E+01  0.71244552431E+01  0.95853681902E+01  0.00000000000E+00 0.  1.
</event>
<event>
 8    1  0.2432279E-006  0.9118800E+02  0.7816164E-02  0.1184000E+00
        -11   -1    0    0    0    0  0.00000000000E+00  0.00000000000E+00  0.45593999997E+02  0.45594000000E+02  0.51100000000E-03 0. -1.
         11   -1    0    0    0    0 -0.00000000000E+00 -0.00000000000E+00 -0.45593999997E+02  0.45594000000E+02  0.51100000000E-03 0.  1.
         23    2    1    2    0    0  0.00000000000E+00  0.22204460493E-15 -0.44408920985E-15  0.91188000000E+02  0.91188000000E+02 0.  0.
    9900012    2    3    3    0    0  0.36633558860E+02  0.18283151117E+01 -0.32279817755E+01  0.54367078811E+02  0.39999987765E+02 0.  0.
         12    1    3    3    0    0 -0.36633558860E+02 -0.18283151117E+01  0.32279817755E+01  0.36820921189E+02  0.00000000000E+00 0. -1.
         11    1    4    4    0    0  0.60825956232E+01 -0.11825288657E+02  0.10177529345E+02  0.16745671834E+02  0.51100000000E-03 0. -1.
        -11    1    4    4    0    0  0.20801733153E+01  0.36782541171E+01 -0.44856022825E+01  0.61625727151E+01  0.51100000000E-03 0.  1.
         12    1    4    4    0    0  0.28470789921E+02  0.99753496521E+01 -0.89199088383E+01  0.31458834262E+02  0.00000000000E+00 0. -1.
</event>
<event>
 8    1  0.2432279E-006  0.9118800E+02  0.7816164E-02  0.1184000E+00
        -11   -1    0    0    0    0  0.00000000000E+00  0.00000000000E+00  0.45593999997E+02  0.45594000000E+02  0.51100000000E-03 0.  1.
         11   -1    0    0    0    0 -0.00000000000E+00 -0.00000000000E+00 -0.45593999997E+02  0.45594000000E+02  0.51100000000E-03 0. -1.
         23    2    1    2    0    0  0.35527136788E-14 -0.35527136788E-14  0.35527136788E-14  0.91188000000E+02  0.91188000000E+02 0.  0.
    9900012    2    3    3    0    0 -0.19842535654E+02  0.22037377796E+02 -0.21826788473E+02  0.54367069317E+02  0.39999966122E+02 0.  0.
        -12    1    3    3    0    0  0.19842535654E+02 -0.22037377796E+02  0.21826788473E+02  0.36820930683E+02  0.00000000000E+00 0.  1.
         11    1    4    4    0    0 -0.30077092522E+01  0.65378634384E+01  0.21578679036E+01  0.75130797570E+01  0.51100000000E-03 0. -1.
        -11    1    4    4    0    0 -0.59803954305E+01  0.25072528069E+02 -0.15514990540E+02  0.30085074788E+02  0.51100000000E-03 0.  1.
         12    1    4    4    0    0 -0.10854430972E+02 -0.95730137120E+01 -0.84696658365E+01  0.16768914772E+02  0.00000000000E+00 0. -1.
</event>
<event>
 8    1  0.2432279E-006  0.9118800E+02  0.7816164E-02  0.1184000E+00
        -11   -1    0    0    0    0  0.00000000000E+00  0.00000000000E+00  0.45593999997E+02  0.45594000000E+02  0.51100000000E-03 0.  1.
         11   -1    0    0    0    0 -0.00000000000E+00 -0.00000000000E+00 -0.45593999997E+02  0.45594000000E+02  0.51100000000E-03 0. -1.
         23    2    1    2    0    0  0.00000000000E+00 -0.35527136788E-14  0.00000000000E+00  0.91188000000E+02  0.91188000000E+02 0.  0.
    9900012    2    3    3    0    0  0.26683390670E+01 -0.27337782944E+02  0.24521532953E+02  0.54367082195E+02  0.39999995479E+02 0.  0.
         12    1    3    3    0    0 -0.26683390670E+01  0.27337782944E+02 -0.24521532953E+02  0.36820917805E+02  0.00000000000E+00 0. -1.
         11    1    4    4    0    0  0.45385879321E+01 -0.18799288891E+02  0.16381899120E+02  0.25345190121E+02  0.51100000000E-03 0. -1.
        -11    1    4    4    0    0  0.27895363125E-01  0.45510528290E+01  0.13877307929E+02  0.14604538186E+02  0.51100000000E-03 0.  1.
        -12    1    4    4    0    0 -0.18981442282E+01 -0.13089546882E+02 -0.57376740963E+01  0.14417353887E+02  0.00000000000E+00 0.  1.
</event>
<event>
 8    1  0.2432279E-006  0.9118800E+02  0.7816164E-02  0.1184000E+00
        -11   -1    0    0    0    0  0.00000000000E+00  0.00000000000E+00  0.45593999997E+02  0.45594000000E+02  0.51100000000E-03 0.  1.
         11   -1    0    0    0    0 -0.00000000000E+00 -0.00000000000E+00 -0.45593999997E+02  0.45594000000E+02  0.51100000000E-03 0. -1.
         23    2    1    2    0    0  0.00000000000E+00  0.00000000000E+00  0.35527136788E-14  0.91188000000E+02  0.91188000000E+02 0.  0.
    9900012    2    3    3    0    0 -0.22393112394E+02 -0.24237991306E+02 -0.16335448304E+02  0.54367101362E+02  0.40000039175E+02 0.  0.
        -12    1    3    3    0    0  0.22393112394E+02  0.24237991306E+02  0.16335448304E+02  0.36820898638E+02  0.00000000000E+00 0.  1.
         11    1    4    4    0    0 -0.21898414204E+02 -0.17484886031E+02 -0.23364382743E+02  0.36485012887E+02  0.51100000000E-03 0. -1.
        -11    1    4    4    0    0  0.64311544624E+01 -0.64847236687E+01  0.20836087420E+01  0.93676472195E+01  0.51100000000E-03 0.  1.
         12    1    4    4    0    0 -0.69258526524E+01 -0.26838160617E+00  0.49453256968E+01  0.85144412556E+01  0.00000000000E+00 0. -1.
</event>
<event>
 8    1  0.2432279E-006  0.9118800E+02  0.7816164E-02  0.1184000E+00
        -11   -1    0    0    0    0  0.00000000000E+00  0.00000000000E+00  0.45593999997E+02  0.45594000000E+02  0.51100000000E-03 0.  1.
         11   -1    0    0    0    0 -0.00000000000E+00 -0.00000000000E+00 -0.45593999997E+02  0.45594000000E+02  0.51100000000E-03 0. -1.
         23    2    1    2    0    0  0.88817841970E-15  0.00000000000E+00  0.35527136788E-14  0.91188000000E+02  0.91188000000E+02 0.  0.
    9900012    2    3    3    0    0 -0.68372988764E+01 -0.29181564924E+02  0.21388468147E+02  0.54367096195E+02  0.40000027397E+02 0.  0.
         12    1    3    3    0    0  0.68372988764E+01  0.29181564924E+02 -0.21388468147E+02  0.36820903805E+02  0.00000000000E+00 0. -1.
         11    1    4    4    0    0 -0.34373592364E+01 -0.16801709205E+01 -0.29651480834E+01  0.48405078514E+01  0.51100000000E-03 0. -1.
        -11    1    4    4    0    0 -0.13685130562E+02 -0.22697426496E+02  0.48267275964E+01  0.26939808232E+02  0.51100000000E-03 0.  1.
        -12    1    4    4    0    0  0.10285190922E+02 -0.48039675074E+01  0.19526888634E+02  0.22586780112E+02  0.00000000000E+00 0.  1.
</event>
<event>
 8    1  0.2432279E-006  0.9118800E+02  0.7816164E-02  0.1184000E+00
        -11   -1    0    0    0    0  0.00000000000E+00  0.00000000000E+00  0.45593999997E+02  0.45594000000E+02  0.51100000000E-03 0.  1.
         11   -1    0    0    0    0 -0.00000000000E+00 -0.00000000000E+00 -0.45593999997E+02  0.45594000000E+02  0.51100000000E-03 0. -1.
         23    2    1    2    0    0  0.35527136788E-14 -0.35527136788E-14  0.00000000000E+00  0.91188000000E+02  0.91188000000E+02 0.  0.
    9900012    2    3    3    0    0 -0.19304922870E+02  0.30054329724E+02  0.89352108048E+01  0.54367071517E+02  0.39999971138E+02 0.  0.
         12    1    3    3    0    0  0.19304922870E+02 -0.30054329724E+02 -0.89352108048E+01  0.36820928483E+02  0.00000000000E+00 0. -1.
         11    1    4    4    0    0 -0.26297711924E+01 -0.16513287041E+01 -0.55328028750E+01  0.63446426951E+01  0.51100000000E-03 0. -1.
        -11    1    4    4    0    0 -0.18187486072E+02  0.32413408966E+02  0.20025944179E+02  0.42219097230E+02  0.51100000000E-03 0.  1.
        -12    1    4    4    0    0  0.15123343942E+01 -0.70775053726E+00 -0.55579304988E+01  0.58033315925E+01  0.00000000000E+00 0.  1.
</event>
<event>
 8    1  0.2432279E-006  0.9118800E+02  0.7816164E-02  0.1184000E+00
        -11   -1    0    0    0    0  0.00000000000E+00  0.00000000000E+00  0.45593999997E+02  0.45594000000E+02  0.51100000000E-03 0.  1.
         11   -1    0    0    0    0 -0.00000000000E+00 -0.00000000000E+00 -0.45593999997E+02  0.45594000000E+02  0.51100000000E-03 0. -1.
         23    2    1    2    0    0  0.00000000000E+00  0.17763568394E-14  0.00000000000E+00  0.91188000000E+02  0.91188000000E+02 0.  0.
    9900012    2    3    3    0    0  0.16718042852E+02  0.97283452307E+01  0.31331243522E+02  0.54367075536E+02  0.39999980300E+02 0.  0.
         12    1    3    3    0    0 -0.16718042852E+02 -0.97283452307E+01 -0.31331243522E+02  0.36820924464E+02  0.00000000000E+00 0. -1.
         11    1    4    4    0    0  0.12746835982E+02 -0.11488919150E+02  0.14370106415E+02  0.22382516601E+02  0.51100000000E-03 0. -1.
        -11    1    4    4    0    0  0.95540760614E+01  0.70037007700E+01  0.73607037008E+01  0.13946761384E+02  0.51100000000E-03 0.  1.
         12    1    4    4    0    0 -0.55828691918E+01  0.14213563610E+02  0.96004334066E+01  0.18037797552E+02  0.00000000000E+00 0. -1.
</event>
<event>
 8    1  0.2432279E-006  0.9118800E+02  0.7816164E-02  0.1184000E+00
        -11   -1    0    0    0    0  0.00000000000E+00  0.00000000000E+00  0.45593999997E+02  0.45594000000E+02  0.51100000000E-03 0. -1.
         11   -1    0    0    0    0 -0.00000000000E+00 -0.00000000000E+00 -0.45593999997E+02  0.45594000000E+02  0.51100000000E-03 0.  1.
         23    2    1    2    0    0  0.00000000000E+00  0.35527136788E-14  0.00000000000E+00  0.91188000000E+02  0.91188000000E+02 0.  0.
    9900012    2    3    3    0    0  0.12652396941E+02  0.31794279163E+02 -0.13594910000E+02  0.54367069624E+02  0.39999966822E+02 0.  0.
         12    1    3    3    0    0 -0.12652396941E+02 -0.31794279163E+02  0.13594910000E+02  0.36820930376E+02  0.00000000000E+00 0. -1.
         11    1    4    4    0    0 -0.34849733354E+01 -0.31932694462E+01 -0.57830344409E+01  0.74689689054E+01  0.51100000000E-03 0. -1.
        -11    1    4    4    0    0  0.42261371495E+01  0.11123819750E+01 -0.10010263030E+02  0.10922591041E+02  0.51100000000E-03 0.  1.
        -12    1    4    4    0    0  0.11911233127E+02  0.33875166634E+02  0.21983874703E+01  0.35975509678E+02  0.00000000000E+00 0.  1.
</event>
<event>
 8    1  0.2432279E-006  0.9118800E+02  0.7816164E-02  0.1184000E+00
        -11   -1    0    0    0    0  0.00000000000E+00  0.00000000000E+00  0.45593999997E+02  0.45594000000E+02  0.51100000000E-03 0.  1.
         11   -1    0    0    0    0 -0.00000000000E+00 -0.00000000000E+00 -0.45593999997E+02  0.45594000000E+02  0.51100000000E-03 0. -1.
         23    2    1    2    0    0  0.00000000000E+00 -0.15543122345E-14  0.00000000000E+00  0.91188000000E+02  0.91188000000E+02 0.  0.
    9900012    2    3    3    0    0  0.31506651531E+02 -0.10371126427E+01 -0.19027220868E+02  0.54367084377E+02  0.40000000455E+02 0.  0.
        -12    1    3    3    0    0 -0.31506651531E+02  0.10371126427E+01  0.19027220868E+02  0.36820915623E+02  0.00000000000E+00 0.  1.
         11    1    4    4    0    0  0.10145054751E+02  0.19698804016E+01 -0.89501072486E+01  0.13671392933E+02  0.51100000000E-03 0. -1.
        -11    1    4    4    0    0  0.64183682731E+01  0.14797428568E+02 -0.51829922919E+01  0.16941745863E+02  0.51100000000E-03 0.  1.
         12    1    4    4    0    0  0.14943228507E+02 -0.17804421612E+02 -0.48941213271E+01  0.23753945582E+02  0.00000000000E+00 0. -1.
</event>
<event>
 8    1  0.2432279E-006  0.9118800E+02  0.7816164E-02  0.1184000E+00
        -11   -1    0    0    0    0  0.00000000000E+00  0.00000000000E+00  0.45593999997E+02  0.45594000000E+02  0.51100000000E-03 0.  1.
         11   -1    0    0    0    0 -0.00000000000E+00 -0.00000000000E+00 -0.45593999997E+02  0.45594000000E+02  0.51100000000E-03 0. -1.
         23    2    1    2    0    0 -0.17763568394E-14  0.00000000000E+00 -0.13322676296E-14  0.91188000000E+02  0.91188000000E+02 0.  0.
    9900012    2    3    3    0    0  0.13412853051E+02  0.34125219784E+02  0.33681903386E+01  0.54367082597E+02  0.39999996396E+02 0.  0.
        -12    1    3    3    0    0 -0.13412853051E+02 -0.34125219784E+02 -0.33681903386E+01  0.36820917403E+02  0.00000000000E+00 0.  1.
         11    1    4    4    0    0  0.76763653789E+01  0.53929276046E+01 -0.85656775011E+01  0.12703585513E+02  0.51100000000E-03 0. -1.
        -11    1    4    4    0    0 -0.91381233577E+00  0.29672487502E+02  0.21077741538E+01  0.29761288273E+02  0.51100000000E-03 0.  1.
        -12    1    4    4    0    0  0.66503000083E+01 -0.94019532283E+00  0.98260936859E+01  0.11902208811E+02  0.00000000000E+00 0.  1.
</event>
<event>
 8    1  0.2432279E-006  0.9118800E+02  0.7816164E-02  0.1184000E+00
        -11   -1    0    0    0    0  0.00000000000E+00  0.00000000000E+00  0.45593999997E+02  0.45594000000E+02  0.51100000000E-03 0.  1.
         11   -1    0    0    0    0 -0.00000000000E+00 -0.00000000000E+00 -0.45593999997E+02  0.45594000000E+02  0.51100000000E-03 0. -1.
         23    2    1    2    0    0  0.00000000000E+00  0.35527136788E-14  0.00000000000E+00  0.91188000000E+02  0.91188000000E+02 0.  0.
    9900012    2    3    3    0    0  0.28544923557E+02  0.23174786432E+02  0.19736315520E+01  0.54367100927E+02  0.40000038183E+02 0.  0.
         12    1    3    3    0    0 -0.28544923557E+02 -0.23174786432E+02 -0.19736315520E+01  0.36820899073E+02  0.00000000000E+00 0. -1.
         11    1    4    4    0    0 -0.81846561481E+01  0.13658077415E+02  0.34631646263E+01  0.16294943523E+02  0.51100000000E-03 0. -1.
        -11    1    4    4    0    0  0.12087447187E+02  0.33997403497E+01  0.78177049166E+00  0.12580770219E+02  0.51100000000E-03 0.  1.
         12    1    4    4    0    0  0.24642132518E+02  0.61169686674E+01 -0.22713035659E+01  0.25491387185E+02  0.00000000000E+00 0. -1.
</event>
<event>
 8    1  0.2432279E-006  0.9118800E+02  0.7816164E-02  0.1184000E+00
        -11   -1    0    0    0    0  0.00000000000E+00  0.00000000000E+00  0.45593999997E+02  0.45594000000E+02  0.51100000000E-03 0. -1.
         11   -1    0    0    0    0 -0.00000000000E+00 -0.00000000000E+00 -0.45593999997E+02  0.45594000000E+02  0.51100000000E-03 0.  1.
         23    2    1    2    0    0  0.00000000000E+00 -0.35527136788E-14  0.00000000000E+00  0.91188000000E+02  0.91188000000E+02 0.  0.
    9900012    2    3    3    0    0 -0.26306761847E+02 -0.24932119399E+02 -0.64901446684E+01  0.54367105464E+02  0.40000048526E+02 0.  0.
         12    1    3    3    0    0  0.26306761847E+02  0.24932119399E+02  0.64901446684E+01  0.36820894536E+02  0.00000000000E+00 0. -1.
         11    1    4    4    0    0  0.65962738019E+01 -0.79556774824E+00 -0.66725677697E+00  0.66774986319E+01  0.51100000000E-03 0. -1.
        -11    1    4    4    0    0 -0.11684699538E+02 -0.16184210394E+02 -0.13116373013E+02  0.23885144141E+02  0.51100000000E-03 0.  1.
         12    1    4    4    0    0 -0.21218336111E+02 -0.79523412569E+01  0.72934851213E+01  0.23804462691E+02  0.00000000000E+00 0. -1.
</event>
<event>
 8    1  0.2432279E-006  0.9118800E+02  0.7816164E-02  0.1184000E+00
        -11   -1    0    0    0    0  0.00000000000E+00  0.00000000000E+00  0.45593999997E+02  0.45594000000E+02  0.51100000000E-03 0. -1.
         11   -1    0    0    0    0 -0.00000000000E+00 -0.00000000000E+00 -0.45593999997E+02  0.45594000000E+02  0.51100000000E-03 0.  1.
         23    2    1    2    0    0  0.00000000000E+00  0.00000000000E+00  0.00000000000E+00  0.91188000000E+02  0.91188000000E+02 0.  0.
    9900012    2    3    3    0    0 -0.46194419172E+01  0.17061444127E+02  0.32300888949E+02  0.54367088194E+02  0.40000009156E+02 0.  0.
        -12    1    3    3    0    0  0.46194419172E+01 -0.17061444127E+02 -0.32300888949E+02  0.36820911806E+02  0.00000000000E+00 0.  1.
         11    1    4    4    0    0 -0.10678016325E+02  0.10935189514E+02  0.14508208521E+02  0.21073360366E+02  0.51100000000E-03 0. -1.
        -11    1    4    4    0    0  0.10644517318E+02  0.68659256897E+01 -0.21230467512E+01  0.12843442384E+02  0.51100000000E-03 0.  1.
        -12    1    4    4    0    0 -0.45859429100E+01 -0.73967107648E+00  0.19915727179E+02  0.20450285444E+02  0.00000000000E+00 0.  1.
</event>
<event>
 8    1  0.2432279E-006  0.9118800E+02  0.7816164E-02  0.1184000E+00
        -11   -1    0    0    0    0  0.00000000000E+00  0.00000000000E+00  0.45593999997E+02  0.45594000000E+02  0.51100000000E-03 0. -1.
         11   -1    0    0    0    0 -0.00000000000E+00 -0.00000000000E+00 -0.45593999997E+02  0.45594000000E+02  0.51100000000E-03 0.  1.
         23    2    1    2    0    0  0.35527136788E-14  0.35527136788E-14 -0.12143064332E-15  0.91188000000E+02  0.91188000000E+02 0.  0.
    9900012    2    3    3    0    0  0.31382309633E+02  0.19259574621E+02  0.18961817745E-01  0.54367069376E+02  0.39999966256E+02 0.  0.
        -12    1    3    3    0    0 -0.31382309633E+02 -0.19259574621E+02 -0.18961817745E-01  0.36820930624E+02  0.00000000000E+00 0.  1.
         11    1    4    4    0    0  0.11885203096E+02  0.31054646521E+01 -0.12939279313E+02  0.17841718324E+02  0.51100000000E-03 0.  1.
        -11    1    4    4    0    0  0.19116958985E+01 -0.57495870019E+01  0.21976017588E+01  0.64452917430E+01  0.51100000000E-03 0. -1.
         12    1    4    4    0    0  0.17585410638E+02  0.21903696971E+02  0.10760639372E+02  0.30080059309E+02  0.00000000000E+00 0. -1.
</event>
<event>
 8    1  0.2432279E-006  0.9118800E+02  0.7816164E-02  0.1184000E+00
        -11   -1    0    0    0    0  0.00000000000E+00  0.00000000000E+00  0.45593999997E+02  0.45594000000E+02  0.51100000000E-03 0.  1.
         11   -1    0    0    0    0 -0.00000000000E+00 -0.00000000000E+00 -0.45593999997E+02  0.45594000000E+02  0.51100000000E-03 0. -1.
         23    2    1    2    0    0  0.00000000000E+00  0.00000000000E+00  0.35527136788E-14  0.91188000000E+02  0.91188000000E+02 0.  0.
    9900012    2    3    3    0    0  0.28137154196E+02  0.17548311504E+02  0.16004274078E+02  0.54367089207E+02  0.40000011465E+02 0.  0.
         12    1    3    3    0    0 -0.28137154196E+02 -0.17548311504E+02 -0.16004274078E+02  0.36820910793E+02  0.00000000000E+00 0. -1.
         11    1    4    4    0    0 -0.36783077401E+01  0.50595418152E+01 -0.76172790695E+00  0.63015189340E+01  0.51100000000E-03 0. -1.
        -11    1    4    4    0    0  0.36596077177E+01 -0.37966730091E+01  0.14535829699E+02  0.15462787585E+02  0.51100000000E-03 0.  1.
         12    1    4    4    0    0  0.28155854218E+02  0.16285442697E+02  0.22301722861E+01  0.32602782688E+02  0.00000000000E+00 0. -1.
</event>
<event>
 8    1  0.2432279E-006  0.9118800E+02  0.7816164E-02  0.1184000E+00
        -11   -1    0    0    0    0  0.00000000000E+00  0.00000000000E+00  0.45593999997E+02  0.45594000000E+02  0.51100000000E-03 0.  1.
         11   -1    0    0    0    0 -0.00000000000E+00 -0.00000000000E+00 -0.45593999997E+02  0.45594000000E+02  0.51100000000E-03 0. -1.
         23    2    1    2    0    0  0.00000000000E+00  0.00000000000E+00  0.71054273576E-14  0.91188000000E+02  0.91188000000E+02 0.  0.
    9900012    2    3    3    0    0 -0.24302211654E+02 -0.89557564956E+01 -0.26172037135E+02  0.54367101132E+02  0.40000038650E+02 0.  0.
        -12    1    3    3    0    0  0.24302211654E+02  0.89557564956E+01  0.26172037135E+02  0.36820898868E+02  0.00000000000E+00 0.  1.
         11    1    4    4    0    0 -0.84386561726E-01  0.20041392795E+01 -0.54776949643E+01  0.58334241853E+01  0.51100000000E-03 0. -1.
        -11    1    4    4    0    0  0.19309566703E+01 -0.80643510992E+01  0.66193785730E+01  0.10610302789E+02  0.51100000000E-03 0.  1.
         12    1    4    4    0    0 -0.26148781762E+02 -0.28955446758E+01 -0.27313720744E+02  0.37923374158E+02  0.00000000000E+00 0. -1.
</event>
<event>
 8    1  0.2432279E-006  0.9118800E+02  0.7816164E-02  0.1184000E+00
        -11   -1    0    0    0    0  0.00000000000E+00  0.00000000000E+00  0.45593999997E+02  0.45594000000E+02  0.51100000000E-03 0. -1.
         11   -1    0    0    0    0 -0.00000000000E+00 -0.00000000000E+00 -0.45593999997E+02  0.45594000000E+02  0.51100000000E-03 0.  1.
         23    2    1    2    0    0  0.00000000000E+00  0.00000000000E+00  0.00000000000E+00  0.91188000000E+02  0.91188000000E+02 0.  0.
    9900012    2    3    3    0    0 -0.35299191054E+02 -0.62203996184E+01  0.84289093314E+01  0.54367180169E+02  0.40000218832E+02 0.  0.
        -12    1    3    3    0    0  0.35299191054E+02  0.62203996184E+01 -0.84289093314E+01  0.36820819831E+02  0.00000000000E+00 0.  1.
         11    1    4    4    0    0 -0.53967452365E+01 -0.75220997724E+01  0.19988030564E+02  0.22027896183E+02  0.51100000000E-03 0. -1.
        -11    1    4    4    0    0 -0.20623229613E+02  0.49477885419E+00 -0.59650610395E+01  0.21474272031E+02  0.51100000000E-03 0.  1.
         12    1    4    4    0    0 -0.92792162042E+01  0.80692129988E+00 -0.55940601935E+01  0.10865011956E+02  0.00000000000E+00 0. -1.
</event>
<event>
 8    1  0.2432279E-006  0.9118800E+02  0.7816164E-02  0.1184000E+00
        -11   -1    0    0    0    0  0.00000000000E+00  0.00000000000E+00  0.45593999997E+02  0.45594000000E+02  0.51100000000E-03 0. -1.
         11   -1    0    0    0    0 -0.00000000000E+00 -0.00000000000E+00 -0.45593999997E+02  0.45594000000E+02  0.51100000000E-03 0.  1.
         23    2    1    2    0    0 -0.71054273576E-14  0.00000000000E+00  0.00000000000E+00  0.91188000000E+02  0.91188000000E+02 0.  0.
    9900012    2    3    3    0    0  0.34497314523E+02 -0.10027802326E+02  0.80720608154E+01  0.54367086179E+02  0.40000004563E+02 0.  0.
         12    1    3    3    0    0 -0.34497314523E+02  0.10027802326E+02 -0.80720608154E+01  0.36820913821E+02  0.00000000000E+00 0. -1.
         11    1    4    4    0    0  0.40916516747E+01  0.10538966727E+02  0.65484116356E+01  0.13064958030E+02  0.51100000000E-03 0. -1.
        -11    1    4    4    0    0 -0.12322819653E+01 -0.64280139142E+01 -0.67007805042E+00  0.65792770559E+01  0.51100000000E-03 0.  1.
         12    1    4    4    0    0  0.31637944813E+02 -0.14138755139E+02  0.21937272302E+01  0.34722851094E+02  0.00000000000E+00 0. -1.
</event>
<event>
 8    1  0.2432279E-006  0.9118800E+02  0.7816164E-02  0.1184000E+00
        -11   -1    0    0    0    0  0.00000000000E+00  0.00000000000E+00  0.45593999997E+02  0.45594000000E+02  0.51100000000E-03 0. -1.
         11   -1    0    0    0    0 -0.00000000000E+00 -0.00000000000E+00 -0.45593999997E+02  0.45594000000E+02  0.51100000000E-03 0.  1.
         23    2    1    2    0    0  0.71054273576E-14  0.00000000000E+00  0.00000000000E+00  0.91188000000E+02  0.91188000000E+02 0.  0.
    9900012    2    3    3    0    0  0.29457629748E+02 -0.14631475899E+02  0.16551340771E+02  0.54367096716E+02  0.40000028582E+02 0.  0.
         12    1    3    3    0    0 -0.29457629748E+02  0.14631475899E+02 -0.16551340771E+02  0.36820903284E+02  0.00000000000E+00 0. -1.
         11    1    4    4    0    0  0.94733387883E+01  0.12474353590E+01  0.17380398891E+02  0.19833771922E+02  0.51100000000E-03 0. -1.
        -11    1    4    4    0    0 -0.37554167913E+01 -0.90637499196E+01  0.20518192890E+00  0.98130941994E+01  0.51100000000E-03 0.  1.
        -12    1    4    4    0    0  0.23739707751E+02 -0.68151613381E+01 -0.10342400483E+01  0.24720230595E+02  0.00000000000E+00 0.  1.
</event>
<event>
 8    1  0.2432279E-006  0.9118800E+02  0.7816164E-02  0.1184000E+00
        -11   -1    0    0    0    0  0.00000000000E+00  0.00000000000E+00  0.45593999997E+02  0.45594000000E+02  0.51100000000E-03 0.  1.
         11   -1    0    0    0    0 -0.00000000000E+00 -0.00000000000E+00 -0.45593999997E+02  0.45594000000E+02  0.51100000000E-03 0. -1.
         23    2    1    2    0    0  0.35527136788E-14 -0.35527136788E-14  0.00000000000E+00  0.91188000000E+02  0.91188000000E+02 0.  0.
    9900012    2    3    3    0    0  0.24560021371E+02  0.18908275230E+02 -0.19876171226E+02  0.54367086045E+02  0.40000004257E+02 0.  0.
        -12    1    3    3    0    0 -0.24560021371E+02 -0.18908275230E+02  0.19876171226E+02  0.36820913955E+02  0.00000000000E+00 0.  1.
         11    1    4    4    0    0  0.19629065808E+02  0.17438606324E+02 -0.31897026811E+01  0.26449563673E+02  0.51100000000E-03 0. -1.
        -11    1    4    4    0    0 -0.19107050194E+01 -0.47837800618E+01 -0.17847583235E+02  0.18576102200E+02  0.51100000000E-03 0.  1.
        -12    1    4    4    0    0  0.68416605817E+01  0.62534489676E+01  0.11611146904E+01  0.93414201720E+01  0.00000000000E+00 0.  1.
</event>
<event>
 8    1  0.2432279E-006  0.9118800E+02  0.7816164E-02  0.1184000E+00
        -11   -1    0    0    0    0  0.00000000000E+00  0.00000000000E+00  0.45593999997E+02  0.45594000000E+02  0.51100000000E-03 0. -1.
         11   -1    0    0    0    0 -0.00000000000E+00 -0.00000000000E+00 -0.45593999997E+02  0.45594000000E+02  0.51100000000E-03 0.  1.
         23    2    1    2    0    0  0.00000000000E+00 -0.17763568394E-14  0.17763568394E-14  0.91188000000E+02  0.91188000000E+02 0.  0.
    9900012    2    3    3    0    0 -0.33232000814E+02 -0.19631939146E+01  0.15734012605E+02  0.54367093423E+02  0.40000021077E+02 0.  0.
        -12    1    3    3    0    0  0.33232000814E+02  0.19631939146E+01 -0.15734012605E+02  0.36820906577E+02  0.00000000000E+00 0.  1.
         11    1    4    4    0    0 -0.19083105050E+02  0.69698361321E+00 -0.26736421030E+01  0.19282091351E+02  0.51100000000E-03 0. -1.
        -11    1    4    4    0    0 -0.12343457439E+02 -0.87210932972E+01 -0.52643801865E+00  0.15122683197E+02  0.51100000000E-03 0.  1.
        -12    1    4    4    0    0 -0.18054383259E+01  0.60609157694E+01  0.18934092726E+02  0.19962318875E+02  0.00000000000E+00 0.  1.
</event>
<event>
 8    1  0.2432279E-006  0.9118800E+02  0.7816164E-02  0.1184000E+00
        -11   -1    0    0    0    0  0.00000000000E+00  0.00000000000E+00  0.45593999997E+02  0.45594000000E+02  0.51100000000E-03 0.  1.
         11   -1    0    0    0    0 -0.00000000000E+00 -0.00000000000E+00 -0.45593999997E+02  0.45594000000E+02  0.51100000000E-03 0. -1.
         23    2    1    2    0    0  0.00000000000E+00 -0.88817841970E-15 -0.66613381478E-15  0.91188000000E+02  0.91188000000E+02 0.  0.
    9900012    2    3    3    0    0 -0.36597570007E+02 -0.39701547280E+01 -0.79719493555E+00  0.54367085037E+02  0.40000001959E+02 0.  0.
        -12    1    3    3    0    0  0.36597570007E+02  0.39701547280E+01  0.79719493555E+00  0.36820914963E+02  0.00000000000E+00 0.  1.
         11    1    4    4    0    0 -0.60914117354E+01  0.46100300536E+01  0.50802167105E+01  0.91742180109E+01  0.51100000000E-03 0. -1.
        -11    1    4    4    0    0 -0.52099875574E+01 -0.14636611973E+02  0.59271828293E+01  0.16628465862E+02  0.51100000000E-03 0.  1.
         12    1    4    4    0    0 -0.25296170714E+02  0.60564271910E+01 -0.11804594475E+02  0.28564401164E+02  0.00000000000E+00 0. -1.
</event>
<event>
 8    1  0.2432279E-006  0.9118800E+02  0.7816164E-02  0.1184000E+00
        -11   -1    0    0    0    0  0.00000000000E+00  0.00000000000E+00  0.45593999997E+02  0.45594000000E+02  0.51100000000E-03 0. -1.
         11   -1    0    0    0    0 -0.00000000000E+00 -0.00000000000E+00 -0.45593999997E+02  0.45594000000E+02  0.51100000000E-03 0.  1.
         23    2    1    2    0    0  0.00000000000E+00  0.35527136788E-14  0.00000000000E+00  0.91188000000E+02  0.91188000000E+02 0.  0.
    9900012    2    3    3    0    0  0.28071407838E+02 -0.21331968294E+02  0.10617064207E+02  0.54367097490E+02  0.40000030348E+02 0.  0.
        -12    1    3    3    0    0 -0.28071407838E+02  0.21331968294E+02 -0.10617064207E+02  0.36820902510E+02  0.00000000000E+00 0.  1.
         11    1    4    4    0    0  0.26894218935E+02 -0.23923125188E+02  0.32911457710E+00  0.35996156010E+02  0.51100000000E-03 0. -1.
        -11    1    4    4    0    0  0.59533150709E+01  0.42874854995E+00 -0.88030755717E+00  0.60333015264E+01  0.51100000000E-03 0.  1.
        -12    1    4    4    0    0 -0.47761261677E+01  0.21624083439E+01  0.11168257187E+02  0.12337639953E+02  0.00000000000E+00 0.  1.
</event>
<event>
 8    1  0.2432279E-006  0.9118800E+02  0.7816164E-02  0.1184000E+00
        -11   -1    0    0    0    0  0.00000000000E+00  0.00000000000E+00  0.45593999997E+02  0.45594000000E+02  0.51100000000E-03 0. -1.
         11   -1    0    0    0    0 -0.00000000000E+00 -0.00000000000E+00 -0.45593999997E+02  0.45594000000E+02  0.51100000000E-03 0.  1.
         23    2    1    2    0    0 -0.35527136788E-14  0.00000000000E+00  0.00000000000E+00  0.91188000000E+02  0.91188000000E+02 0.  0.
    9900012    2    3    3    0    0  0.24628357395E+02  0.15172796058E+02 -0.22781825094E+02  0.54367064612E+02  0.39999955397E+02 0.  0.
         12    1    3    3    0    0 -0.24628357395E+02 -0.15172796058E+02  0.22781825094E+02  0.36820935388E+02  0.00000000000E+00 0. -1.
         11    1    4    4    0    0  0.20737082436E+02  0.15098145466E+01 -0.24647976340E+01  0.20937558490E+02  0.51100000000E-03 0.  1.
        -11    1    4    4    0    0  0.11908822623E+02  0.83401371333E+01 -0.50663575024E+01  0.15396295732E+02  0.51100000000E-03 0. -1.
         12    1    4    4    0    0 -0.80175476633E+01  0.53228443778E+01 -0.15250669958E+02  0.18033210390E+02  0.00000000000E+00 0. -1.
</event>
<event>
 8    1  0.2432279E-006  0.9118800E+02  0.7816164E-02  0.1184000E+00
        -11   -1    0    0    0    0  0.00000000000E+00  0.00000000000E+00  0.45593999997E+02  0.45594000000E+02  0.51100000000E-03 0.  1.
         11   -1    0    0    0    0 -0.00000000000E+00 -0.00000000000E+00 -0.45593999997E+02  0.45594000000E+02  0.51100000000E-03 0. -1.
         23    2    1    2    0    0  0.71054273576E-14  0.17763568394E-14  0.17763568394E-14  0.91188000000E+02  0.91188000000E+02 0.  0.
    9900012    2    3    3    0    0 -0.34563400891E+02  0.88130592845E+01 -0.91366408489E+01  0.54367124113E+02  0.40000091040E+02 0.  0.
         12    1    3    3    0    0  0.34563400891E+02 -0.88130592845E+01  0.91366408489E+01  0.36820875887E+02  0.00000000000E+00 0. -1.
         11    1    4    4    0    0 -0.13227932624E+02  0.17041465925E+02 -0.15608269047E+01  0.21629284391E+02  0.51100000000E-03 0. -1.
        -11    1    4    4    0    0 -0.16440117202E+02  0.54390685472E+01 -0.46211270381E+01  0.17922492450E+02  0.51100000000E-03 0.  1.
         12    1    4    4    0    0 -0.48953510651E+01 -0.13667475188E+02 -0.29546869060E+01  0.14815347272E+02  0.00000000000E+00 0. -1.
</event>
<event>
 8    1  0.2432279E-006  0.9118800E+02  0.7816164E-02  0.1184000E+00
        -11   -1    0    0    0    0  0.00000000000E+00  0.00000000000E+00  0.45593999997E+02  0.45594000000E+02  0.51100000000E-03 0. -1.
         11   -1    0    0    0    0 -0.00000000000E+00 -0.00000000000E+00 -0.45593999997E+02  0.45594000000E+02  0.51100000000E-03 0.  1.
         23    2    1    2    0    0 -0.88817841970E-15 -0.35527136788E-14 -0.35527136788E-14  0.91188000000E+02  0.91188000000E+02 0.  0.
    9900012    2    3    3    0    0 -0.69307962607E+01 -0.30671021491E+02  0.19158092330E+02  0.54367082061E+02  0.39999995175E+02 0.  0.
        -12    1    3    3    0    0  0.69307962607E+01  0.30671021491E+02 -0.19158092330E+02  0.36820917939E+02  0.00000000000E+00 0.  1.
         11    1    4    4    0    0 -0.39550052834E+01  0.36624784158E+01 -0.15441234136E+01  0.56071501064E+01  0.51100000000E-03 0. -1.
        -11    1    4    4    0    0  0.18500724054E+01  0.45688215543E+01  0.18895571973E+01  0.52789511234E+01  0.51100000000E-03 0.  1.
         12    1    4    4    0    0 -0.48258633826E+01 -0.38902321461E+02  0.18812658547E+02  0.43480980831E+02  0.00000000000E+00 0. -1.
</event>
<event>
 8    1  0.2432279E-006  0.9118800E+02  0.7816164E-02  0.1184000E+00
        -11   -1    0    0    0    0  0.00000000000E+00  0.00000000000E+00  0.45593999997E+02  0.45594000000E+02  0.51100000000E-03 0.  1.
         11   -1    0    0    0    0 -0.00000000000E+00 -0.00000000000E+00 -0.45593999997E+02  0.45594000000E+02  0.51100000000E-03 0. -1.
         23    2    1    2    0    0  0.00000000000E+00  0.71054273576E-14  0.17763568394E-14  0.91188000000E+02  0.91188000000E+02 0.  0.
    9900012    2    3    3    0    0 -0.82910468919E+01 -0.33469483461E+02 -0.12916385709E+02  0.54367071148E+02  0.39999970297E+02 0.  0.
        -12    1    3    3    0    0  0.82910468919E+01  0.33469483461E+02  0.12916385709E+02  0.36820928852E+02  0.00000000000E+00 0.  1.
         11    1    4    4    0    0  0.63593470230E+01  0.46169404332E+01 -0.71888782552E+01  0.10650699712E+02  0.51100000000E-03 0. -1.
        -11    1    4    4    0    0 -0.14253939806E+02 -0.22069576465E+02 -0.81611921840E+01  0.27510835383E+02  0.51100000000E-03 0.  1.
        -12    1    4    4    0    0 -0.39645410909E+00 -0.16016847429E+02  0.24336847298E+01  0.16205536054E+02  0.00000000000E+00 0.  1.
</event>
<event>
 8    1  0.2432279E-006  0.9118800E+02  0.7816164E-02  0.1184000E+00
        -11   -1    0    0    0    0  0.00000000000E+00  0.00000000000E+00  0.45593999997E+02  0.45594000000E+02  0.51100000000E-03 0.  1.
         11   -1    0    0    0    0 -0.00000000000E+00 -0.00000000000E+00 -0.45593999997E+02  0.45594000000E+02  0.51100000000E-03 0. -1.
         23    2    1    2    0    0  0.00000000000E+00 -0.17763568394E-14  0.00000000000E+00  0.91188000000E+02  0.91188000000E+02 0.  0.
    9900012    2    3    3    0    0  0.20500747317E+02 -0.14458310085E+02  0.26952853281E+02  0.54367086498E+02  0.40000005291E+02 0.  0.
         12    1    3    3    0    0 -0.20500747317E+02  0.14458310085E+02 -0.26952853281E+02  0.36820913502E+02  0.00000000000E+00 0. -1.
         11    1    4    4    0    0  0.56672446020E+01 -0.13680786258E+02  0.12054095784E+02  0.19094051415E+02  0.51100000000E-03 0. -1.
        -11    1    4    4    0    0  0.17980275391E+02 -0.28671636119E+01 -0.16655647315E+01  0.18283463470E+02  0.51100000000E-03 0.  1.
        -12    1    4    4    0    0 -0.31467726760E+01  0.20896397845E+01  0.16564322229E+02  0.16989571614E+02  0.00000000000E+00 0.  1.
</event>
<event>
 8    1  0.2432279E-006  0.9118800E+02  0.7816164E-02  0.1184000E+00
        -11   -1    0    0    0    0  0.00000000000E+00  0.00000000000E+00  0.45593999997E+02  0.45594000000E+02  0.51100000000E-03 0.  1.
         11   -1    0    0    0    0 -0.00000000000E+00 -0.00000000000E+00 -0.45593999997E+02  0.45594000000E+02  0.51100000000E-03 0. -1.
         23    2    1    2    0    0  0.11102230246E-15  0.17763568394E-14  0.00000000000E+00  0.91188000000E+02  0.91188000000E+02 0.  0.
    9900012    2    3    3    0    0  0.96026861453E+00 -0.11596824606E+02 -0.34933824077E+02  0.54367074952E+02  0.39999978968E+02 0.  0.
        -12    1    3    3    0    0 -0.96026861453E+00  0.11596824606E+02  0.34933824077E+02  0.36820925048E+02  0.00000000000E+00 0.  1.
         11    1    4    4    0    0  0.37456076818E+01  0.35664610814E+01 -0.68079492558E+01  0.85497014499E+01  0.51100000000E-03 0. -1.
        -11    1    4    4    0    0 -0.12204519026E+02 -0.92495793979E+01  0.27551266292E+00  0.15316034447E+02  0.51100000000E-03 0.  1.
         12    1    4    4    0    0  0.94191799585E+01 -0.59137062890E+01 -0.28401387484E+02  0.30501339055E+02  0.00000000000E+00 0. -1.
</event>
<event>
 8    1  0.2432279E-006  0.9118800E+02  0.7816164E-02  0.1184000E+00
        -11   -1    0    0    0    0  0.00000000000E+00  0.00000000000E+00  0.45593999997E+02  0.45594000000E+02  0.51100000000E-03 0. -1.
         11   -1    0    0    0    0 -0.00000000000E+00 -0.00000000000E+00 -0.45593999997E+02  0.45594000000E+02  0.51100000000E-03 0.  1.
         23    2    1    2    0    0  0.00000000000E+00 -0.35527136788E-14  0.00000000000E+00  0.91188000000E+02  0.91188000000E+02 0.  0.
    9900012    2    3    3    0    0 -0.22063613330E+02  0.29014296582E+02 -0.52103052555E+01  0.54367085832E+02  0.40000003771E+02 0.  0.
         12    1    3    3    0    0  0.22063613330E+02 -0.29014296582E+02  0.52103052555E+01  0.36820914168E+02  0.00000000000E+00 0. -1.
         11    1    4    4    0    0 -0.17643632642E+02  0.94465191489E+01 -0.50059715917E+01  0.20629935741E+02  0.51100000000E-03 0. -1.
        -11    1    4    4    0    0 -0.31034250459E+01  0.19568174766E+02  0.10860585457E+02  0.22594181273E+02  0.51100000000E-03 0.  1.
         12    1    4    4    0    0 -0.13165556421E+01 -0.39733219170E-03 -0.11064919121E+02  0.11142968818E+02  0.00000000000E+00 0. -1.
</event>
<event>
 8    1  0.2432279E-006  0.9118800E+02  0.7816164E-02  0.1184000E+00
        -11   -1    0    0    0    0  0.00000000000E+00  0.00000000000E+00  0.45593999997E+02  0.45594000000E+02  0.51100000000E-03 0.  1.
         11   -1    0    0    0    0 -0.00000000000E+00 -0.00000000000E+00 -0.45593999997E+02  0.45594000000E+02  0.51100000000E-03 0. -1.
         23    2    1    2    0    0 -0.17763568394E-14 -0.35527136788E-14 -0.35527136788E-14  0.91188000000E+02  0.91188000000E+02 0.  0.
    9900012    2    3    3    0    0 -0.85173505720E+01 -0.30657763236E+02 -0.18529365300E+02  0.54367067287E+02  0.39999961495E+02 0.  0.
        -12    1    3    3    0    0  0.85173505720E+01  0.30657763236E+02  0.18529365300E+02  0.36820932713E+02  0.00000000000E+00 0.  1.
         11    1    4    4    0    0 -0.65777292566E+01 -0.11118125451E+02 -0.13801181714E+02  0.18903752344E+02  0.51100000000E-03 0. -1.
        -11    1    4    4    0    0 -0.10075736077E+02 -0.87818845551E+01 -0.13797537450E+02  0.19209736953E+02  0.51100000000E-03 0.  1.
        -12    1    4    4    0    0  0.81361147616E+01 -0.10757753230E+02  0.90693538643E+01  0.16253577990E+02  0.00000000000E+00 0.  1.
</event>
<event>
 8    1  0.2432279E-006  0.9118800E+02  0.7816164E-02  0.1184000E+00
        -11   -1    0    0    0    0  0.00000000000E+00  0.00000000000E+00  0.45593999997E+02  0.45594000000E+02  0.51100000000E-03 0.  1.
         11   -1    0    0    0    0 -0.00000000000E+00 -0.00000000000E+00 -0.45593999997E+02  0.45594000000E+02  0.51100000000E-03 0. -1.
         23    2    1    2    0    0  0.35527136788E-14  0.00000000000E+00  0.35527136788E-14  0.91188000000E+02  0.91188000000E+02 0.  0.
    9900012    2    3    3    0    0  0.18009689487E+02 -0.22815554779E+02  0.22602690531E+02  0.54367081020E+02  0.39999992801E+02 0.  0.
         12    1    3    3    0    0 -0.18009689487E+02  0.22815554779E+02 -0.22602690531E+02  0.36820918980E+02  0.00000000000E+00 0. -1.
         11    1    4    4    0    0  0.10117925567E+02  0.73844646776E+01  0.10900514572E+02  0.16604937656E+02  0.51100000000E-03 0.  1.
        -11    1    4    4    0    0 -0.30632219308E-02 -0.13641353725E+01 -0.38338757683E+01  0.40693338970E+01  0.51100000000E-03 0. -1.
        -12    1    4    4    0    0  0.78948271423E+01 -0.28835884084E+02  0.15536051727E+02  0.33692809467E+02  0.00000000000E+00 0.  1.
</event>
<event>
 8    1  0.2432279E-006  0.9118800E+02  0.7816164E-02  0.1184000E+00
        -11   -1    0    0    0    0  0.00000000000E+00  0.00000000000E+00  0.45593999997E+02  0.45594000000E+02  0.51100000000E-03 0. -1.
         11   -1    0    0    0    0 -0.00000000000E+00 -0.00000000000E+00 -0.45593999997E+02  0.45594000000E+02  0.51100000000E-03 0.  1.
         23    2    1    2    0    0 -0.17763568394E-14  0.00000000000E+00 -0.33306690739E-15  0.91188000000E+02  0.91188000000E+02 0.  0.
    9900012    2    3    3    0    0 -0.11964196441E+02 -0.34821559998E+02  0.31502864224E+00  0.54367051068E+02  0.39999924521E+02 0.  0.
        -12    1    3    3    0    0  0.11964196441E+02  0.34821559998E+02 -0.31502864224E+00  0.36820948932E+02  0.00000000000E+00 0.  1.
         11    1    4    4    0    0 -0.18149002826E+02 -0.23429829041E+02 -0.50153584774E+01  0.30058227050E+02  0.51100000000E-03 0.  1.
        -11    1    4    4    0    0  0.11427505408E+02 -0.11818621410E+02  0.81408208842E+01  0.18345044475E+02  0.51100000000E-03 0. -1.
         12    1    4    4    0    0 -0.52426990220E+01  0.42689045251E+00 -0.28104337646E+01  0.59637795431E+01  0.00000000000E+00 0. -1.
</event>
<event>
 8    1  0.2432279E-006  0.9118800E+02  0.7816164E-02  0.1184000E+00
        -11   -1    0    0    0    0  0.00000000000E+00  0.00000000000E+00  0.45593999997E+02  0.45594000000E+02  0.51100000000E-03 0. -1.
         11   -1    0    0    0    0 -0.00000000000E+00 -0.00000000000E+00 -0.45593999997E+02  0.45594000000E+02  0.51100000000E-03 0.  1.
         23    2    1    2    0    0  0.00000000000E+00  0.00000000000E+00  0.00000000000E+00  0.91188000000E+02  0.91188000000E+02 0.  0.
    9900012    2    3    3    0    0 -0.29493580253E+02 -0.13331783100E+02 -0.17554837783E+02  0.54367081403E+02  0.39999993674E+02 0.  0.
         12    1    3    3    0    0  0.29493580253E+02  0.13331783100E+02  0.17554837783E+02  0.36820918597E+02  0.00000000000E+00 0. -1.
         11    1    4    4    0    0  0.38375270153E+01  0.22794097211E+01  0.47550617671E+01  0.65217279106E+01  0.51100000000E-03 0. -1.
        -11    1    4    4    0    0 -0.15497259767E+02  0.35775641916E+01 -0.10842060200E+02  0.19248747894E+02  0.51100000000E-03 0.  1.
         12    1    4    4    0    0 -0.17833847501E+02 -0.19188757013E+02 -0.11467839350E+02  0.28596605598E+02  0.00000000000E+00 0. -1.
</event>
<event>
 8    1  0.2432279E-006  0.9118800E+02  0.7816164E-02  0.1184000E+00
        -11   -1    0    0    0    0  0.00000000000E+00  0.00000000000E+00  0.45593999997E+02  0.45594000000E+02  0.51100000000E-03 0. -1.
         11   -1    0    0    0    0 -0.00000000000E+00 -0.00000000000E+00 -0.45593999997E+02  0.45594000000E+02  0.51100000000E-03 0.  1.
         23    2    1    2    0    0  0.35527136788E-14 -0.88817841970E-15  0.35527136788E-14  0.91188000000E+02  0.91188000000E+02 0.  0.
    9900012    2    3    3    0    0  0.24452544790E+02 -0.68979894795E+01  0.26650902869E+02  0.54367084350E+02  0.40000000393E+02 0.  0.
        -12    1    3    3    0    0 -0.24452544790E+02  0.68979894795E+01 -0.26650902869E+02  0.36820915650E+02  0.00000000000E+00 0.  1.
         11    1    4    4    0    0  0.80815494232E+01  0.11403314756E+01  0.26671522231E+02  0.27892326818E+02  0.51100000000E-03 0. -1.
        -11    1    4    4    0    0 -0.23841049379E+01 -0.48293015555E+01 -0.43942284537E+01  0.69509246748E+01  0.51100000000E-03 0.  1.
        -12    1    4    4    0    0  0.18755100305E+02 -0.32090193996E+01  0.43736090918E+01  0.19523832858E+02  0.00000000000E+00 0.  1.
</event>
<event>
 8    1  0.2432279E-006  0.9118800E+02  0.7816164E-02  0.1184000E+00
        -11   -1    0    0    0    0  0.00000000000E+00  0.00000000000E+00  0.45593999997E+02  0.45594000000E+02  0.51100000000E-03 0.  1.
         11   -1    0    0    0    0 -0.00000000000E+00 -0.00000000000E+00 -0.45593999997E+02  0.45594000000E+02  0.51100000000E-03 0. -1.
         23    2    1    2    0    0  0.88817841970E-15  0.35527136788E-14  0.00000000000E+00  0.91188000000E+02  0.91188000000E+02 0.  0.
    9900012    2    3    3    0    0 -0.44490970416E+01  0.14758829094E+02 -0.33438941152E+02  0.54367078147E+02  0.39999986252E+02 0.  0.
        -12    1    3    3    0    0  0.44490970416E+01 -0.14758829094E+02  0.33438941152E+02  0.36820921853E+02  0.00000000000E+00 0.  1.
         11    1    4    4    0    0  0.46516937664E+01  0.16082915737E+02 -0.25079907436E+01  0.16928923513E+02  0.51100000000E-03 0.  1.
        -11    1    4    4    0    0 -0.12031806163E+02 -0.74342010735E+01 -0.18584241680E+02  0.23353923529E+02  0.51100000000E-03 0. -1.
        -12    1    4    4    0    0  0.29310153547E+01  0.61101144314E+01 -0.12346708729E+02  0.14084231105E+02  0.00000000000E+00 0.  1.
</event>
<event>
 8    1  0.2432279E-006  0.9118800E+02  0.7816164E-02  0.1184000E+00
        -11   -1    0    0    0    0  0.00000000000E+00  0.00000000000E+00  0.45593999997E+02  0.45594000000E+02  0.51100000000E-03 0.  1.
         11   -1    0    0    0    0 -0.00000000000E+00 -0.00000000000E+00 -0.45593999997E+02  0.45594000000E+02  0.51100000000E-03 0. -1.
         23    2    1    2    0    0  0.00000000000E+00 -0.35527136788E-14  0.35527136788E-14  0.91188000000E+02  0.91188000000E+02 0.  0.
    9900012    2    3    3    0    0  0.21246142050E+02  0.27223987635E+02 -0.12776400088E+02  0.54367075867E+02  0.39999981054E+02 0.  0.
        -12    1    3    3    0    0 -0.21246142050E+02 -0.27223987635E+02  0.12776400088E+02  0.36820924133E+02  0.00000000000E+00 0.  1.
         11    1    4    4    0    0  0.23065493779E+02  0.20137756314E+02 -0.85695940219E+01  0.31795977333E+02  0.51100000000E-03 0. -1.
        -11    1    4    4    0    0 -0.43910292408E+01  0.98124177868E+01  0.55650999785E+01  0.12105164957E+02  0.51100000000E-03 0.  1.
        -12    1    4    4    0    0  0.25716775123E+01 -0.27261864650E+01 -0.97719060449E+01  0.10465933576E+02  0.00000000000E+00 0.  1.
</event>
<event>
 8    1  0.2432279E-006  0.9118800E+02  0.7816164E-02  0.1184000E+00
        -11   -1    0    0    0    0  0.00000000000E+00  0.00000000000E+00  0.45593999997E+02  0.45594000000E+02  0.51100000000E-03 0.  1.
         11   -1    0    0    0    0 -0.00000000000E+00 -0.00000000000E+00 -0.45593999997E+02  0.45594000000E+02  0.51100000000E-03 0. -1.
         23    2    1    2    0    0 -0.35527136788E-14 -0.17763568394E-14 -0.35527136788E-14  0.91188000000E+02  0.91188000000E+02 0.  0.
    9900012    2    3    3    0    0  0.21199416940E+02  0.80813016651E+01  0.29000995221E+02  0.54367076071E+02  0.39999981518E+02 0.  0.
         12    1    3    3    0    0 -0.21199416940E+02 -0.80813016651E+01 -0.29000995221E+02  0.36820923929E+02  0.00000000000E+00 0. -1.
         11    1    4    4    0    0 -0.38277222351E+01  0.15874772052E+02  0.57114805027E+01  0.17299735692E+02  0.51100000000E-03 0. -1.
        -11    1    4    4    0    0  0.99748003073E+01  0.27353899868E+01  0.10072810881E+02  0.14437469268E+02  0.51100000000E-03 0.  1.
        -12    1    4    4    0    0  0.15052338868E+02 -0.10528860374E+02  0.13216703837E+02  0.22629871111E+02  0.00000000000E+00 0.  1.
</event>
<event>
 8    1  0.2432279E-006  0.9118800E+02  0.7816164E-02  0.1184000E+00
        -11   -1    0    0    0    0  0.00000000000E+00  0.00000000000E+00  0.45593999997E+02  0.45594000000E+02  0.51100000000E-03 0.  1.
         11   -1    0    0    0    0 -0.00000000000E+00 -0.00000000000E+00 -0.45593999997E+02  0.45594000000E+02  0.51100000000E-03 0. -1.
         23    2    1    2    0    0 -0.17763568394E-14  0.35527136788E-14 -0.35527136788E-14  0.91188000000E+02  0.91188000000E+02 0.  0.
    9900012    2    3    3    0    0  0.12108517796E+02 -0.18292408032E+02  0.29572807526E+02  0.54367090997E+02  0.40000015546E+02 0.  0.
         12    1    3    3    0    0 -0.12108517796E+02  0.18292408032E+02 -0.29572807526E+02  0.36820909003E+02  0.00000000000E+00 0. -1.
         11    1    4    4    0    0  0.67346555243E+01 -0.10403626324E+02  0.11670364191E+02  0.17023173216E+02  0.51100000000E-03 0. -1.
        -11    1    4    4    0    0 -0.53877235632E+01 -0.72195375071E+01  0.23519880583E+02  0.25185989556E+02  0.51100000000E-03 0.  1.
         12    1    4    4    0    0  0.10761585835E+02 -0.66924420055E+00 -0.56174372484E+01  0.12157928225E+02  0.00000000000E+00 0. -1.
</event>
<event>
 8    1  0.2432279E-006  0.9118800E+02  0.7816164E-02  0.1184000E+00
        -11   -1    0    0    0    0  0.00000000000E+00  0.00000000000E+00  0.45593999997E+02  0.45594000000E+02  0.51100000000E-03 0. -1.
         11   -1    0    0    0    0 -0.00000000000E+00 -0.00000000000E+00 -0.45593999997E+02  0.45594000000E+02  0.51100000000E-03 0.  1.
         23    2    1    2    0    0  0.35527136788E-14  0.35527136788E-14  0.00000000000E+00  0.91188000000E+02  0.91188000000E+02 0.  0.
    9900012    2    3    3    0    0  0.26377598451E+02  0.24965843988E+02 -0.60587605577E+01  0.54367086845E+02  0.40000006081E+02 0.  0.
         12    1    3    3    0    0 -0.26377598451E+02 -0.24965843988E+02  0.60587605577E+01  0.36820913155E+02  0.00000000000E+00 0. -1.
         11    1    4    4    0    0  0.86433089446E+01  0.14459133502E+02  0.37339027398E+01  0.17254430187E+02  0.51100000000E-03 0. -1.
        -11    1    4    4    0    0  0.13610205994E+01  0.14496817572E+02  0.42589188694E+01  0.15170645569E+02  0.51100000000E-03 0.  1.
         12    1    4    4    0    0  0.16373268907E+02 -0.39901070859E+01 -0.14051582167E+02  0.21942011089E+02  0.00000000000E+00 0. -1.
</event>
<event>
 8    1  0.2432279E-006  0.9118800E+02  0.7816164E-02  0.1184000E+00
        -11   -1    0    0    0    0  0.00000000000E+00  0.00000000000E+00  0.45593999997E+02  0.45594000000E+02  0.51100000000E-03 0.  1.
         11   -1    0    0    0    0 -0.00000000000E+00 -0.00000000000E+00 -0.45593999997E+02  0.45594000000E+02  0.51100000000E-03 0. -1.
         23    2    1    2    0    0  0.00000000000E+00  0.00000000000E+00  0.00000000000E+00  0.91188000000E+02  0.91188000000E+02 0.  0.
    9900012    2    3    3    0    0  0.24433809682E+02  0.19983389168E+02 -0.18958768799E+02  0.54367057418E+02  0.39999938996E+02 0.  0.
        -12    1    3    3    0    0 -0.24433809682E+02 -0.19983389168E+02  0.18958768799E+02  0.36820942582E+02  0.00000000000E+00 0.  1.
         11    1    4    4    0    0  0.14707572345E+02  0.93544164220E+01 -0.71412289886E+01  0.18836532128E+02  0.51100000000E-03 0. -1.
        -11    1    4    4    0    0  0.19797497960E+02  0.11505814813E+02 -0.53037112894E+01  0.23504341167E+02  0.51100000000E-03 0.  1.
        -12    1    4    4    0    0 -0.10071260624E+02 -0.87684206633E+00 -0.65138285208E+01  0.12026184123E+02  0.00000000000E+00 0.  1.
</event>
<event>
 8    1  0.2432279E-006  0.9118800E+02  0.7816164E-02  0.1184000E+00
        -11   -1    0    0    0    0  0.00000000000E+00  0.00000000000E+00  0.45593999997E+02  0.45594000000E+02  0.51100000000E-03 0.  1.
         11   -1    0    0    0    0 -0.00000000000E+00 -0.00000000000E+00 -0.45593999997E+02  0.45594000000E+02  0.51100000000E-03 0. -1.
         23    2    1    2    0    0  0.88817841970E-15  0.00000000000E+00  0.00000000000E+00  0.91188000000E+02  0.91188000000E+02 0.  0.
    9900012    2    3    3    0    0 -0.24329765125E+01  0.22270302415E+02  0.29221460504E+02  0.54367088844E+02  0.40000010637E+02 0.  0.
         12    1    3    3    0    0  0.24329765125E+01 -0.22270302415E+02 -0.29221460504E+02  0.36820911156E+02  0.00000000000E+00 0. -1.
         11    1    4    4    0    0  0.43639006167E+01  0.11392313880E+02  0.37779987545E+01  0.12771128337E+02  0.51100000000E-03 0. -1.
        -11    1    4    4    0    0  0.89520865946E+01  0.12166940510E+02  0.19606957983E+02  0.24750900941E+02  0.51100000000E-03 0.  1.
         12    1    4    4    0    0 -0.15748963724E+02 -0.12889519754E+01  0.58365037662E+01  0.16845059566E+02  0.00000000000E+00 0. -1.
</event>
<event>
 8    1  0.2432279E-006  0.9118800E+02  0.7816164E-02  0.1184000E+00
        -11   -1    0    0    0    0  0.00000000000E+00  0.00000000000E+00  0.45593999997E+02  0.45594000000E+02  0.51100000000E-03 0.  1.
         11   -1    0    0    0    0 -0.00000000000E+00 -0.00000000000E+00 -0.45593999997E+02  0.45594000000E+02  0.51100000000E-03 0. -1.
         23    2    1    2    0    0  0.13322676296E-14 -0.17763568394E-14  0.71054273576E-14  0.91188000000E+02  0.91188000000E+02 0.  0.
    9900012    2    3    3    0    0  0.20746095332E+01  0.10234236691E+02  0.35309165405E+02  0.54367071617E+02  0.39999971365E+02 0.  0.
         12    1    3    3    0    0 -0.20746095332E+01 -0.10234236691E+02 -0.35309165405E+02  0.36820928383E+02  0.00000000000E+00 0. -1.
         11    1    4    4    0    0 -0.64746556424E+01 -0.13758912119E+02  0.14033246808E+02  0.20692047859E+02  0.51100000000E-03 0. -1.
        -11    1    4    4    0    0  0.63871925224E+01  0.12818624749E+02  0.14731882537E+02  0.20546088000E+02  0.51100000000E-03 0.  1.
         12    1    4    4    0    0  0.21620726531E+01  0.11174524062E+02  0.65440360604E+01  0.13128935757E+02  0.00000000000E+00 0. -1.
</event>
<event>
 8    1  0.2432279E-006  0.9118800E+02  0.7816164E-02  0.1184000E+00
        -11   -1    0    0    0    0  0.00000000000E+00  0.00000000000E+00  0.45593999997E+02  0.45594000000E+02  0.51100000000E-03 0. -1.
         11   -1    0    0    0    0 -0.00000000000E+00 -0.00000000000E+00 -0.45593999997E+02  0.45594000000E+02  0.51100000000E-03 0.  1.
         23    2    1    2    0    0  0.00000000000E+00  0.00000000000E+00  0.00000000000E+00  0.91188000000E+02  0.91188000000E+02 0.  0.
    9900012    2    3    3    0    0  0.23358331117E+02 -0.25444790954E+02  0.12756628026E+02  0.54367074185E+02  0.39999977220E+02 0.  0.
        -12    1    3    3    0    0 -0.23358331117E+02  0.25444790954E+02 -0.12756628026E+02  0.36820925815E+02  0.00000000000E+00 0.  1.
         11    1    4    4    0    0 -0.29476727841E+01 -0.98464829907E+01  0.10988775406E+02  0.15046434372E+02  0.51100000000E-03 0. -1.
        -11    1    4    4    0    0  0.17024243339E+02 -0.91711141468E+01 -0.11024197648E+02  0.22259090952E+02  0.51100000000E-03 0.  1.
        -12    1    4    4    0    0  0.92817605625E+01 -0.64271938163E+01  0.12792050268E+02  0.17061548861E+02  0.00000000000E+00 0.  1.
</event>
<event>
 8    1  0.2432279E-006  0.9118800E+02  0.7816164E-02  0.1184000E+00
        -11   -1    0    0    0    0  0.00000000000E+00  0.00000000000E+00  0.45593999997E+02  0.45594000000E+02  0.51100000000E-03 0.  1.
         11   -1    0    0    0    0 -0.00000000000E+00 -0.00000000000E+00 -0.45593999997E+02  0.45594000000E+02  0.51100000000E-03 0. -1.
         23    2    1    2    0    0  0.26645352591E-14 -0.35527136788E-14  0.00000000000E+00  0.91188000000E+02  0.91188000000E+02 0.  0.
    9900012    2    3    3    0    0  0.43829292503E+01  0.22906164568E+02 -0.28493528007E+02  0.54367033387E+02  0.39999884212E+02 0.  0.
        -12    1    3    3    0    0 -0.43829292503E+01 -0.22906164568E+02  0.28493528007E+02  0.36820966613E+02  0.00000000000E+00 0.  1.
         11    1    4    4    0    0  0.19011294490E+02  0.13852023135E+02 -0.16105864694E+02  0.28508011872E+02  0.51100000000E-03 0. -1.
        -11    1    4    4    0    0 -0.61141053417E+01  0.12150149765E+02 -0.81573178415E+01  0.15860336001E+02  0.51100000000E-03 0.  1.
        -12    1    4    4    0    0 -0.85142598980E+01 -0.30960083314E+01 -0.42303454716E+01  0.99986855140E+01  0.00000000000E+00 0.  1.
</event>
<event>
 8    1  0.2432279E-006  0.9118800E+02  0.7816164E-02  0.1184000E+00
        -11   -1    0    0    0    0  0.00000000000E+00  0.00000000000E+00  0.45593999997E+02  0.45594000000E+02  0.51100000000E-03 0.  1.
         11   -1    0    0    0    0 -0.00000000000E+00 -0.00000000000E+00 -0.45593999997E+02  0.45594000000E+02  0.51100000000E-03 0. -1.
         23    2    1    2    0    0 -0.88817841970E-15  0.00000000000E+00  0.00000000000E+00  0.91188000000E+02  0.91188000000E+02 0.  0.
    9900012    2    3    3    0    0 -0.49099493338E+01 -0.18931183169E+02 -0.31197480022E+02  0.54367081240E+02  0.39999993302E+02 0.  0.
        -12    1    3    3    0    0  0.49099493338E+01  0.18931183169E+02  0.31197480022E+02  0.36820918760E+02  0.00000000000E+00 0.  1.
         11    1    4    4    0    0  0.77399183868E+01 -0.74512391776E+01 -0.61140914191E+01  0.12361610577E+02  0.51100000000E-03 0. -1.
        -11    1    4    4    0    0 -0.27668815532E+01  0.78873726617E+01  0.56897763930E+00  0.83779482482E+01  0.51100000000E-03 0.  1.
         12    1    4    4    0    0 -0.98829861674E+01 -0.19367316653E+02 -0.25652366242E+02  0.33627522415E+02  0.00000000000E+00 0. -1.
</event>
<event>
 8    1  0.2432279E-006  0.9118800E+02  0.7816164E-02  0.1184000E+00
        -11   -1    0    0    0    0  0.00000000000E+00  0.00000000000E+00  0.45593999997E+02  0.45594000000E+02  0.51100000000E-03 0.  1.
         11   -1    0    0    0    0 -0.00000000000E+00 -0.00000000000E+00 -0.45593999997E+02  0.45594000000E+02  0.51100000000E-03 0. -1.
         23    2    1    2    0    0  0.00000000000E+00 -0.71054273576E-14  0.17763568394E-14  0.91188000000E+02  0.91188000000E+02 0.  0.
    9900012    2    3    3    0    0 -0.85331014044E+01  0.33055724943E+02 -0.13794375312E+02  0.54367087988E+02  0.40000008687E+02 0.  0.
        -12    1    3    3    0    0  0.85331014044E+01 -0.33055724943E+02  0.13794375312E+02  0.36820912012E+02  0.00000000000E+00 0.  1.
         11    1    4    4    0    0  0.10606977173E+02  0.94497567540E+01 -0.17183337155E+02  0.22295132731E+02  0.51100000000E-03 0. -1.
        -11    1    4    4    0    0 -0.12997174233E+02  0.21981651479E+02  0.25797496903E+01  0.25666605707E+02  0.51100000000E-03 0.  1.
        -12    1    4    4    0    0 -0.61429043440E+01  0.16243167099E+01  0.80921215207E+00  0.64053495502E+01  0.00000000000E+00 0.  1.
</event>
<event>
 8    1  0.2432279E-006  0.9118800E+02  0.7816164E-02  0.1184000E+00
        -11   -1    0    0    0    0  0.00000000000E+00  0.00000000000E+00  0.45593999997E+02  0.45594000000E+02  0.51100000000E-03 0.  1.
         11   -1    0    0    0    0 -0.00000000000E+00 -0.00000000000E+00 -0.45593999997E+02  0.45594000000E+02  0.51100000000E-03 0. -1.
         23    2    1    2    0    0  0.00000000000E+00 -0.88817841970E-15  0.00000000000E+00  0.91188000000E+02  0.91188000000E+02 0.  0.
    9900012    2    3    3    0    0  0.25415308634E+02  0.20420132809E+01  0.26564485084E+02  0.54367087478E+02  0.40000007523E+02 0.  0.
         12    1    3    3    0    0 -0.25415308634E+02 -0.20420132809E+01 -0.26564485084E+02  0.36820912522E+02  0.00000000000E+00 0. -1.
         11    1    4    4    0    0 -0.26526735938E+01 -0.30022166307E+01  0.88812328679E+01  0.97430118243E+01  0.51100000000E-03 0. -1.
        -11    1    4    4    0    0 -0.17510828817E+01 -0.34707240613E+01  0.12616590552E+02  0.13201915550E+02  0.51100000000E-03 0.  1.
        -12    1    4    4    0    0  0.29819065110E+02  0.85149539729E+01  0.50666616640E+01  0.31422160104E+02  0.00000000000E+00 0.  1.
</event>
<event>
 8    1  0.2432279E-006  0.9118800E+02  0.7816164E-02  0.1184000E+00
        -11   -1    0    0    0    0  0.00000000000E+00  0.00000000000E+00  0.45593999997E+02  0.45594000000E+02  0.51100000000E-03 0. -1.
         11   -1    0    0    0    0 -0.00000000000E+00 -0.00000000000E+00 -0.45593999997E+02  0.45594000000E+02  0.51100000000E-03 0.  1.
         23    2    1    2    0    0 -0.17763568394E-14 -0.17763568394E-14 -0.35527136788E-14  0.91188000000E+02  0.91188000000E+02 0.  0.
    9900012    2    3    3    0    0  0.11604808779E+02  0.15022857773E+02  0.31550335545E+02  0.54367061453E+02  0.39999948195E+02 0.  0.
         12    1    3    3    0    0 -0.11604808779E+02 -0.15022857773E+02 -0.31550335545E+02  0.36820938547E+02  0.00000000000E+00 0. -1.
         11    1    4    4    0    0 -0.25701567294E+01 -0.78587052100E+00  0.12650026678E+02  0.12932380805E+02  0.51100000000E-03 0. -1.
        -11    1    4    4    0    0  0.62702577505E+01  0.24096137256E+02  0.16080565006E+02  0.29639914542E+02  0.51100000000E-03 0.  1.
         12    1    4    4    0    0  0.79047077582E+01 -0.82874089615E+01  0.28197438614E+01  0.11794766105E+02  0.00000000000E+00 0. -1.
</event>
<event>
 8    1  0.2432279E-006  0.9118800E+02  0.7816164E-02  0.1184000E+00
        -11   -1    0    0    0    0  0.00000000000E+00  0.00000000000E+00  0.45593999997E+02  0.45594000000E+02  0.51100000000E-03 0.  1.
         11   -1    0    0    0    0 -0.00000000000E+00 -0.00000000000E+00 -0.45593999997E+02  0.45594000000E+02  0.51100000000E-03 0. -1.
         23    2    1    2    0    0  0.17763568394E-14 -0.17763568394E-14  0.00000000000E+00  0.91188000000E+02  0.91188000000E+02 0.  0.
    9900012    2    3    3    0    0 -0.11868055487E+02  0.15083407394E+02  0.31423276498E+02  0.54367051811E+02  0.39999926213E+02 0.  0.
         12    1    3    3    0    0  0.11868055487E+02 -0.15083407394E+02 -0.31423276498E+02  0.36820948189E+02  0.00000000000E+00 0. -1.
         11    1    4    4    0    0 -0.57922469224E+01  0.16228671445E+02  0.16896439273E+02  0.24133163108E+02  0.51100000000E-03 0. -1.
        -11    1    4    4    0    0 -0.47732121303E+01  0.12019184081E+02  0.96458707581E+01  0.16133417585E+02  0.51100000000E-03 0.  1.
         12    1    4    4    0    0 -0.13025964345E+01 -0.13164448132E+02  0.48809664677E+01  0.14100471118E+02  0.00000000000E+00 0. -1.
</event>
<event>
 8    1  0.2432279E-006  0.9118800E+02  0.7816164E-02  0.1184000E+00
        -11   -1    0    0    0    0  0.00000000000E+00  0.00000000000E+00  0.45593999997E+02  0.45594000000E+02  0.51100000000E-03 0.  1.
         11   -1    0    0    0    0 -0.00000000000E+00 -0.00000000000E+00 -0.45593999997E+02  0.45594000000E+02  0.51100000000E-03 0. -1.
         23    2    1    2    0    0 -0.17763568394E-14  0.00000000000E+00  0.00000000000E+00  0.91188000000E+02  0.91188000000E+02 0.  0.
    9900012    2    3    3    0    0 -0.10318504122E+02  0.20382702053E+02 -0.28876541711E+02  0.54367072099E+02  0.39999972465E+02 0.  0.
        -12    1    3    3    0    0  0.10318504122E+02 -0.20382702053E+02  0.28876541711E+02  0.36820927901E+02  0.00000000000E+00 0.  1.
         11    1    4    4    0    0 -0.65023364668E+01 -0.18689657467E+01 -0.23883898112E+02  0.24823658106E+02  0.51100000000E-03 0. -1.
        -11    1    4    4    0    0 -0.99101734192E+01  0.16376442725E+02 -0.77350172288E+01  0.20645336164E+02  0.51100000000E-03 0.  1.
         12    1    4    4    0    0  0.60940057641E+01  0.58752250740E+01  0.27423736299E+01  0.88980778289E+01  0.00000000000E+00 0. -1.
</event>
<event>
 8    1  0.2432279E-006  0.9118800E+02  0.7816164E-02  0.1184000E+00
        -11   -1    0    0    0    0  0.00000000000E+00  0.00000000000E+00  0.45593999997E+02  0.45594000000E+02  0.51100000000E-03 0. -1.
         11   -1    0    0    0    0 -0.00000000000E+00 -0.00000000000E+00 -0.45593999997E+02  0.45594000000E+02  0.51100000000E-03 0.  1.
         23    2    1    2    0    0  0.44408920985E-15  0.00000000000E+00  0.00000000000E+00  0.91188000000E+02  0.91188000000E+02 0.  0.
    9900012    2    3    3    0    0 -0.20166335840E+01  0.85763930999E+01 -0.35751346215E+02  0.54367080867E+02  0.39999992453E+02 0.  0.
         12    1    3    3    0    0  0.20166335840E+01 -0.85763930999E+01  0.35751346215E+02  0.36820919133E+02  0.00000000000E+00 0. -1.
         11    1    4    4    0    0  0.10926519134E+01 -0.23478933138E+01 -0.13927334721E+02  0.14166056047E+02  0.51100000000E-03 0. -1.
        -11    1    4    4    0    0 -0.14427350843E+02  0.15041812624E+02 -0.18072228886E+02  0.27586410360E+02  0.51100000000E-03 0.  1.
         12    1    4    4    0    0  0.11318065346E+02 -0.41175262102E+01 -0.37517826073E+01  0.12614614461E+02  0.00000000000E+00 0. -1.
</event>
<event>
 8    1  0.2432279E-006  0.9118800E+02  0.7816164E-02  0.1184000E+00
        -11   -1    0    0    0    0  0.00000000000E+00  0.00000000000E+00  0.45593999997E+02  0.45594000000E+02  0.51100000000E-03 0. -1.
         11   -1    0    0    0    0 -0.00000000000E+00 -0.00000000000E+00 -0.45593999997E+02  0.45594000000E+02  0.51100000000E-03 0.  1.
         23    2    1    2    0    0 -0.88817841970E-15  0.00000000000E+00  0.00000000000E+00  0.91188000000E+02  0.91188000000E+02 0.  0.
    9900012    2    3    3    0    0  0.24282519849E+01  0.14292454915E+02 -0.33846848035E+02  0.54367084787E+02  0.40000001388E+02 0.  0.
         12    1    3    3    0    0 -0.24282519849E+01 -0.14292454915E+02  0.33846848035E+02  0.36820915213E+02  0.00000000000E+00 0. -1.
         11    1    4    4    0    0  0.14852901720E+02  0.21507181566E+01 -0.27501193448E+02  0.31329697084E+02  0.51100000000E-03 0. -1.
        -11    1    4    4    0    0  0.10515269518E+00 -0.25211217543E+01  0.49807662299E+00  0.25720016666E+01  0.51100000000E-03 0.  1.
        -12    1    4    4    0    0 -0.12529802430E+02  0.14662858513E+02 -0.68437312105E+01  0.20465386036E+02  0.00000000000E+00 0.  1.
</event>
<event>
 8    1  0.2432279E-006  0.9118800E+02  0.7816164E-02  0.1184000E+00
        -11   -1    0    0    0    0  0.00000000000E+00  0.00000000000E+00  0.45593999997E+02  0.45594000000E+02  0.51100000000E-03 0. -1.
         11   -1    0    0    0    0 -0.00000000000E+00 -0.00000000000E+00 -0.45593999997E+02  0.45594000000E+02  0.51100000000E-03 0.  1.
         23    2    1    2    0    0  0.00000000000E+00  0.17763568394E-14 -0.17763568394E-14  0.91188000000E+02  0.91188000000E+02 0.  0.
    9900012    2    3    3    0    0  0.31570666366E+02 -0.11876256042E+02 -0.14765749762E+02  0.54367084769E+02  0.40000001349E+02 0.  0.
         12    1    3    3    0    0 -0.31570666366E+02  0.11876256042E+02  0.14765749762E+02  0.36820915231E+02  0.00000000000E+00 0. -1.
         11    1    4    4    0    0  0.13021818052E+02  0.51091152705E+01 -0.24039630860E+00  0.13990303602E+02  0.51100000000E-03 0. -1.
        -11    1    4    4    0    0 -0.61094469954E+01  0.18990174272E+01 -0.41714772212E+01  0.76375933543E+01  0.51100000000E-03 0.  1.
        -12    1    4    4    0    0  0.24658295310E+02 -0.18884388739E+02 -0.10353876232E+02  0.32739187813E+02  0.00000000000E+00 0.  1.
</event>
<event>
 8    1  0.2432279E-006  0.9118800E+02  0.7816164E-02  0.1184000E+00
        -11   -1    0    0    0    0  0.00000000000E+00  0.00000000000E+00  0.45593999997E+02  0.45594000000E+02  0.51100000000E-03 0. -1.
         11   -1    0    0    0    0 -0.00000000000E+00 -0.00000000000E+00 -0.45593999997E+02  0.45594000000E+02  0.51100000000E-03 0.  1.
         23    2    1    2    0    0  0.00000000000E+00  0.00000000000E+00 -0.17763568394E-14  0.91188000000E+02  0.91188000000E+02 0.  0.
    9900012    2    3    3    0    0 -0.10772532070E+02 -0.33978612508E+02  0.92296498067E+01  0.54367082158E+02  0.39999995396E+02 0.  0.
         12    1    3    3    0    0  0.10772532070E+02  0.33978612508E+02 -0.92296498067E+01  0.36820917842E+02  0.00000000000E+00 0. -1.
         11    1    4    4    0    0  0.33667775927E+00 -0.38957289402E+01  0.16897569881E+02  0.17344103437E+02  0.51100000000E-03 0. -1.
        -11    1    4    4    0    0 -0.14148350387E+02 -0.22410055558E+02 -0.10188996746E+02  0.28393697606E+02  0.51100000000E-03 0.  1.
        -12    1    4    4    0    0  0.30391405575E+01 -0.76728280093E+01  0.25210766717E+01  0.86292811157E+01  0.00000000000E+00 0.  1.
</event>
<event>
 8    1  0.2432279E-006  0.9118800E+02  0.7816164E-02  0.1184000E+00
        -11   -1    0    0    0    0  0.00000000000E+00  0.00000000000E+00  0.45593999997E+02  0.45594000000E+02  0.51100000000E-03 0. -1.
         11   -1    0    0    0    0 -0.00000000000E+00 -0.00000000000E+00 -0.45593999997E+02  0.45594000000E+02  0.51100000000E-03 0.  1.
         23    2    1    2    0    0  0.00000000000E+00  0.00000000000E+00 -0.88817841970E-15  0.91188000000E+02  0.91188000000E+02 0.  0.
    9900012    2    3    3    0    0 -0.32975550904E+02 -0.14565785043E+02 -0.74986999417E+01  0.54367088113E+02  0.40000008972E+02 0.  0.
        -12    1    3    3    0    0  0.32975550904E+02  0.14565785043E+02  0.74986999417E+01  0.36820911887E+02  0.00000000000E+00 0.  1.
         11    1    4    4    0    0 -0.20168391401E+02 -0.11275299664E+02 -0.14150696991E+02  0.27094992523E+02  0.51100000000E-03 0. -1.
        -11    1    4    4    0    0 -0.48882376134E+01 -0.76473699271E+01 -0.66064518838E+01  0.11225967242E+02  0.51100000000E-03 0.  1.
         12    1    4    4    0    0 -0.79189218893E+01  0.43568845479E+01  0.13258448933E+02  0.16046128348E+02  0.00000000000E+00 0. -1.
</event>
<event>
 8    1  0.2432279E-006  0.9118800E+02  0.7816164E-02  0.1184000E+00
        -11   -1    0    0    0    0  0.00000000000E+00  0.00000000000E+00  0.45593999997E+02  0.45594000000E+02  0.51100000000E-03 0.  1.
         11   -1    0    0    0    0 -0.00000000000E+00 -0.00000000000E+00 -0.45593999997E+02  0.45594000000E+02  0.51100000000E-03 0. -1.
         23    2    1    2    0    0  0.14210854715E-13 -0.24980018054E-15  0.17763568394E-14  0.91188000000E+02  0.91188000000E+02 0.  0.
    9900012    2    3    3    0    0 -0.35677742694E+02  0.14738152929E+00 -0.91025396534E+01  0.54367091902E+02  0.40000017609E+02 0.  0.
        -12    1    3    3    0    0  0.35677742694E+02 -0.14738152929E+00  0.91025396534E+01  0.36820908098E+02  0.00000000000E+00 0.  1.
         11    1    4    4    0    0  0.65880792626E+00  0.49330891483E+01 -0.12181491805E+02  0.13158956619E+02  0.51100000000E-03 0. -1.
        -11    1    4    4    0    0  0.20444328438E+01 -0.14632559260E+01  0.70231078247E+00  0.26103762668E+01  0.51100000000E-03 0.  1.
         12    1    4    4    0    0 -0.38380983464E+02 -0.33224516930E+01  0.23766413694E+01  0.38597759016E+02  0.00000000000E+00 0. -1.
</event>
<event>
 8    1  0.2432279E-006  0.9118800E+02  0.7816164E-02  0.1184000E+00
        -11   -1    0    0    0    0  0.00000000000E+00  0.00000000000E+00  0.45593999997E+02  0.45594000000E+02  0.51100000000E-03 0.  1.
         11   -1    0    0    0    0 -0.00000000000E+00 -0.00000000000E+00 -0.45593999997E+02  0.45594000000E+02  0.51100000000E-03 0. -1.
         23    2    1    2    0    0  0.88817841970E-15  0.00000000000E+00 -0.13322676296E-14  0.91188000000E+02  0.91188000000E+02 0.  0.
    9900012    2    3    3    0    0  0.42666101473E+01  0.36397420341E+02  0.35784723512E+01  0.54367059844E+02  0.39999944525E+02 0.  0.
         12    1    3    3    0    0 -0.42666101473E+01 -0.36397420341E+02 -0.35784723512E+01  0.36820940156E+02  0.00000000000E+00 0. -1.
         11    1    4    4    0    0  0.53074685318E+01 -0.12247418441E+01 -0.62821711727E+01  0.83147393047E+01  0.51100000000E-03 0. -1.
        -11    1    4    4    0    0  0.70984772944E+01  0.10140967619E+02  0.12091913487E+02  0.17304391818E+02  0.51100000000E-03 0.  1.
        -12    1    4    4    0    0 -0.81393356789E+01  0.27481194567E+02 -0.22312699633E+01  0.28747928721E+02  0.00000000000E+00 0.  1.
</event>
<event>
 8    1  0.2432279E-006  0.9118800E+02  0.7816164E-02  0.1184000E+00
        -11   -1    0    0    0    0  0.00000000000E+00  0.00000000000E+00  0.45593999997E+02  0.45594000000E+02  0.51100000000E-03 0.  1.
         11   -1    0    0    0    0 -0.00000000000E+00 -0.00000000000E+00 -0.45593999997E+02  0.45594000000E+02  0.51100000000E-03 0. -1.
         23    2    1    2    0    0  0.00000000000E+00 -0.17763568394E-14 -0.88817841970E-15  0.91188000000E+02  0.91188000000E+02 0.  0.
    9900012    2    3    3    0    0 -0.34922675370E+02  0.88085349464E+01 -0.76550786107E+01  0.54367030819E+02  0.39999878358E+02 0.  0.
         12    1    3    3    0    0  0.34922675370E+02 -0.88085349464E+01  0.76550786107E+01  0.36820969181E+02  0.00000000000E+00 0. -1.
         11    1    4    4    0    0 -0.16890368468E+02  0.20857417314E+02 -0.31803029850E+01  0.27026482038E+02  0.51100000000E-03 0. -1.
        -11    1    4    4    0    0  0.24533920122E+01  0.93371055618E+00  0.23085983640E+00  0.26351934072E+01  0.51100000000E-03 0.  1.
        -12    1    4    4    0    0 -0.20485698915E+02 -0.12982592924E+02 -0.47056354621E+01  0.24705355374E+02  0.00000000000E+00 0.  1.
</event>
<event>
 8    1  0.2432279E-006  0.9118800E+02  0.7816164E-02  0.1184000E+00
        -11   -1    0    0    0    0  0.00000000000E+00  0.00000000000E+00  0.45593999997E+02  0.45594000000E+02  0.51100000000E-03 0. -1.
         11   -1    0    0    0    0 -0.00000000000E+00 -0.00000000000E+00 -0.45593999997E+02  0.45594000000E+02  0.51100000000E-03 0.  1.
         23    2    1    2    0    0  0.00000000000E+00  0.00000000000E+00  0.00000000000E+00  0.91188000000E+02  0.91188000000E+02 0.  0.
    9900012    2    3    3    0    0  0.11948712501E+02 -0.27413093752E+02  0.21483248459E+02  0.54367090128E+02  0.40000013564E+02 0.  0.
        -12    1    3    3    0    0 -0.11948712501E+02  0.27413093752E+02 -0.21483248459E+02  0.36820909872E+02  0.00000000000E+00 0.  1.
         11    1    4    4    0    0  0.23549993133E+02 -0.20949044602E+02  0.17715155863E+02  0.36156484810E+02  0.51100000000E-03 0. -1.
        -11    1    4    4    0    0 -0.82374824631E+01  0.19768657139E+01  0.33648754113E+01  0.91151797665E+01  0.51100000000E-03 0.  1.
         12    1    4    4    0    0 -0.33637981688E+01 -0.84409148633E+01  0.40321718419E+00  0.90954255506E+01  0.00000000000E+00 0. -1.
</event>
<event>
 8    1  0.2432279E-006  0.9118800E+02  0.7816164E-02  0.1184000E+00
        -11   -1    0    0    0    0  0.00000000000E+00  0.00000000000E+00  0.45593999997E+02  0.45594000000E+02  0.51100000000E-03 0.  1.
         11   -1    0    0    0    0 -0.00000000000E+00 -0.00000000000E+00 -0.45593999997E+02  0.45594000000E+02  0.51100000000E-03 0. -1.
         23    2    1    2    0    0 -0.17763568394E-14  0.35527136788E-14  0.35527136788E-14  0.91188000000E+02  0.91188000000E+02 0.  0.
    9900012    2    3    3    0    0 -0.92807764746E+01  0.20911507891E+02  0.28850581175E+02  0.54367081919E+02  0.39999994850E+02 0.  0.
         12    1    3    3    0    0  0.92807764746E+01 -0.20911507891E+02 -0.28850581175E+02  0.36820918081E+02  0.00000000000E+00 0. -1.
         11    1    4    4    0    0 -0.44590058009E+00 -0.46540064071E+01  0.32949082972E+00  0.46869144896E+01  0.51100000000E-03 0. -1.
        -11    1    4    4    0    0 -0.59205307248E-01 -0.18017314583E+01  0.19463525586E+02  0.19546830178E+02  0.51100000000E-03 0.  1.
         12    1    4    4    0    0 -0.87756705873E+01  0.27367245756E+02  0.90575647594E+01  0.30133337251E+02  0.00000000000E+00 0. -1.
</event>
<event>
 8    1  0.2432279E-006  0.9118800E+02  0.7816164E-02  0.1184000E+00
        -11   -1    0    0    0    0  0.00000000000E+00  0.00000000000E+00  0.45593999997E+02  0.45594000000E+02  0.51100000000E-03 0. -1.
         11   -1    0    0    0    0 -0.00000000000E+00 -0.00000000000E+00 -0.45593999997E+02  0.45594000000E+02  0.51100000000E-03 0.  1.
         23    2    1    2    0    0  0.00000000000E+00  0.00000000000E+00  0.00000000000E+00  0.91188000000E+02  0.91188000000E+02 0.  0.
    9900012    2    3    3    0    0 -0.27041743168E+02 -0.20804868129E+02 -0.13844911634E+02  0.54367082173E+02  0.39999995430E+02 0.  0.
        -12    1    3    3    0    0  0.27041743168E+02  0.20804868129E+02  0.13844911634E+02  0.36820917827E+02  0.00000000000E+00 0.  1.
         11    1    4    4    0    0 -0.14565589429E+02 -0.17956719734E+02 -0.78414583858E+01  0.24414926764E+02  0.51100000000E-03 0. -1.
        -11    1    4    4    0    0  0.49823783291E+01  0.67235538507E+01  0.18130206499E+01  0.85625530267E+01  0.51100000000E-03 0.  1.
         12    1    4    4    0    0 -0.17458532068E+02 -0.95717022455E+01 -0.78164738983E+01  0.21389602382E+02  0.00000000000E+00 0. -1.
</event>
<event>
 8    1  0.2432279E-006  0.9118800E+02  0.7816164E-02  0.1184000E+00
        -11   -1    0    0    0    0  0.00000000000E+00  0.00000000000E+00  0.45593999997E+02  0.45594000000E+02  0.51100000000E-03 0.  1.
         11   -1    0    0    0    0 -0.00000000000E+00 -0.00000000000E+00 -0.45593999997E+02  0.45594000000E+02  0.51100000000E-03 0. -1.
         23    2    1    2    0    0 -0.17763568394E-14 -0.71054273576E-14  0.00000000000E+00  0.91188000000E+02  0.91188000000E+02 0.  0.
    9900012    2    3    3    0    0  0.19311667398E+01 -0.32962929628E+02  0.16294025457E+02  0.54367090176E+02  0.40000013675E+02 0.  0.
         12    1    3    3    0    0 -0.19311667398E+01  0.32962929628E+02 -0.16294025457E+02  0.36820909824E+02  0.00000000000E+00 0. -1.
         11    1    4    4    0    0 -0.18195939730E+01  0.20587977336E+01  0.88310485118E+00  0.28860777491E+01  0.51100000000E-03 0. -1.
        -11    1    4    4    0    0 -0.14199303097E+02 -0.23555525672E+02  0.57795395035E+01  0.28104911942E+02  0.51100000000E-03 0.  1.
         12    1    4    4    0    0  0.17950063810E+02 -0.11466201689E+02  0.96313811020E+01  0.23376100485E+02  0.00000000000E+00 0. -1.
</event>
<event>
 8    1  0.2432279E-006  0.9118800E+02  0.7816164E-02  0.1184000E+00
        -11   -1    0    0    0    0  0.00000000000E+00  0.00000000000E+00  0.45593999997E+02  0.45594000000E+02  0.51100000000E-03 0. -1.
         11   -1    0    0    0    0 -0.00000000000E+00 -0.00000000000E+00 -0.45593999997E+02  0.45594000000E+02  0.51100000000E-03 0.  1.
         23    2    1    2    0    0  0.35527136788E-14  0.17763568394E-14  0.00000000000E+00  0.91188000000E+02  0.91188000000E+02 0.  0.
    9900012    2    3    3    0    0  0.22896775294E+02 -0.86207100743E+01  0.27517276097E+02  0.54367089571E+02  0.40000012294E+02 0.  0.
        -12    1    3    3    0    0 -0.22896775294E+02  0.86207100743E+01 -0.27517276097E+02  0.36820910429E+02  0.00000000000E+00 0.  1.
         11    1    4    4    0    0  0.19143224014E+02 -0.73343092635E+01  0.13087427529E+02  0.24321510595E+02  0.51100000000E-03 0. -1.
        -11    1    4    4    0    0  0.56563170751E+01  0.48109768547E+01 -0.54200724597E+01  0.91932914063E+01  0.51100000000E-03 0.  1.
        -12    1    4    4    0    0 -0.19027657958E+01 -0.60973776655E+01  0.19849921028E+02  0.20852287570E+02  0.00000000000E+00 0.  1.
</event>
<event>
 8    1  0.2432279E-006  0.9118800E+02  0.7816164E-02  0.1184000E+00
        -11   -1    0    0    0    0  0.00000000000E+00  0.00000000000E+00  0.45593999997E+02  0.45594000000E+02  0.51100000000E-03 0.  1.
         11   -1    0    0    0    0 -0.00000000000E+00 -0.00000000000E+00 -0.45593999997E+02  0.45594000000E+02  0.51100000000E-03 0. -1.
         23    2    1    2    0    0  0.00000000000E+00  0.00000000000E+00 -0.35527136788E-14  0.91188000000E+02  0.91188000000E+02 0.  0.
    9900012    2    3    3    0    0 -0.28847643638E+02 -0.81277177790E+01 -0.21390045854E+02  0.54367076582E+02  0.39999982684E+02 0.  0.
        -12    1    3    3    0    0  0.28847643638E+02  0.81277177790E+01  0.21390045854E+02  0.36820923418E+02  0.00000000000E+00 0.  1.
         11    1    4    4    0    0 -0.53695074148E+01 -0.11400735092E+02 -0.86101676199E+01  0.15262482013E+02  0.51100000000E-03 0. -1.
        -11    1    4    4    0    0 -0.19316132886E+02 -0.18874845220E+01 -0.20966333760E+02  0.28570312199E+02  0.51100000000E-03 0.  1.
        -12    1    4    4    0    0 -0.41620033365E+01  0.51605018347E+01  0.81864555267E+01  0.10534282370E+02  0.00000000000E+00 0.  1.
</event>
<event>
 8    1  0.2432279E-006  0.9118800E+02  0.7816164E-02  0.1184000E+00
        -11   -1    0    0    0    0  0.00000000000E+00  0.00000000000E+00  0.45593999997E+02  0.45594000000E+02  0.51100000000E-03 0. -1.
         11   -1    0    0    0    0 -0.00000000000E+00 -0.00000000000E+00 -0.45593999997E+02  0.45594000000E+02  0.51100000000E-03 0.  1.
         23    2    1    2    0    0  0.00000000000E+00  0.00000000000E+00  0.00000000000E+00  0.91188000000E+02  0.91188000000E+02 0.  0.
    9900012    2    3    3    0    0  0.16560871202E+02 -0.11426910054E+02  0.30837400423E+02  0.54367054966E+02  0.39999933405E+02 0.  0.
        -12    1    3    3    0    0 -0.16560871202E+02  0.11426910054E+02 -0.30837400423E+02  0.36820945034E+02  0.00000000000E+00 0.  1.
         11    1    4    4    0    0  0.10070986163E+02 -0.39092403415E+01  0.39760049763E+00  0.10810412053E+02  0.51100000000E-03 0. -1.
        -11    1    4    4    0    0  0.16389549558E+02 -0.79127070036E+01  0.98196337511E+01  0.20679784189E+02  0.51100000000E-03 0.  1.
        -12    1    4    4    0    0 -0.98996645179E+01  0.39503729104E+00  0.20620166174E+02  0.22876858724E+02  0.00000000000E+00 0.  1.
</event>
<event>
 8    1  0.2432279E-006  0.9118800E+02  0.7816164E-02  0.1184000E+00
        -11   -1    0    0    0    0  0.00000000000E+00  0.00000000000E+00  0.45593999997E+02  0.45594000000E+02  0.51100000000E-03 0.  1.
         11   -1    0    0    0    0 -0.00000000000E+00 -0.00000000000E+00 -0.45593999997E+02  0.45594000000E+02  0.51100000000E-03 0. -1.
         23    2    1    2    0    0 -0.35527136788E-14  0.00000000000E+00 -0.35527136788E-14  0.91188000000E+02  0.91188000000E+02 0.  0.
    9900012    2    3    3    0    0 -0.13207730827E+02 -0.21836359038E+02  0.26542774935E+02  0.54366951252E+02  0.39999696968E+02 0.  0.
         12    1    3    3    0    0  0.13207730827E+02  0.21836359038E+02 -0.26542774935E+02  0.36821048748E+02  0.00000000000E+00 0. -1.
         11    1    4    4    0    0  0.60552864776E+00 -0.12309930359E+02 -0.22202556786E+01  0.12523201904E+02  0.51100000000E-03 0. -1.
        -11    1    4    4    0    0  0.41829854036E+01 -0.64581011723E+01  0.20323777958E+02  0.21731552830E+02  0.51100000000E-03 0.  1.
        -12    1    4    4    0    0 -0.17996244878E+02 -0.30683275068E+01  0.84392526559E+01  0.20112196518E+02  0.00000000000E+00 0.  1.
</event>
<event>
 8    1  0.2432279E-006  0.9118800E+02  0.7816164E-02  0.1184000E+00
        -11   -1    0    0    0    0  0.00000000000E+00  0.00000000000E+00  0.45593999997E+02  0.45594000000E+02  0.51100000000E-03 0. -1.
         11   -1    0    0    0    0 -0.00000000000E+00 -0.00000000000E+00 -0.45593999997E+02  0.45594000000E+02  0.51100000000E-03 0.  1.
         23    2    1    2    0    0 -0.35527136788E-14  0.00000000000E+00  0.00000000000E+00  0.91188000000E+02  0.91188000000E+02 0.  0.
    9900012    2    3    3    0    0  0.13619619174E+02 -0.16023445809E+02  0.30224740648E+02  0.54367084894E+02  0.40000001633E+02 0.  0.
        -12    1    3    3    0    0 -0.13619619174E+02  0.16023445809E+02 -0.30224740648E+02  0.36820915106E+02  0.00000000000E+00 0.  1.
         11    1    4    4    0    0  0.14222033085E+02 -0.13137334787E+01  0.14957219850E+02  0.20681164054E+02  0.51100000000E-03 0. -1.
        -11    1    4    4    0    0 -0.63872575622E+01 -0.53035311782E+01  0.20013066641E+02  0.21666733459E+02  0.51100000000E-03 0.  1.
        -12    1    4    4    0    0  0.57848436506E+01 -0.94061811526E+01 -0.47455458441E+01  0.12019187381E+02  0.00000000000E+00 0.  1.
</event>
<event>
 8    1  0.2432279E-006  0.9118800E+02  0.7816164E-02  0.1184000E+00
        -11   -1    0    0    0    0  0.00000000000E+00  0.00000000000E+00  0.45593999997E+02  0.45594000000E+02  0.51100000000E-03 0. -1.
         11   -1    0    0    0    0 -0.00000000000E+00 -0.00000000000E+00 -0.45593999997E+02  0.45594000000E+02  0.51100000000E-03 0.  1.
         23    2    1    2    0    0 -0.35527136788E-14  0.17763568394E-14  0.00000000000E+00  0.91188000000E+02  0.91188000000E+02 0.  0.
    9900012    2    3    3    0    0 -0.26578557528E+02 -0.80022351884E+01  0.24193419251E+02  0.54367122453E+02  0.40000087257E+02 0.  0.
        -12    1    3    3    0    0  0.26578557528E+02  0.80022351884E+01 -0.24193419251E+02  0.36820877547E+02  0.00000000000E+00 0.  1.
         11    1    4    4    0    0 -0.19031251309E+02 -0.73435696199E+01  0.28119718618E+02  0.34739532474E+02  0.51100000000E-03 0. -1.
        -11    1    4    4    0    0 -0.24680588778E+01 -0.65862254423E+01 -0.81392672682E+01  0.10757200013E+02  0.51100000000E-03 0.  1.
        -12    1    4    4    0    0 -0.50792473408E+01  0.59275598738E+01  0.42129679013E+01  0.88703899657E+01  0.00000000000E+00 0.  1.
</event>
<event>
 8    1  0.2432279E-006  0.9118800E+02  0.7816164E-02  0.1184000E+00
        -11   -1    0    0    0    0  0.00000000000E+00  0.00000000000E+00  0.45593999997E+02  0.45594000000E+02  0.51100000000E-03 0. -1.
         11   -1    0    0    0    0 -0.00000000000E+00 -0.00000000000E+00 -0.45593999997E+02  0.45594000000E+02  0.51100000000E-03 0.  1.
         23    2    1    2    0    0  0.00000000000E+00  0.00000000000E+00 -0.17763568394E-14  0.91188000000E+02  0.91188000000E+02 0.  0.
    9900012    2    3    3    0    0 -0.22085501765E+01  0.33599270327E+02  0.14899410514E+02  0.54367067175E+02  0.39999961240E+02 0.  0.
        -12    1    3    3    0    0  0.22085501765E+01 -0.33599270327E+02 -0.14899410514E+02  0.36820932825E+02  0.00000000000E+00 0.  1.
         11    1    4    4    0    0 -0.19341500266E+01  0.71557676789E+01 -0.31031757133E+01  0.80358974090E+01  0.51100000000E-03 0. -1.
        -11    1    4    4    0    0  0.57016222698E+00  0.21177045043E+02  0.27933749316E+02  0.35058332431E+02  0.51100000000E-03 0.  1.
        -12    1    4    4    0    0 -0.84456237694E+00  0.52664576053E+01 -0.99311630880E+01  0.11272837336E+02  0.00000000000E+00 0.  1.
</event>
<event>
 8    1  0.2432279E-006  0.9118800E+02  0.7816164E-02  0.1184000E+00
        -11   -1    0    0    0    0  0.00000000000E+00  0.00000000000E+00  0.45593999997E+02  0.45594000000E+02  0.51100000000E-03 0. -1.
         11   -1    0    0    0    0 -0.00000000000E+00 -0.00000000000E+00 -0.45593999997E+02  0.45594000000E+02  0.51100000000E-03 0.  1.
         23    2    1    2    0    0  0.00000000000E+00  0.00000000000E+00  0.00000000000E+00  0.91188000000E+02  0.91188000000E+02 0.  0.
    9900012    2    3    3    0    0 -0.11754600354E+02 -0.33785471006E+02 -0.87264586456E+01  0.54367085277E+02  0.40000002505E+02 0.  0.
         12    1    3    3    0    0  0.11754600354E+02  0.33785471006E+02  0.87264586456E+01  0.36820914723E+02  0.00000000000E+00 0. -1.
         11    1    4    4    0    0  0.32634180282E+01  0.23819754383E+01 -0.88865658097E+00  0.41368363511E+01  0.51100000000E-03 0. -1.
        -11    1    4    4    0    0  0.12543929333E+01 -0.31984107694E+02 -0.81228869266E+00  0.32019001542E+02  0.51100000000E-03 0.  1.
        -12    1    4    4    0    0 -0.16272411315E+02 -0.41833387506E+01 -0.70255133720E+01  0.18211247383E+02  0.00000000000E+00 0.  1.
</event>
<event>
 8    1  0.2432279E-006  0.9118800E+02  0.7816164E-02  0.1184000E+00
        -11   -1    0    0    0    0  0.00000000000E+00  0.00000000000E+00  0.45593999997E+02  0.45594000000E+02  0.51100000000E-03 0. -1.
         11   -1    0    0    0    0 -0.00000000000E+00 -0.00000000000E+00 -0.45593999997E+02  0.45594000000E+02  0.51100000000E-03 0.  1.
         23    2    1    2    0    0  0.44408920985E-15  0.00000000000E+00  0.00000000000E+00  0.91188000000E+02  0.91188000000E+02 0.  0.
    9900012    2    3    3    0    0 -0.37998832567E+01 -0.27081845638E+02  0.24655930068E+02  0.54367077097E+02  0.39999983858E+02 0.  0.
        -12    1    3    3    0    0  0.37998832567E+01  0.27081845638E+02 -0.24655930068E+02  0.36820922903E+02  0.00000000000E+00 0.  1.
         11    1    4    4    0    0 -0.82298207557E+01 -0.28713020051E+02  0.25994774926E+02  0.39596663924E+02  0.51100000000E-03 0. -1.
        -11    1    4    4    0    0  0.87222147578E+01 -0.21416002799E+01 -0.11281129888E+01  0.90518573352E+01  0.51100000000E-03 0.  1.
         12    1    4    4    0    0 -0.42922772588E+01  0.37727746933E+01 -0.21073186950E+00  0.57185558381E+01  0.00000000000E+00 0. -1.
</event>
<event>
 8    1  0.2432279E-006  0.9118800E+02  0.7816164E-02  0.1184000E+00
        -11   -1    0    0    0    0  0.00000000000E+00  0.00000000000E+00  0.45593999997E+02  0.45594000000E+02  0.51100000000E-03 0. -1.
         11   -1    0    0    0    0 -0.00000000000E+00 -0.00000000000E+00 -0.45593999997E+02  0.45594000000E+02  0.51100000000E-03 0.  1.
         23    2    1    2    0    0  0.00000000000E+00 -0.35527136788E-14  0.88817841970E-15  0.91188000000E+02  0.91188000000E+02 0.  0.
    9900012    2    3    3    0    0 -0.22785562927E+02 -0.27844570775E+02 -0.78280798958E+01  0.54367070702E+02  0.39999969278E+02 0.  0.
        -12    1    3    3    0    0  0.22785562927E+02  0.27844570775E+02  0.78280798958E+01  0.36820929298E+02  0.00000000000E+00 0.  1.
         11    1    4    4    0    0 -0.22689094287E+01 -0.24536483283E+02  0.26639361547E+01  0.24784743654E+02  0.51100000000E-03 0. -1.
        -11    1    4    4    0    0 -0.21646838910E+02 -0.15541865996E+01 -0.13765804537E+02  0.25700165478E+02  0.51100000000E-03 0.  1.
         12    1    4    4    0    0  0.11301854114E+01 -0.17539008927E+01  0.32737884862E+01  0.38821615703E+01  0.00000000000E+00 0. -1.
</event>
<event>
 8    1  0.2432279E-006  0.9118800E+02  0.7816164E-02  0.1184000E+00
        -11   -1    0    0    0    0  0.00000000000E+00  0.00000000000E+00  0.45593999997E+02  0.45594000000E+02  0.51100000000E-03 0. -1.
         11   -1    0    0    0    0 -0.00000000000E+00 -0.00000000000E+00 -0.45593999997E+02  0.45594000000E+02  0.51100000000E-03 0.  1.
         23    2    1    2    0    0  0.17763568394E-14  0.00000000000E+00 -0.35527136788E-14  0.91188000000E+02  0.91188000000E+02 0.  0.
    9900012    2    3    3    0    0 -0.98860310996E+01 -0.19384310171E+02  0.29703444641E+02  0.54367085899E+02  0.40000003924E+02 0.  0.
        -12    1    3    3    0    0  0.98860310996E+01  0.19384310171E+02 -0.29703444641E+02  0.36820914101E+02  0.00000000000E+00 0.  1.
         11    1    4    4    0    0 -0.14927053288E+02 -0.23287357455E+01  0.22823530578E+02  0.27370668212E+02  0.51100000000E-03 0. -1.
        -11    1    4    4    0    0 -0.42088304038E+01 -0.13487293512E+02 -0.12376702659E+01  0.14182847655E+02  0.51100000000E-03 0.  1.
        -12    1    4    4    0    0  0.92498525923E+01 -0.35682809134E+01  0.81175843282E+01  0.12813570033E+02  0.00000000000E+00 0.  1.
</event>
<event>
 8    1  0.2432279E-006  0.9118800E+02  0.7816164E-02  0.1184000E+00
        -11   -1    0    0    0    0  0.00000000000E+00  0.00000000000E+00  0.45593999997E+02  0.45594000000E+02  0.51100000000E-03 0.  1.
         11   -1    0    0    0    0 -0.00000000000E+00 -0.00000000000E+00 -0.45593999997E+02  0.45594000000E+02  0.51100000000E-03 0. -1.
         23    2    1    2    0    0  0.88817841970E-15  0.00000000000E+00 -0.71054273576E-14  0.91188000000E+02  0.91188000000E+02 0.  0.
    9900012    2    3    3    0    0  0.59136992359E+01  0.94663755014E+01 -0.35088420999E+02  0.54367063130E+02  0.39999952017E+02 0.  0.
        -12    1    3    3    0    0 -0.59136992359E+01 -0.94663755014E+01  0.35088420999E+02  0.36820936870E+02  0.00000000000E+00 0.  1.
         11    1    4    4    0    0 -0.91489907343E+01 -0.11384557994E+02 -0.15870898583E+02  0.21568440238E+02  0.51100000000E-03 0. -1.
        -11    1    4    4    0    0  0.15267133534E+02  0.17562382049E+02 -0.17169367215E+02  0.28919021429E+02  0.51100000000E-03 0.  1.
        -12    1    4    4    0    0 -0.20444356416E+00  0.32885514459E+01 -0.20481552007E+01  0.38796014627E+01  0.00000000000E+00 0.  1.
</event>
<event>
 8    1  0.2432279E-006  0.9118800E+02  0.7816164E-02  0.1184000E+00
        -11   -1    0    0    0    0  0.00000000000E+00  0.00000000000E+00  0.45593999997E+02  0.45594000000E+02  0.51100000000E-03 0.  1.
         11   -1    0    0    0    0 -0.00000000000E+00 -0.00000000000E+00 -0.45593999997E+02  0.45594000000E+02  0.51100000000E-03 0. -1.
         23    2    1    2    0    0  0.00000000000E+00  0.00000000000E+00 -0.35527136788E-14  0.91188000000E+02  0.91188000000E+02 0.  0.
    9900012    2    3    3    0    0  0.24373836161E+02 -0.14519362741E+02  0.23470910526E+02  0.54367089846E+02  0.40000012922E+02 0.  0.
         12    1    3    3    0    0 -0.24373836161E+02  0.14519362741E+02 -0.23470910526E+02  0.36820910154E+02  0.00000000000E+00 0. -1.
         11    1    4    4    0    0  0.18712098007E+02  0.30336342321E+01  0.72948323875E+01  0.20311576214E+02  0.51100000000E-03 0. -1.
        -11    1    4    4    0    0 -0.82830519272E+00 -0.20503374438E+02  0.55463740547E+01  0.21256451215E+02  0.51100000000E-03 0.  1.
        -12    1    4    4    0    0  0.64900433464E+01  0.29503774648E+01  0.10629704084E+02  0.12799062417E+02  0.00000000000E+00 0.  1.
</event>
<event>
 8    1  0.2432279E-006  0.9118800E+02  0.7816164E-02  0.1184000E+00
        -11   -1    0    0    0    0  0.00000000000E+00  0.00000000000E+00  0.45593999997E+02  0.45594000000E+02  0.51100000000E-03 0. -1.
         11   -1    0    0    0    0 -0.00000000000E+00 -0.00000000000E+00 -0.45593999997E+02  0.45594000000E+02  0.51100000000E-03 0.  1.
         23    2    1    2    0    0  0.00000000000E+00  0.00000000000E+00 -0.44408920985E-15  0.91188000000E+02  0.91188000000E+02 0.  0.
    9900012    2    3    3    0    0 -0.35080366685E+02 -0.11138706010E+02 -0.10382431103E+01  0.54367070529E+02  0.39999968886E+02 0.  0.
         12    1    3    3    0    0  0.35080366685E+02  0.11138706010E+02  0.10382431103E+01  0.36820929471E+02  0.00000000000E+00 0. -1.
         11    1    4    4    0    0  0.48335164962E+01  0.17938330390E+01  0.37531154425E+01  0.63770364964E+01  0.51100000000E-03 0. -1.
        -11    1    4    4    0    0 -0.32167526866E+02  0.37172860718E+00 -0.52121066130E+01  0.32589170325E+02  0.51100000000E-03 0.  1.
         12    1    4    4    0    0 -0.77463563145E+01 -0.13304267657E+02  0.42074806010E+00  0.15400863708E+02  0.00000000000E+00 0. -1.
</event>
<event>
 8    1  0.2432279E-006  0.9118800E+02  0.7816164E-02  0.1184000E+00
        -11   -1    0    0    0    0  0.00000000000E+00  0.00000000000E+00  0.45593999997E+02  0.45594000000E+02  0.51100000000E-03 0.  1.
         11   -1    0    0    0    0 -0.00000000000E+00 -0.00000000000E+00 -0.45593999997E+02  0.45594000000E+02  0.51100000000E-03 0. -1.
         23    2    1    2    0    0 -0.35527136788E-14  0.00000000000E+00 -0.35527136788E-14  0.91188000000E+02  0.91188000000E+02 0.  0.
    9900012    2    3    3    0    0 -0.21284060961E+02  0.84703422749E+01 -0.28827444976E+02  0.54367088372E+02  0.40000009562E+02 0.  0.
        -12    1    3    3    0    0  0.21284060961E+02 -0.84703422749E+01  0.28827444976E+02  0.36820911628E+02  0.00000000000E+00 0.  1.
         11    1    4    4    0    0 -0.45567908085E+01 -0.38837289954E+01 -0.20153959736E+02  0.21024504434E+02  0.51100000000E-03 0. -1.
        -11    1    4    4    0    0 -0.38720319816E+01  0.17169738851E+02 -0.86575703537E+01  0.19614945541E+02  0.51100000000E-03 0.  1.
        -12    1    4    4    0    0 -0.12855238171E+02 -0.48156675812E+01 -0.15914886272E-01  0.13727638397E+02  0.00000000000E+00 0.  1.
</event>
<event>
 8    1  0.2432279E-006  0.9118800E+02  0.7816164E-02  0.1184000E+00
        -11   -1    0    0    0    0  0.00000000000E+00  0.00000000000E+00  0.45593999997E+02  0.45594000000E+02  0.51100000000E-03 0. -1.
         11   -1    0    0    0    0 -0.00000000000E+00 -0.00000000000E+00 -0.45593999997E+02  0.45594000000E+02  0.51100000000E-03 0.  1.
         23    2    1    2    0    0  0.17763568394E-14  0.00000000000E+00  0.35527136788E-14  0.91188000000E+02  0.91188000000E+02 0.  0.
    9900012    2    3    3    0    0  0.15751078564E+02 -0.29738549226E+02  0.14943292285E+02  0.54367085151E+02  0.40000002219E+02 0.  0.
        -12    1    3    3    0    0 -0.15751078564E+02  0.29738549226E+02 -0.14943292285E+02  0.36820914849E+02  0.00000000000E+00 0.  1.
         11    1    4    4    0    0  0.21104179347E+02 -0.16784238030E+02  0.22050131823E+02  0.34832532865E+02  0.51100000000E-03 0. -1.
        -11    1    4    4    0    0  0.11245660411E+01  0.17443715041E+01 -0.13278434511E+01  0.24638687499E+01  0.51100000000E-03 0.  1.
        -12    1    4    4    0    0 -0.64776668241E+01 -0.14698682700E+02 -0.57789960867E+01  0.17070683536E+02  0.00000000000E+00 0.  1.
</event>
<event>
 8    1  0.2432279E-006  0.9118800E+02  0.7816164E-02  0.1184000E+00
        -11   -1    0    0    0    0  0.00000000000E+00  0.00000000000E+00  0.45593999997E+02  0.45594000000E+02  0.51100000000E-03 0.  1.
         11   -1    0    0    0    0 -0.00000000000E+00 -0.00000000000E+00 -0.45593999997E+02  0.45594000000E+02  0.51100000000E-03 0. -1.
         23    2    1    2    0    0  0.33306690739E-15  0.88817841970E-15 -0.71054273576E-14  0.91188000000E+02  0.91188000000E+02 0.  0.
    9900012    2    3    3    0    0 -0.76716847342E+00 -0.75995836255E+01  0.36019958936E+02  0.54367086642E+02  0.40000005619E+02 0.  0.
         12    1    3    3    0    0  0.76716847342E+00  0.75995836255E+01 -0.36019958936E+02  0.36820913358E+02  0.00000000000E+00 0. -1.
         11    1    4    4    0    0 -0.39569666495E+01 -0.12586585418E+02  0.39995599131E+01  0.13786812442E+02  0.51100000000E-03 0. -1.
        -11    1    4    4    0    0 -0.75768845514E+01  0.75052147183E+01  0.58364657607E+01  0.12157374729E+02  0.51100000000E-03 0.  1.
        -12    1    4    4    0    0  0.10766682727E+02 -0.25182129260E+01  0.26183933262E+02  0.28422899471E+02  0.00000000000E+00 0.  1.
</event>
<event>
 8    1  0.2432279E-006  0.9118800E+02  0.7816164E-02  0.1184000E+00
        -11   -1    0    0    0    0  0.00000000000E+00  0.00000000000E+00  0.45593999997E+02  0.45594000000E+02  0.51100000000E-03 0. -1.
         11   -1    0    0    0    0 -0.00000000000E+00 -0.00000000000E+00 -0.45593999997E+02  0.45594000000E+02  0.51100000000E-03 0.  1.
         23    2    1    2    0    0  0.00000000000E+00 -0.88817841970E-15  0.00000000000E+00  0.91188000000E+02  0.91188000000E+02 0.  0.
    9900012    2    3    3    0    0 -0.26956226119E+02  0.66924104462E+01 -0.24173405106E+02  0.54367082051E+02  0.39999995151E+02 0.  0.
         12    1    3    3    0    0  0.26956226119E+02 -0.66924104462E+01  0.24173405106E+02  0.36820917949E+02  0.00000000000E+00 0. -1.
         11    1    4    4    0    0  0.21639113962E+01  0.42599594911E+01 -0.79729125350E+01  0.92950041392E+01  0.51100000000E-03 0. -1.
        -11    1    4    4    0    0  0.22481303216E+01  0.93050548756E+01 -0.63325479986E+01  0.11477774200E+02  0.51100000000E-03 0.  1.
         12    1    4    4    0    0 -0.31368267837E+02 -0.68726039205E+01 -0.98679445729E+01  0.33594303711E+02  0.00000000000E+00 0. -1.
</event>
<event>
 8    1  0.2432279E-006  0.9118800E+02  0.7816164E-02  0.1184000E+00
        -11   -1    0    0    0    0  0.00000000000E+00  0.00000000000E+00  0.45593999997E+02  0.45594000000E+02  0.51100000000E-03 0. -1.
         11   -1    0    0    0    0 -0.00000000000E+00 -0.00000000000E+00 -0.45593999997E+02  0.45594000000E+02  0.51100000000E-03 0.  1.
         23    2    1    2    0    0  0.00000000000E+00  0.35527136788E-14  0.00000000000E+00  0.91188000000E+02  0.91188000000E+02 0.  0.
    9900012    2    3    3    0    0 -0.16654300288E+02  0.25278313957E+02  0.20962327060E+02  0.54367108778E+02  0.40000056081E+02 0.  0.
        -12    1    3    3    0    0  0.16654300288E+02 -0.25278313957E+02 -0.20962327060E+02  0.36820891222E+02  0.00000000000E+00 0.  1.
         11    1    4    4    0    0 -0.21327238663E+01  0.59342537934E+01  0.94365693170E+00  0.63760777787E+01  0.51100000000E-03 0. -1.
        -11    1    4    4    0    0 -0.45545164758E+01  0.28949926253E+02  0.16797579456E+02  0.33778699297E+02  0.51100000000E-03 0.  1.
        -12    1    4    4    0    0 -0.99670599462E+01 -0.96058660890E+01  0.32210906721E+01  0.14212331702E+02  0.00000000000E+00 0.  1.
</event>
<event>
 8    1  0.2432279E-006  0.9118800E+02  0.7816164E-02  0.1184000E+00
        -11   -1    0    0    0    0  0.00000000000E+00  0.00000000000E+00  0.45593999997E+02  0.45594000000E+02  0.51100000000E-03 0. -1.
         11   -1    0    0    0    0 -0.00000000000E+00 -0.00000000000E+00 -0.45593999997E+02  0.45594000000E+02  0.51100000000E-03 0.  1.
         23    2    1    2    0    0 -0.17763568394E-14  0.35527136788E-14 -0.71054273576E-14  0.91188000000E+02  0.91188000000E+02 0.  0.
    9900012    2    3    3    0    0  0.15959623542E+02 -0.27918022950E+02  0.17934777660E+02  0.54367057064E+02  0.39999938188E+02 0.  0.
        -12    1    3    3    0    0 -0.15959623542E+02  0.27918022950E+02 -0.17934777660E+02  0.36820942936E+02  0.00000000000E+00 0.  1.
         11    1    4    4    0    0 -0.20162298630E+00 -0.22687113623E+02  0.19495410112E+02  0.29913488464E+02  0.51100000000E-03 0. -1.
        -11    1    4    4    0    0  0.82048466563E+01  0.61563091498E+01 -0.24071742444E+01  0.10536324744E+02  0.51100000000E-03 0.  1.
        -12    1    4    4    0    0  0.79563998717E+01 -0.11387218477E+02  0.84654179185E+00  0.13917243857E+02  0.00000000000E+00 0.  1.
</event>
<event>
 8    1  0.2432279E-006  0.9118800E+02  0.7816164E-02  0.1184000E+00
        -11   -1    0    0    0    0  0.00000000000E+00  0.00000000000E+00  0.45593999997E+02  0.45594000000E+02  0.51100000000E-03 0. -1.
         11   -1    0    0    0    0 -0.00000000000E+00 -0.00000000000E+00 -0.45593999997E+02  0.45594000000E+02  0.51100000000E-03 0.  1.
         23    2    1    2    0    0  0.00000000000E+00  0.00000000000E+00  0.00000000000E+00  0.91188000000E+02  0.91188000000E+02 0.  0.
    9900012    2    3    3    0    0  0.25823386051E+02 -0.27867768318E+01 -0.26099166980E+02  0.54367083264E+02  0.39999997916E+02 0.  0.
         12    1    3    3    0    0 -0.25823386051E+02  0.27867768318E+01  0.26099166980E+02  0.36820916736E+02  0.00000000000E+00 0. -1.
         11    1    4    4    0    0 -0.59173248433E+01 -0.12775958287E+01 -0.13220912712E+02  0.14540959996E+02  0.51100000000E-03 0. -1.
        -11    1    4    4    0    0  0.32651119429E+02  0.32240522690E+01 -0.10483949604E+02  0.34444205791E+02  0.51100000000E-03 0.  1.
        -12    1    4    4    0    0 -0.91040853426E+00 -0.47332332721E+01 -0.23943046646E+01  0.53819174775E+01  0.00000000000E+00 0.  1.
</event>
<event>
 8    1  0.2432279E-006  0.9118800E+02  0.7816164E-02  0.1184000E+00
        -11   -1    0    0    0    0  0.00000000000E+00  0.00000000000E+00  0.45593999997E+02  0.45594000000E+02  0.51100000000E-03 0. -1.
         11   -1    0    0    0    0 -0.00000000000E+00 -0.00000000000E+00 -0.45593999997E+02  0.45594000000E+02  0.51100000000E-03 0.  1.
         23    2    1    2    0    0  0.00000000000E+00  0.00000000000E+00  0.00000000000E+00  0.91188000000E+02  0.91188000000E+02 0.  0.
    9900012    2    3    3    0    0 -0.15497811463E+02  0.32832581434E+02  0.61335496193E+01  0.54367068525E+02  0.39999964315E+02 0.  0.
        -12    1    3    3    0    0  0.15497811463E+02 -0.32832581434E+02 -0.61335496193E+01  0.36820931475E+02  0.00000000000E+00 0.  1.
         11    1    4    4    0    0 -0.10174509001E+02  0.18553746977E+02 -0.17539839116E+00  0.21161118240E+02  0.51100000000E-03 0. -1.
        -11    1    4    4    0    0 -0.15708738244E+02  0.11409917978E+02 -0.21139221441E+01  0.19529960383E+02  0.51100000000E-03 0.  1.
         12    1    4    4    0    0  0.10385435782E+02  0.28689164791E+01  0.84228701545E+01  0.13675989901E+02  0.00000000000E+00 0. -1.
</event>
<event>
 8    1  0.2432279E-006  0.9118800E+02  0.7816164E-02  0.1184000E+00
        -11   -1    0    0    0    0  0.00000000000E+00  0.00000000000E+00  0.45593999997E+02  0.45594000000E+02  0.51100000000E-03 0.  1.
         11   -1    0    0    0    0 -0.00000000000E+00 -0.00000000000E+00 -0.45593999997E+02  0.45594000000E+02  0.51100000000E-03 0. -1.
         23    2    1    2    0    0  0.71054273576E-14 -0.35527136788E-14 -0.17763568394E-14  0.91188000000E+02  0.91188000000E+02 0.  0.
    9900012    2    3    3    0    0  0.33346466109E+02 -0.13027962358E+02 -0.86061044283E+01  0.54367086940E+02  0.40000006297E+02 0.  0.
         12    1    3    3    0    0 -0.33346466109E+02  0.13027962358E+02  0.86061044283E+01  0.36820913060E+02  0.00000000000E+00 0. -1.
         11    1    4    4    0    0  0.28378163236E+02 -0.21063247618E+02 -0.39604384266E+01  0.35562137473E+02  0.51100000000E-03 0. -1.
        -11    1    4    4    0    0  0.85964181618E+01  0.94108221217E+01 -0.67158583341E+01  0.14407106984E+02  0.51100000000E-03 0.  1.
        -12    1    4    4    0    0 -0.36281152894E+01 -0.13755368623E+01  0.20701923324E+01  0.43978424830E+01  0.00000000000E+00 0.  1.
</event>
<event>
 8    1  0.2432279E-006  0.9118800E+02  0.7816164E-02  0.1184000E+00
        -11   -1    0    0    0    0  0.00000000000E+00  0.00000000000E+00  0.45593999997E+02  0.45594000000E+02  0.51100000000E-03 0.  1.
         11   -1    0    0    0    0 -0.00000000000E+00 -0.00000000000E+00 -0.45593999997E+02  0.45594000000E+02  0.51100000000E-03 0. -1.
         23    2    1    2    0    0 -0.35527136788E-14  0.35527136788E-14 -0.88817841970E-15  0.91188000000E+02  0.91188000000E+02 0.  0.
    9900012    2    3    3    0    0 -0.25034664191E+02  0.26551553585E+02  0.49051674733E+01  0.54367080988E+02  0.39999992728E+02 0.  0.
        -12    1    3    3    0    0  0.25034664191E+02 -0.26551553585E+02 -0.49051674733E+01  0.36820919012E+02  0.00000000000E+00 0.  1.
         11    1    4    4    0    0  0.52581070679E+01  0.88831148768E+00 -0.30798684527E+01  0.61581147427E+01  0.51100000000E-03 0.  1.
        -11    1    4    4    0    0 -0.15575011047E+02  0.19503783242E+01 -0.62306932446E+01  0.16888057416E+02  0.51100000000E-03 0. -1.
         12    1    4    4    0    0 -0.14717760212E+02  0.23712863774E+02  0.14215729171E+02  0.31320908829E+02  0.00000000000E+00 0. -1.
</event>
<event>
 8    1  0.2432279E-006  0.9118800E+02  0.7816164E-02  0.1184000E+00
        -11   -1    0    0    0    0  0.00000000000E+00  0.00000000000E+00  0.45593999997E+02  0.45594000000E+02  0.51100000000E-03 0.  1.
         11   -1    0    0    0    0 -0.00000000000E+00 -0.00000000000E+00 -0.45593999997E+02  0.45594000000E+02  0.51100000000E-03 0. -1.
         23    2    1    2    0    0  0.00000000000E+00  0.00000000000E+00  0.22204460493E-15  0.91188000000E+02  0.91188000000E+02 0.  0.
    9900012    2    3    3    0    0 -0.35552888850E+02 -0.94817895982E+01  0.13662552416E+01  0.54367097065E+02  0.40000029379E+02 0.  0.
        -12    1    3    3    0    0  0.35552888850E+02  0.94817895982E+01 -0.13662552416E+01  0.36820902935E+02  0.00000000000E+00 0.  1.
         11    1    4    4    0    0 -0.26949202096E+02  0.84765044852E+01 -0.41334994611E+01  0.28551645135E+02  0.51100000000E-03 0. -1.
        -11    1    4    4    0    0 -0.37312826204E+01 -0.82543557741E+01  0.10494480534E+02  0.13863296187E+02  0.51100000000E-03 0.  1.
        -12    1    4    4    0    0 -0.48724041342E+01 -0.97039383092E+01 -0.49947258311E+01  0.11952155742E+02  0.00000000000E+00 0.  1.
</event>
<event>
 8    1  0.2432279E-006  0.9118800E+02  0.7816164E-02  0.1184000E+00
        -11   -1    0    0    0    0  0.00000000000E+00  0.00000000000E+00  0.45593999997E+02  0.45594000000E+02  0.51100000000E-03 0.  1.
         11   -1    0    0    0    0 -0.00000000000E+00 -0.00000000000E+00 -0.45593999997E+02  0.45594000000E+02  0.51100000000E-03 0. -1.
         23    2    1    2    0    0  0.17763568394E-14  0.35527136788E-14  0.00000000000E+00  0.91188000000E+02  0.91188000000E+02 0.  0.
    9900012    2    3    3    0    0 -0.12486261246E+02 -0.19366230785E+02  0.28719603518E+02  0.54367173815E+02  0.40000204345E+02 0.  0.
         12    1    3    3    0    0  0.12486261246E+02  0.19366230785E+02 -0.28719603518E+02  0.36820826185E+02  0.00000000000E+00 0. -1.
         11    1    4    4    0    0 -0.65983602015E+01  0.81061255837E+01  0.10883872271E+02  0.15089940530E+02  0.51100000000E-03 0. -1.
        -11    1    4    4    0    0 -0.31848089562E+01 -0.20900481813E+02  0.11865816935E+01  0.21175011794E+02  0.51100000000E-03 0.  1.
        -12    1    4    4    0    0 -0.27030920887E+01 -0.65718745555E+01  0.16649149554E+02  0.18102221490E+02  0.00000000000E+00 0.  1.
</event>
<event>
 8    1  0.2432279E-006  0.9118800E+02  0.7816164E-02  0.1184000E+00
        -11   -1    0    0    0    0  0.00000000000E+00  0.00000000000E+00  0.45593999997E+02  0.45594000000E+02  0.51100000000E-03 0. -1.
         11   -1    0    0    0    0 -0.00000000000E+00 -0.00000000000E+00 -0.45593999997E+02  0.45594000000E+02  0.51100000000E-03 0.  1.
         23    2    1    2    0    0  0.35527136788E-14  0.00000000000E+00  0.00000000000E+00  0.91188000000E+02  0.91188000000E+02 0.  0.
    9900012    2    3    3    0    0  0.26529141277E+02 -0.23253842232E+02 -0.10547255552E+02  0.54367066889E+02  0.39999960588E+02 0.  0.
         12    1    3    3    0    0 -0.26529141277E+02  0.23253842232E+02  0.10547255552E+02  0.36820933111E+02  0.00000000000E+00 0. -1.
         11    1    4    4    0    0  0.26387475853E+02 -0.15673127398E+02  0.82916763502E+01  0.31791472148E+02  0.51100000000E-03 0. -1.
        -11    1    4    4    0    0  0.42769806528E+01 -0.44442582421E+01 -0.14685125925E+02  0.15927866101E+02  0.51100000000E-03 0.  1.
         12    1    4    4    0    0 -0.41353152288E+01 -0.31364565913E+01 -0.41538059765E+01  0.66477286408E+01  0.00000000000E+00 0. -1.
</event>
<event>
 8    1  0.2432279E-006  0.9118800E+02  0.7816164E-02  0.1184000E+00
        -11   -1    0    0    0    0  0.00000000000E+00  0.00000000000E+00  0.45593999997E+02  0.45594000000E+02  0.51100000000E-03 0.  1.
         11   -1    0    0    0    0 -0.00000000000E+00 -0.00000000000E+00 -0.45593999997E+02  0.45594000000E+02  0.51100000000E-03 0. -1.
         23    2    1    2    0    0  0.00000000000E+00  0.00000000000E+00 -0.88817841970E-15  0.91188000000E+02  0.91188000000E+02 0.  0.
    9900012    2    3    3    0    0 -0.26549864524E+02  0.25366756231E+02  0.27225860103E+01  0.54367080640E+02  0.39999991934E+02 0.  0.
        -12    1    3    3    0    0  0.26549864524E+02 -0.25366756231E+02 -0.27225860103E+01  0.36820919360E+02  0.00000000000E+00 0.  1.
         11    1    4    4    0    0 -0.54805933302E+01  0.44539550157E+01  0.43866365364E+01  0.83136754144E+01  0.51100000000E-03 0.  1.
        -11    1    4    4    0    0 -0.17089351707E+02  0.20230629491E+02  0.13945564011E+02  0.29929969382E+02  0.51100000000E-03 0. -1.
         12    1    4    4    0    0 -0.39799194868E+01  0.68217172460E+00 -0.15609614537E+02  0.16123435843E+02  0.00000000000E+00 0. -1.
</event>
<event>
 8    1  0.2432279E-006  0.9118800E+02  0.7816164E-02  0.1184000E+00
        -11   -1    0    0    0    0  0.00000000000E+00  0.00000000000E+00  0.45593999997E+02  0.45594000000E+02  0.51100000000E-03 0. -1.
         11   -1    0    0    0    0 -0.00000000000E+00 -0.00000000000E+00 -0.45593999997E+02  0.45594000000E+02  0.51100000000E-03 0.  1.
         23    2    1    2    0    0  0.00000000000E+00 -0.11102230246E-14 -0.35527136788E-14  0.91188000000E+02  0.91188000000E+02 0.  0.
    9900012    2    3    3    0    0 -0.22851709385E+02 -0.14635608507E+01  0.28834651486E+02  0.54367085311E+02  0.40000002584E+02 0.  0.
        -12    1    3    3    0    0  0.22851709385E+02  0.14635608507E+01 -0.28834651486E+02  0.36820914689E+02  0.00000000000E+00 0.  1.
         11    1    4    4    0    0 -0.39593089894E+01 -0.80325929158E+01 -0.44888891323E+01  0.10017424945E+02  0.51100000000E-03 0. -1.
        -11    1    4    4    0    0 -0.11972638112E+01  0.83641311261E+01  0.25844072124E+01  0.88357960043E+01  0.51100000000E-03 0.  1.
         12    1    4    4    0    0 -0.17695136584E+02 -0.17950990610E+01  0.30739133406E+02  0.35513864362E+02  0.00000000000E+00 0. -1.
</event>
<event>
 8    1  0.2432279E-006  0.9118800E+02  0.7816164E-02  0.1184000E+00
        -11   -1    0    0    0    0  0.00000000000E+00  0.00000000000E+00  0.45593999997E+02  0.45594000000E+02  0.51100000000E-03 0. -1.
         11   -1    0    0    0    0 -0.00000000000E+00 -0.00000000000E+00 -0.45593999997E+02  0.45594000000E+02  0.51100000000E-03 0.  1.
         23    2    1    2    0    0  0.00000000000E+00  0.88817841970E-15  0.00000000000E+00  0.91188000000E+02  0.91188000000E+02 0.  0.
    9900012    2    3    3    0    0 -0.23977691442E+02  0.71324850831E+01  0.27018116932E+02  0.54367072895E+02  0.39999974278E+02 0.  0.
        -12    1    3    3    0    0  0.23977691442E+02 -0.71324850831E+01 -0.27018116932E+02  0.36820927105E+02  0.00000000000E+00 0.  1.
         11    1    4    4    0    0 -0.15202686371E+02  0.36921689545E+01  0.18581421309E+02  0.24290389099E+02  0.51100000000E-03 0. -1.
        -11    1    4    4    0    0  0.25717285462E+00 -0.11275220829E+02  0.11531298654E+01  0.11336950708E+02  0.51100000000E-03 0.  1.
        -12    1    4    4    0    0 -0.90321779254E+01  0.14715536957E+02  0.72835657577E+01  0.18739733087E+02  0.00000000000E+00 0.  1.
</event>
<event>
 8    1  0.2432279E-006  0.9118800E+02  0.7816164E-02  0.1184000E+00
        -11   -1    0    0    0    0  0.00000000000E+00  0.00000000000E+00  0.45593999997E+02  0.45594000000E+02  0.51100000000E-03 0.  1.
         11   -1    0    0    0    0 -0.00000000000E+00 -0.00000000000E+00 -0.45593999997E+02  0.45594000000E+02  0.51100000000E-03 0. -1.
         23    2    1    2    0    0  0.35527136788E-14  0.00000000000E+00  0.35527136788E-14  0.91188000000E+02  0.91188000000E+02 0.  0.
    9900012    2    3    3    0    0 -0.24484592438E+02 -0.10279776573E+02 -0.25507075924E+02  0.54367082094E+02  0.39999995250E+02 0.  0.
         12    1    3    3    0    0  0.24484592438E+02  0.10279776573E+02  0.25507075924E+02  0.36820917906E+02  0.00000000000E+00 0. -1.
         11    1    4    4    0    0 -0.20358583264E+01  0.45640550911E+01  0.24461846916E+00  0.50035144105E+01  0.51100000000E-03 0. -1.
        -11    1    4    4    0    0  0.64234735007E+01 -0.44670607830E+01  0.19106082211E+01  0.80539473483E+01  0.51100000000E-03 0.  1.
        -12    1    4    4    0    0 -0.28872207612E+02 -0.10376770881E+02 -0.27662302614E+02  0.41309620335E+02  0.00000000000E+00 0.  1.
</event>
<event>
 8    1  0.2432279E-006  0.9118800E+02  0.7816164E-02  0.1184000E+00
        -11   -1    0    0    0    0  0.00000000000E+00  0.00000000000E+00  0.45593999997E+02  0.45594000000E+02  0.51100000000E-03 0.  1.
         11   -1    0    0    0    0 -0.00000000000E+00 -0.00000000000E+00 -0.45593999997E+02  0.45594000000E+02  0.51100000000E-03 0. -1.
         23    2    1    2    0    0  0.00000000000E+00  0.71054273576E-14  0.44408920985E-15  0.91188000000E+02  0.91188000000E+02 0.  0.
    9900012    2    3    3    0    0 -0.95369115965E+01 -0.35538997186E+02 -0.13463509896E+01  0.54367005109E+02  0.39999819747E+02 0.  0.
        -12    1    3    3    0    0  0.95369115965E+01  0.35538997186E+02  0.13463509896E+01  0.36820994891E+02  0.00000000000E+00 0.  1.
         11    1    4    4    0    0 -0.67701622869E+01 -0.18213213634E+02 -0.99054624639E+00  0.19456038405E+02  0.51100000000E-03 0. -1.
        -11    1    4    4    0    0 -0.13022881110E+01 -0.18950506694E+02  0.11930745253E+02  0.22431235830E+02  0.51100000000E-03 0.  1.
        -12    1    4    4    0    0 -0.14644611986E+01  0.16247231425E+01 -0.12286549996E+02  0.12479730875E+02  0.00000000000E+00 0.  1.
</event>
<event>
 8    1  0.2432279E-006  0.9118800E+02  0.7816164E-02  0.1184000E+00
        -11   -1    0    0    0    0  0.00000000000E+00  0.00000000000E+00  0.45593999997E+02  0.45594000000E+02  0.51100000000E-03 0.  1.
         11   -1    0    0    0    0 -0.00000000000E+00 -0.00000000000E+00 -0.45593999997E+02  0.45594000000E+02  0.51100000000E-03 0. -1.
         23    2    1    2    0    0 -0.17763568394E-14  0.00000000000E+00  0.00000000000E+00  0.91188000000E+02  0.91188000000E+02 0.  0.
    9900012    2    3    3    0    0  0.13378764786E+02  0.11448852505E+02  0.32337473859E+02  0.54367084932E+02  0.40000001719E+02 0.  0.
         12    1    3    3    0    0 -0.13378764786E+02 -0.11448852505E+02 -0.32337473859E+02  0.36820915068E+02  0.00000000000E+00 0. -1.
         11    1    4    4    0    0  0.12110077514E+02  0.15799414594E+01 -0.33396108199E+01  0.12661089728E+02  0.51100000000E-03 0. -1.
        -11    1    4    4    0    0  0.26686514836E+01  0.14343369714E+02  0.33495447277E+02  0.36534900356E+02  0.51100000000E-03 0.  1.
         12    1    4    4    0    0 -0.13999642115E+01 -0.44744586685E+01  0.21816374025E+01  0.51710948479E+01  0.00000000000E+00 0. -1.
</event>
<event>
 8    1  0.2432279E-006  0.9118800E+02  0.7816164E-02  0.1184000E+00
        -11   -1    0    0    0    0  0.00000000000E+00  0.00000000000E+00  0.45593999997E+02  0.45594000000E+02  0.51100000000E-03 0.  1.
         11   -1    0    0    0    0 -0.00000000000E+00 -0.00000000000E+00 -0.45593999997E+02  0.45594000000E+02  0.51100000000E-03 0. -1.
         23    2    1    2    0    0  0.00000000000E+00  0.00000000000E+00  0.35527136788E-14  0.91188000000E+02  0.91188000000E+02 0.  0.
    9900012    2    3    3    0    0 -0.15219973445E+02  0.10921936061E+02  0.31699267848E+02  0.54367083918E+02  0.39999999409E+02 0.  0.
         12    1    3    3    0    0  0.15219973445E+02 -0.10921936061E+02 -0.31699267848E+02  0.36820916082E+02  0.00000000000E+00 0. -1.
         11    1    4    4    0    0 -0.49721419173E+01 -0.10609020464E+01 -0.42815768775E+01  0.66467743468E+01  0.51100000000E-03 0. -1.
        -11    1    4    4    0    0 -0.59598974523E+01  0.35858869189E+01 -0.30295973511E+01  0.75866608602E+01  0.51100000000E-03 0.  1.
        -12    1    4    4    0    0 -0.42879340755E+01  0.83969511887E+01  0.39010442076E+02  0.40133648711E+02  0.00000000000E+00 0.  1.
</event>
<event>
 8    1  0.2432279E-006  0.9118800E+02  0.7816164E-02  0.1184000E+00
        -11   -1    0    0    0    0  0.00000000000E+00  0.00000000000E+00  0.45593999997E+02  0.45594000000E+02  0.51100000000E-03 0.  1.
         11   -1    0    0    0    0 -0.00000000000E+00 -0.00000000000E+00 -0.45593999997E+02  0.45594000000E+02  0.51100000000E-03 0. -1.
         23    2    1    2    0    0  0.00000000000E+00 -0.17763568394E-14  0.00000000000E+00  0.91188000000E+02  0.91188000000E+02 0.  0.
    9900012    2    3    3    0    0  0.23111072778E+02 -0.14204167827E+02 -0.24897794025E+02  0.54367079100E+02  0.39999988424E+02 0.  0.
        -12    1    3    3    0    0 -0.23111072778E+02  0.14204167827E+02  0.24897794025E+02  0.36820920900E+02  0.00000000000E+00 0.  1.
         11    1    4    4    0    0  0.20017350504E+02 -0.16743674025E+00 -0.15518798395E+02  0.25328945106E+02  0.51100000000E-03 0. -1.
        -11    1    4    4    0    0 -0.37308328202E+01  0.49000126722E+01  0.12364160312E+01  0.62815573374E+01  0.51100000000E-03 0.  1.
         12    1    4    4    0    0  0.68245550937E+01 -0.18936743758E+02 -0.10615411662E+02  0.22756576657E+02  0.00000000000E+00 0. -1.
</event>
<event>
 8    1  0.2432279E-006  0.9118800E+02  0.7816164E-02  0.1184000E+00
        -11   -1    0    0    0    0  0.00000000000E+00  0.00000000000E+00  0.45593999997E+02  0.45594000000E+02  0.51100000000E-03 0. -1.
         11   -1    0    0    0    0 -0.00000000000E+00 -0.00000000000E+00 -0.45593999997E+02  0.45594000000E+02  0.51100000000E-03 0.  1.
         23    2    1    2    0    0  0.88817841970E-15  0.35527136788E-14  0.00000000000E+00  0.91188000000E+02  0.91188000000E+02 0.  0.
    9900012    2    3    3    0    0  0.41836866394E+01  0.21534963143E+02 -0.29572449925E+02  0.54366977933E+02  0.39999757794E+02 0.  0.
         12    1    3    3    0    0 -0.41836866394E+01 -0.21534963143E+02  0.29572449925E+02  0.36821022067E+02  0.00000000000E+00 0. -1.
         11    1    4    4    0    0 -0.35688803710E+01  0.15488827153E+02  0.28243972300E+00  0.15897183592E+02  0.51100000000E-03 0. -1.
        -11    1    4    4    0    0 -0.73092458384E+01  0.47127442747E+01 -0.75159738797E+01  0.11494559450E+02  0.51100000000E-03 0.  1.
        -12    1    4    4    0    0  0.15061812849E+02  0.13333917151E+01 -0.22338915768E+02  0.26975234892E+02  0.00000000000E+00 0.  1.
</event>
<event>
 8    1  0.2432279E-006  0.9118800E+02  0.7816164E-02  0.1184000E+00
        -11   -1    0    0    0    0  0.00000000000E+00  0.00000000000E+00  0.45593999997E+02  0.45594000000E+02  0.51100000000E-03 0.  1.
         11   -1    0    0    0    0 -0.00000000000E+00 -0.00000000000E+00 -0.45593999997E+02  0.45594000000E+02  0.51100000000E-03 0. -1.
         23    2    1    2    0    0 -0.35527136788E-14 -0.17763568394E-14 -0.17763568394E-14  0.91188000000E+02  0.91188000000E+02 0.  0.
    9900012    2    3    3    0    0 -0.31996855368E+02 -0.14543304506E+02 -0.10976030559E+02  0.54367086021E+02  0.40000004203E+02 0.  0.
         12    1    3    3    0    0  0.31996855368E+02  0.14543304506E+02  0.10976030559E+02  0.36820913979E+02  0.00000000000E+00 0. -1.
         11    1    4    4    0    0 -0.56942298467E+01 -0.33014690984E+01 -0.11104482275E+01  0.66751065371E+01  0.51100000000E-03 0. -1.
        -11    1    4    4    0    0 -0.79339426970E+01 -0.21491591646E+02  0.28913869905E+01  0.23091038894E+02  0.51100000000E-03 0.  1.
         12    1    4    4    0    0 -0.18368682824E+02  0.10249756238E+02 -0.12756969322E+02  0.24600940590E+02  0.00000000000E+00 0. -1.
</event>
<event>
 8    1  0.2432279E-006  0.9118800E+02  0.7816164E-02  0.1184000E+00
        -11   -1    0    0    0    0  0.00000000000E+00  0.00000000000E+00  0.45593999997E+02  0.45594000000E+02  0.51100000000E-03 0.  1.
         11   -1    0    0    0    0 -0.00000000000E+00 -0.00000000000E+00 -0.45593999997E+02  0.45594000000E+02  0.51100000000E-03 0. -1.
         23    2    1    2    0    0  0.00000000000E+00  0.00000000000E+00  0.00000000000E+00  0.91188000000E+02  0.91188000000E+02 0.  0.
    9900012    2    3    3    0    0  0.27521794743E+02 -0.13733981689E+02  0.20241183654E+02  0.54367123386E+02  0.40000089384E+02 0.  0.
         12    1    3    3    0    0 -0.27521794743E+02  0.13733981689E+02 -0.20241183654E+02  0.36820876614E+02  0.00000000000E+00 0. -1.
         11    1    4    4    0    0  0.58491964651E+01 -0.17237050839E+02  0.14431840825E+02  0.23229443617E+02  0.51100000000E-03 0. -1.
        -11    1    4    4    0    0  0.13763404311E+02 -0.82515808812E+01  0.55089147957E+01  0.16966674034E+02  0.51100000000E-03 0.  1.
         12    1    4    4    0    0  0.79091939661E+01  0.11754650031E+02  0.30042803297E+00  0.14171005735E+02  0.00000000000E+00 0. -1.
</event>
<event>
 8    1  0.2432279E-006  0.9118800E+02  0.7816164E-02  0.1184000E+00
        -11   -1    0    0    0    0  0.00000000000E+00  0.00000000000E+00  0.45593999997E+02  0.45594000000E+02  0.51100000000E-03 0.  1.
         11   -1    0    0    0    0 -0.00000000000E+00 -0.00000000000E+00 -0.45593999997E+02  0.45594000000E+02  0.51100000000E-03 0. -1.
         23    2    1    2    0    0  0.00000000000E+00  0.00000000000E+00  0.17763568394E-14  0.91188000000E+02  0.91188000000E+02 0.  0.
    9900012    2    3    3    0    0 -0.29154712797E+02 -0.16287364342E+02  0.15508210879E+02  0.54367080400E+02  0.39999991388E+02 0.  0.
         12    1    3    3    0    0  0.29154712797E+02  0.16287364342E+02 -0.15508210879E+02  0.36820919600E+02  0.00000000000E+00 0. -1.
         11    1    4    4    0    0 -0.12828323760E+02  0.25173904496E+01 -0.70335013650E+01  0.14844975139E+02  0.51100000000E-03 0. -1.
        -11    1    4    4    0    0  0.33692782836E+01 -0.78844046665E+01  0.11759837151E+02  0.14553681430E+02  0.51100000000E-03 0.  1.
        -12    1    4    4    0    0 -0.19695667321E+02 -0.10920350126E+02  0.10781875094E+02  0.24968423831E+02  0.00000000000E+00 0.  1.
</event>
<event>
 8    1  0.2432279E-006  0.9118800E+02  0.7816164E-02  0.1184000E+00
        -11   -1    0    0    0    0  0.00000000000E+00  0.00000000000E+00  0.45593999997E+02  0.45594000000E+02  0.51100000000E-03 0.  1.
         11   -1    0    0    0    0 -0.00000000000E+00 -0.00000000000E+00 -0.45593999997E+02  0.45594000000E+02  0.51100000000E-03 0. -1.
         23    2    1    2    0    0  0.00000000000E+00  0.00000000000E+00  0.17763568394E-14  0.91188000000E+02  0.91188000000E+02 0.  0.
    9900012    2    3    3    0    0 -0.95035530209E+01 -0.32784577190E+02 -0.13807024271E+02  0.54367082837E+02  0.39999996943E+02 0.  0.
        -12    1    3    3    0    0  0.95035530209E+01  0.32784577190E+02  0.13807024271E+02  0.36820917163E+02  0.00000000000E+00 0.  1.
         11    1    4    4    0    0 -0.15997442182E+02 -0.85106594260E+01 -0.96957226993E+01  0.20551314293E+02  0.51100000000E-03 0. -1.
        -11    1    4    4    0    0 -0.30105060648E+01 -0.16706745212E+01  0.62979114289E+01  0.71776032734E+01  0.51100000000E-03 0.  1.
        -12    1    4    4    0    0  0.95043952260E+01 -0.22603243243E+02 -0.10409213000E+02  0.26638165271E+02  0.00000000000E+00 0.  1.
</event>
<event>
 8    1  0.2432279E-006  0.9118800E+02  0.7816164E-02  0.1184000E+00
        -11   -1    0    0    0    0  0.00000000000E+00  0.00000000000E+00  0.45593999997E+02  0.45594000000E+02  0.51100000000E-03 0. -1.
         11   -1    0    0    0    0 -0.00000000000E+00 -0.00000000000E+00 -0.45593999997E+02  0.45594000000E+02  0.51100000000E-03 0.  1.
         23    2    1    2    0    0  0.00000000000E+00  0.00000000000E+00 -0.66613381478E-15  0.91188000000E+02  0.91188000000E+02 0.  0.
    9900012    2    3    3    0    0  0.33716241979E+02 -0.14745687585E+02 -0.12485691569E+01  0.54367092888E+02  0.40000019858E+02 0.  0.
        -12    1    3    3    0    0 -0.33716241979E+02  0.14745687585E+02  0.12485691569E+01  0.36820907112E+02  0.00000000000E+00 0.  1.
         11    1    4    4    0    0  0.37367559404E+02 -0.96387471725E+01  0.45935919832E+01  0.38863106289E+02  0.51100000000E-03 0. -1.
        -11    1    4    4    0    0  0.46113636009E+01 -0.28576720928E+01 -0.40116446806E+01  0.67471666168E+01  0.51100000000E-03 0.  1.
         12    1    4    4    0    0 -0.82626810253E+01 -0.22492683201E+01 -0.18305164596E+01  0.87568199828E+01  0.00000000000E+00 0. -1.
</event>
<event>
 8    1  0.2432279E-006  0.9118800E+02  0.7816164E-02  0.1184000E+00
        -11   -1    0    0    0    0  0.00000000000E+00  0.00000000000E+00  0.45593999997E+02  0.45594000000E+02  0.51100000000E-03 0. -1.
         11   -1    0    0    0    0 -0.00000000000E+00 -0.00000000000E+00 -0.45593999997E+02  0.45594000000E+02  0.51100000000E-03 0.  1.
         23    2    1    2    0    0  0.00000000000E+00 -0.35527136788E-14  0.35527136788E-14  0.91188000000E+02  0.91188000000E+02 0.  0.
    9900012    2    3    3    0    0  0.98131113855E+01  0.19380336826E+02 -0.29730208451E+02  0.54367083321E+02  0.39999998047E+02 0.  0.
         12    1    3    3    0    0 -0.98131113855E+01 -0.19380336826E+02  0.29730208451E+02  0.36820916679E+02  0.00000000000E+00 0. -1.
         11    1    4    4    0    0  0.16785162102E+01  0.25126972459E+01  0.28414063415E+01  0.41478493676E+01  0.51100000000E-03 0. -1.
        -11    1    4    4    0    0  0.10682794067E+02  0.14416503343E+02 -0.38973637071E+02  0.42905734401E+02  0.51100000000E-03 0.  1.
         12    1    4    4    0    0 -0.25481988921E+01  0.24511362368E+01  0.64020222786E+01  0.73134995522E+01  0.00000000000E+00 0. -1.
</event>
<event>
 8    1  0.2432279E-006  0.9118800E+02  0.7816164E-02  0.1184000E+00
        -11   -1    0    0    0    0  0.00000000000E+00  0.00000000000E+00  0.45593999997E+02  0.45594000000E+02  0.51100000000E-03 0.  1.
         11   -1    0    0    0    0 -0.00000000000E+00 -0.00000000000E+00 -0.45593999997E+02  0.45594000000E+02  0.51100000000E-03 0. -1.
         23    2    1    2    0    0 -0.35527136788E-14  0.00000000000E+00  0.00000000000E+00  0.91188000000E+02  0.91188000000E+02 0.  0.
    9900012    2    3    3    0    0 -0.21718451191E+02  0.22339072189E+02  0.19622822948E+02  0.54367075937E+02  0.39999981214E+02 0.  0.
         12    1    3    3    0    0  0.21718451191E+02 -0.22339072189E+02 -0.19622822948E+02  0.36820924063E+02  0.00000000000E+00 0. -1.
         11    1    4    4    0    0 -0.18972249062E+02  0.65170241511E+01  0.17898095363E+01  0.20140041130E+02  0.51100000000E-03 0.  1.
        -11    1    4    4    0    0 -0.12935170465E+01  0.25494004458E+01 -0.61476788505E+01  0.67798661117E+01  0.51100000000E-03 0. -1.
         12    1    4    4    0    0 -0.14526850821E+01  0.13272647592E+02  0.23980692262E+02  0.27447168696E+02  0.00000000000E+00 0. -1.
</event>
<event>
 8    1  0.2432279E-006  0.9118800E+02  0.7816164E-02  0.1184000E+00
        -11   -1    0    0    0    0  0.00000000000E+00  0.00000000000E+00  0.45593999997E+02  0.45594000000E+02  0.51100000000E-03 0.  1.
         11   -1    0    0    0    0 -0.00000000000E+00 -0.00000000000E+00 -0.45593999997E+02  0.45594000000E+02  0.51100000000E-03 0. -1.
         23    2    1    2    0    0 -0.35527136788E-14  0.00000000000E+00  0.35527136788E-14  0.91188000000E+02  0.91188000000E+02 0.  0.
    9900012    2    3    3    0    0  0.21514948480E+02  0.18360375800E+02 -0.23575243038E+02  0.54366966719E+02  0.39999732228E+02 0.  0.
        -12    1    3    3    0    0 -0.21514948480E+02 -0.18360375800E+02  0.23575243038E+02  0.36821033281E+02  0.00000000000E+00 0.  1.
         11    1    4    4    0    0 -0.96946348365E+01  0.85659601339E+01 -0.10053586500E+02  0.16384023297E+02  0.51100000000E-03 0. -1.
        -11    1    4    4    0    0  0.95827631751E+01  0.17459590671E+01  0.22944747461E+01  0.10007114357E+02  0.51100000000E-03 0.  1.
         12    1    4    4    0    0  0.21626820141E+02  0.80484565989E+01 -0.15816131284E+02  0.27975829065E+02  0.00000000000E+00 0. -1.
</event>
<event>
 8    1  0.2432279E-006  0.9118800E+02  0.7816164E-02  0.1184000E+00
        -11   -1    0    0    0    0  0.00000000000E+00  0.00000000000E+00  0.45593999997E+02  0.45594000000E+02  0.51100000000E-03 0.  1.
         11   -1    0    0    0    0 -0.00000000000E+00 -0.00000000000E+00 -0.45593999997E+02  0.45594000000E+02  0.51100000000E-03 0. -1.
         23    2    1    2    0    0 -0.12004286454E-14  0.00000000000E+00  0.00000000000E+00  0.91188000000E+02  0.91188000000E+02 0.  0.
    9900012    2    3    3    0    0 -0.24875249516E-01  0.31378147365E+02 -0.19266311716E+02  0.54367088578E+02  0.40000010030E+02 0.  0.
        -12    1    3    3    0    0  0.24875249516E-01 -0.31378147365E+02  0.19266311716E+02  0.36820911422E+02  0.00000000000E+00 0.  1.
         11    1    4    4    0    0  0.44983183228E+01  0.53304166743E+01 -0.41339918275E+01  0.81079034494E+01  0.51100000000E-03 0. -1.
        -11    1    4    4    0    0 -0.32752091466E+00  0.11903504802E+02  0.11024975565E+02  0.16228086240E+02  0.51100000000E-03 0.  1.
         12    1    4    4    0    0 -0.41956726576E+01  0.14144225888E+02 -0.26157295453E+02  0.30031098889E+02  0.00000000000E+00 0. -1.
</event>
<event>
 8    1  0.2432279E-006  0.9118800E+02  0.7816164E-02  0.1184000E+00
        -11   -1    0    0    0    0  0.00000000000E+00  0.00000000000E+00  0.45593999997E+02  0.45594000000E+02  0.51100000000E-03 0. -1.
         11   -1    0    0    0    0 -0.00000000000E+00 -0.00000000000E+00 -0.45593999997E+02  0.45594000000E+02  0.51100000000E-03 0.  1.
         23    2    1    2    0    0  0.00000000000E+00  0.00000000000E+00 -0.35527136788E-14  0.91188000000E+02  0.91188000000E+02 0.  0.
    9900012    2    3    3    0    0 -0.23300848273E+02 -0.13592852080E+02 -0.25061609395E+02  0.54367089862E+02  0.40000012958E+02 0.  0.
         12    1    3    3    0    0  0.23300848273E+02  0.13592852080E+02  0.25061609395E+02  0.36820910138E+02  0.00000000000E+00 0. -1.
         11    1    4    4    0    0 -0.14713862910E+02 -0.21454870682E+02 -0.22822228782E+01  0.26115470114E+02  0.51100000000E-03 0. -1.
        -11    1    4    4    0    0 -0.37481622525E+01 -0.37871678617E+00 -0.16241901799E+02  0.16673077729E+02  0.51100000000E-03 0.  1.
         12    1    4    4    0    0 -0.48388231106E+01  0.82407353886E+01 -0.65374847185E+01  0.11578542019E+02  0.00000000000E+00 0. -1.
</event>
<event>
 8    1  0.2432279E-006  0.9118800E+02  0.7816164E-02  0.1184000E+00
        -11   -1    0    0    0    0  0.00000000000E+00  0.00000000000E+00  0.45593999997E+02  0.45594000000E+02  0.51100000000E-03 0. -1.
         11   -1    0    0    0    0 -0.00000000000E+00 -0.00000000000E+00 -0.45593999997E+02  0.45594000000E+02  0.51100000000E-03 0.  1.
         23    2    1    2    0    0  0.00000000000E+00  0.00000000000E+00  0.00000000000E+00  0.91188000000E+02  0.91188000000E+02 0.  0.
    9900012    2    3    3    0    0  0.20590821846E+02  0.16039507281E+02  0.25971745891E+02  0.54367091229E+02  0.40000016075E+02 0.  0.
        -12    1    3    3    0    0 -0.20590821846E+02 -0.16039507281E+02 -0.25971745891E+02  0.36820908771E+02  0.00000000000E+00 0.  1.
         11    1    4    4    0    0 -0.11947861264E+01  0.13402747683E+02  0.61923813565E+01  0.14812384901E+02  0.51100000000E-03 0. -1.
        -11    1    4    4    0    0  0.89968144023E+00  0.38140812710E+01 -0.54930751756E+01  0.67476305309E+01  0.51100000000E-03 0.  1.
         12    1    4    4    0    0  0.20885926532E+02 -0.11773216731E+01  0.25272439710E+02  0.32807075797E+02  0.00000000000E+00 0. -1.
</event>
<event>
 8    1  0.2432279E-006  0.9118800E+02  0.7816164E-02  0.1184000E+00
        -11   -1    0    0    0    0  0.00000000000E+00  0.00000000000E+00  0.45593999997E+02  0.45594000000E+02  0.51100000000E-03 0.  1.
         11   -1    0    0    0    0 -0.00000000000E+00 -0.00000000000E+00 -0.45593999997E+02  0.45594000000E+02  0.51100000000E-03 0. -1.
         23    2    1    2    0    0  0.00000000000E+00  0.00000000000E+00  0.00000000000E+00  0.91188000000E+02  0.91188000000E+02 0.  0.
    9900012    2    3    3    0    0  0.25293187392E+02  0.25350299928E+02 -0.85671915302E+01  0.54367084672E+02  0.40000001127E+02 0.  0.
        -12    1    3    3    0    0 -0.25293187392E+02 -0.25350299928E+02  0.85671915302E+01  0.36820915328E+02  0.00000000000E+00 0.  1.
         11    1    4    4    0    0  0.64586912930E+01 -0.86812872825E+01 -0.67455535124E+01  0.12750762116E+02  0.51100000000E-03 0. -1.
        -11    1    4    4    0    0  0.14462423933E+02  0.11270938399E+02 -0.19514958418E+01  0.18439199947E+02  0.51100000000E-03 0.  1.
        -12    1    4    4    0    0  0.43720721659E+01  0.22760648812E+02  0.12985782397E+00  0.23177122609E+02  0.00000000000E+00 0.  1.
</event>
<event>
 8    1  0.2432279E-006  0.9118800E+02  0.7816164E-02  0.1184000E+00
        -11   -1    0    0    0    0  0.00000000000E+00  0.00000000000E+00  0.45593999997E+02  0.45594000000E+02  0.51100000000E-03 0. -1.
         11   -1    0    0    0    0 -0.00000000000E+00 -0.00000000000E+00 -0.45593999997E+02  0.45594000000E+02  0.51100000000E-03 0.  1.
         23    2    1    2    0    0  0.00000000000E+00  0.35527136788E-14  0.00000000000E+00  0.91188000000E+02  0.91188000000E+02 0.  0.
    9900012    2    3    3    0    0  0.27470625939E+02 -0.20490346357E+02 -0.13464355333E+02  0.54367103110E+02  0.40000043160E+02 0.  0.
        -12    1    3    3    0    0 -0.27470625939E+02  0.20490346357E+02  0.13464355333E+02  0.36820896890E+02  0.00000000000E+00 0.  1.
         11    1    4    4    0    0  0.84752629752E+00 -0.13431829866E+02 -0.11623958527E+02  0.17783384562E+02  0.51100000000E-03 0. -1.
        -11    1    4    4    0    0 -0.68292612421E+00 -0.64338390137E+01 -0.61572181717E+01  0.89315176997E+01  0.51100000000E-03 0.  1.
        -12    1    4    4    0    0  0.27306025765E+02 -0.62467747689E+00  0.43168213663E+01  0.27652200848E+02  0.00000000000E+00 0.  1.
</event>
<event>
 8    1  0.2432279E-006  0.9118800E+02  0.7816164E-02  0.1184000E+00
        -11   -1    0    0    0    0  0.00000000000E+00  0.00000000000E+00  0.45593999997E+02  0.45594000000E+02  0.51100000000E-03 0.  1.
         11   -1    0    0    0    0 -0.00000000000E+00 -0.00000000000E+00 -0.45593999997E+02  0.45594000000E+02  0.51100000000E-03 0. -1.
         23    2    1    2    0    0  0.00000000000E+00 -0.35527136788E-14  0.33306690739E-15  0.91188000000E+02  0.91188000000E+02 0.  0.
    9900012    2    3    3    0    0 -0.32198383241E+02 -0.17852519548E+02  0.57829480014E+00  0.54367044521E+02  0.39999909595E+02 0.  0.
         12    1    3    3    0    0  0.32198383241E+02  0.17852519548E+02 -0.57829480014E+00  0.36820955479E+02  0.00000000000E+00 0. -1.
         11    1    4    4    0    0 -0.10597309136E+02 -0.53595057182E+01 -0.93184601231E+00  0.11911993944E+02  0.51100000000E-03 0. -1.
        -11    1    4    4    0    0 -0.92091146132E+01 -0.14468570551E+02  0.15882711448E+02  0.23375368424E+02  0.51100000000E-03 0.  1.
         12    1    4    4    0    0 -0.12391959491E+02  0.19755567215E+01 -0.14372570636E+02  0.19079682153E+02  0.00000000000E+00 0. -1.
</event>
<event>
 8    1  0.2432279E-006  0.9118800E+02  0.7816164E-02  0.1184000E+00
        -11   -1    0    0    0    0  0.00000000000E+00  0.00000000000E+00  0.45593999997E+02  0.45594000000E+02  0.51100000000E-03 0. -1.
         11   -1    0    0    0    0 -0.00000000000E+00 -0.00000000000E+00 -0.45593999997E+02  0.45594000000E+02  0.51100000000E-03 0.  1.
         23    2    1    2    0    0 -0.35527136788E-14  0.00000000000E+00 -0.44408920985E-15  0.91188000000E+02  0.91188000000E+02 0.  0.
    9900012    2    3    3    0    0 -0.30117911291E+02  0.21105568368E+02 -0.18017843874E+01  0.54367081711E+02  0.39999994376E+02 0.  0.
        -12    1    3    3    0    0  0.30117911291E+02 -0.21105568368E+02  0.18017843874E+01  0.36820918289E+02  0.00000000000E+00 0.  1.
         11    1    4    4    0    0  0.28203235909E+01  0.18363658700E+02  0.14530267403E+01  0.18635704253E+02  0.51100000000E-03 0. -1.
        -11    1    4    4    0    0 -0.27075483774E+02  0.65642144232E+01 -0.54674036686E+01  0.28391252803E+02  0.51100000000E-03 0.  1.
         12    1    4    4    0    0 -0.58627511086E+01 -0.38223047558E+01  0.22125925410E+01  0.73401246556E+01  0.00000000000E+00 0. -1.
</event>
<event>
 8    1  0.2432279E-006  0.9118800E+02  0.7816164E-02  0.1184000E+00
        -11   -1    0    0    0    0  0.00000000000E+00  0.00000000000E+00  0.45593999997E+02  0.45594000000E+02  0.51100000000E-03 0. -1.
         11   -1    0    0    0    0 -0.00000000000E+00 -0.00000000000E+00 -0.45593999997E+02  0.45594000000E+02  0.51100000000E-03 0.  1.
         23    2    1    2    0    0  0.17763568394E-14 -0.71054273576E-14 -0.17763568394E-14  0.91188000000E+02  0.91188000000E+02 0.  0.
    9900012    2    3    3    0    0  0.10153989780E+02 -0.32658653062E+02 -0.13641457412E+02  0.54367075397E+02  0.39999979983E+02 0.  0.
         12    1    3    3    0    0 -0.10153989780E+02  0.32658653062E+02  0.13641457412E+02  0.36820924603E+02  0.00000000000E+00 0. -1.
         11    1    4    4    0    0  0.57117968040E+01 -0.59609042066E+01 -0.94761043168E+01  0.12567957470E+02  0.51100000000E-03 0. -1.
        -11    1    4    4    0    0  0.90255974865E+01 -0.32008893181E+02 -0.74055557414E+01  0.34071585064E+02  0.51100000000E-03 0.  1.
         12    1    4    4    0    0 -0.45834045109E+01  0.53111443260E+01  0.32402026457E+01  0.77275328629E+01  0.00000000000E+00 0. -1.
</event>
<event>
 8    1  0.2432279E-006  0.9118800E+02  0.7816164E-02  0.1184000E+00
        -11   -1    0    0    0    0  0.00000000000E+00  0.00000000000E+00  0.45593999997E+02  0.45594000000E+02  0.51100000000E-03 0.  1.
         11   -1    0    0    0    0 -0.00000000000E+00 -0.00000000000E+00 -0.45593999997E+02  0.45594000000E+02  0.51100000000E-03 0. -1.
         23    2    1    2    0    0  0.00000000000E+00  0.00000000000E+00  0.00000000000E+00  0.91188000000E+02  0.91188000000E+02 0.  0.
    9900012    2    3    3    0    0 -0.13260358358E+02 -0.23397306051E+02 -0.25149696384E+02  0.54367105626E+02  0.40000048896E+02 0.  0.
        -12    1    3    3    0    0  0.13260358358E+02  0.23397306051E+02  0.25149696384E+02  0.36820894374E+02  0.00000000000E+00 0.  1.
         11    1    4    4    0    0  0.34323813666E+01 -0.30567939528E+01 -0.24941697198E+01  0.52293511996E+01  0.51100000000E-03 0. -1.
        -11    1    4    4    0    0 -0.25779252352E+01  0.97871150185E+01 -0.73946957753E+01  0.12534546054E+02  0.51100000000E-03 0.  1.
        -12    1    4    4    0    0 -0.14114814490E+02 -0.30127627117E+02 -0.15260830889E+02  0.36603208373E+02  0.00000000000E+00 0.  1.
</event>
<event>
 8    1  0.2432279E-006  0.9118800E+02  0.7816164E-02  0.1184000E+00
        -11   -1    0    0    0    0  0.00000000000E+00  0.00000000000E+00  0.45593999997E+02  0.45594000000E+02  0.51100000000E-03 0. -1.
         11   -1    0    0    0    0 -0.00000000000E+00 -0.00000000000E+00 -0.45593999997E+02  0.45594000000E+02  0.51100000000E-03 0.  1.
         23    2    1    2    0    0  0.00000000000E+00 -0.17763568394E-14  0.00000000000E+00  0.91188000000E+02  0.91188000000E+02 0.  0.
    9900012    2    3    3    0    0  0.96013167558E+01 -0.77827754963E+01 -0.34684638980E+02  0.54367067651E+02  0.39999962325E+02 0.  0.
         12    1    3    3    0    0 -0.96013167558E+01  0.77827754963E+01  0.34684638980E+02  0.36820932349E+02  0.00000000000E+00 0. -1.
         11    1    4    4    0    0 -0.70019815368E+01 -0.13950738580E+02 -0.13572698158E+02  0.20684994269E+02  0.51100000000E-03 0. -1.
        -11    1    4    4    0    0 -0.23486698424E+01  0.64779560885E+01 -0.31784282528E+01  0.75883180964E+01  0.51100000000E-03 0.  1.
        -12    1    4    4    0    0  0.18951968135E+02 -0.30999300517E+00 -0.17933512569E+02  0.26093755286E+02  0.00000000000E+00 0.  1.
</event>
<event>
 8    1  0.2432279E-006  0.9118800E+02  0.7816164E-02  0.1184000E+00
        -11   -1    0    0    0    0  0.00000000000E+00  0.00000000000E+00  0.45593999997E+02  0.45594000000E+02  0.51100000000E-03 0.  1.
         11   -1    0    0    0    0 -0.00000000000E+00 -0.00000000000E+00 -0.45593999997E+02  0.45594000000E+02  0.51100000000E-03 0. -1.
         23    2    1    2    0    0 -0.35527136788E-14  0.00000000000E+00  0.00000000000E+00  0.91188000000E+02  0.91188000000E+02 0.  0.
    9900012    2    3    3    0    0  0.27198026188E+02 -0.64565063724E+01  0.23965824726E+02  0.54367083962E+02  0.39999999508E+02 0.  0.
         12    1    3    3    0    0 -0.27198026188E+02  0.64565063724E+01 -0.23965824726E+02  0.36820916038E+02  0.00000000000E+00 0. -1.
         11    1    4    4    0    0  0.16457788136E+02  0.78807415819E+01  0.11806688525E+02  0.21733908356E+02  0.51100000000E-03 0. -1.
        -11    1    4    4    0    0 -0.48371048764E+01 -0.45588058080E+01 -0.43290953934E+01  0.79322986055E+01  0.51100000000E-03 0.  1.
        -12    1    4    4    0    0  0.15577342928E+02 -0.97784421462E+01  0.16488231594E+02  0.24700877001E+02  0.00000000000E+00 0.  1.
</event>
<event>
 8    1  0.2432279E-006  0.9118800E+02  0.7816164E-02  0.1184000E+00
        -11   -1    0    0    0    0  0.00000000000E+00  0.00000000000E+00  0.45593999997E+02  0.45594000000E+02  0.51100000000E-03 0.  1.
         11   -1    0    0    0    0 -0.00000000000E+00 -0.00000000000E+00 -0.45593999997E+02  0.45594000000E+02  0.51100000000E-03 0. -1.
         23    2    1    2    0    0 -0.17763568394E-14  0.17763568394E-14  0.00000000000E+00  0.91188000000E+02  0.91188000000E+02 0.  0.
    9900012    2    3    3    0    0 -0.15828383236E+02 -0.12576097133E+02  0.30774711804E+02  0.54367098034E+02  0.40000031588E+02 0.  0.
         12    1    3    3    0    0  0.15828383236E+02  0.12576097133E+02 -0.30774711804E+02  0.36820901966E+02  0.00000000000E+00 0. -1.
         11    1    4    4    0    0 -0.15744548551E+02  0.96263640958E+00  0.34059136356E+02  0.37534547386E+02  0.51100000000E-03 0. -1.
        -11    1    4    4    0    0  0.15410597104E+01 -0.21647181666E+01  0.27758896345E+01  0.38427117113E+01  0.51100000000E-03 0.  1.
         12    1    4    4    0    0 -0.16248943953E+01 -0.11374015376E+02 -0.60603141858E+01  0.12989838936E+02  0.00000000000E+00 0. -1.
</event>
<event>
 8    1  0.2432279E-006  0.9118800E+02  0.7816164E-02  0.1184000E+00
        -11   -1    0    0    0    0  0.00000000000E+00  0.00000000000E+00  0.45593999997E+02  0.45594000000E+02  0.51100000000E-03 0. -1.
         11   -1    0    0    0    0 -0.00000000000E+00 -0.00000000000E+00 -0.45593999997E+02  0.45594000000E+02  0.51100000000E-03 0.  1.
         23    2    1    2    0    0 -0.88817841970E-15  0.00000000000E+00  0.00000000000E+00  0.91188000000E+02  0.91188000000E+02 0.  0.
    9900012    2    3    3    0    0  0.43505811752E+01  0.34126904692E+02 -0.13122729569E+02  0.54367092735E+02  0.40000019509E+02 0.  0.
         12    1    3    3    0    0 -0.43505811752E+01 -0.34126904692E+02  0.13122729569E+02  0.36820907265E+02  0.00000000000E+00 0. -1.
         11    1    4    4    0    0 -0.14722145973E+02  0.12641854891E+02 -0.64664023311E+01  0.20454154505E+02  0.51100000000E-03 0. -1.
        -11    1    4    4    0    0  0.78583931743E+01  0.42616679910E+01 -0.96375925235E+01  0.13145316552E+02  0.51100000000E-03 0.  1.
         12    1    4    4    0    0  0.11214333974E+02  0.17223381810E+02  0.29812652860E+01  0.20767621678E+02  0.00000000000E+00 0. -1.
</event>
<event>
 8    1  0.2432279E-006  0.9118800E+02  0.7816164E-02  0.1184000E+00
        -11   -1    0    0    0    0  0.00000000000E+00  0.00000000000E+00  0.45593999997E+02  0.45594000000E+02  0.51100000000E-03 0. -1.
         11   -1    0    0    0    0 -0.00000000000E+00 -0.00000000000E+00 -0.45593999997E+02  0.45594000000E+02  0.51100000000E-03 0.  1.
         23    2    1    2    0    0  0.00000000000E+00  0.35527136788E-14 -0.26645352591E-14  0.91188000000E+02  0.91188000000E+02 0.  0.
    9900012    2    3    3    0    0  0.32811253049E+02  0.16518925187E+02 -0.25153287071E+01  0.54367080749E+02  0.39999992183E+02 0.  0.
        -12    1    3    3    0    0 -0.32811253049E+02 -0.16518925187E+02  0.25153287071E+01  0.36820919251E+02  0.00000000000E+00 0.  1.
         11    1    4    4    0    0  0.79774661329E+01  0.91596054070E+01  0.79708215027E+01  0.14528328631E+02  0.51100000000E-03 0.  1.
        -11    1    4    4    0    0  0.23669165174E+02  0.66556699688E-01  0.35928154524E+01  0.23940387068E+02  0.51100000000E-03 0. -1.
         12    1    4    4    0    0  0.11646217428E+01  0.72927630805E+01 -0.14078965662E+02  0.15898365050E+02  0.00000000000E+00 0. -1.
</event>
<event>
 8    1  0.2432279E-006  0.9118800E+02  0.7816164E-02  0.1184000E+00
        -11   -1    0    0    0    0  0.00000000000E+00  0.00000000000E+00  0.45593999997E+02  0.45594000000E+02  0.51100000000E-03 0. -1.
         11   -1    0    0    0    0 -0.00000000000E+00 -0.00000000000E+00 -0.45593999997E+02  0.45594000000E+02  0.51100000000E-03 0.  1.
         23    2    1    2    0    0  0.35527136788E-14  0.00000000000E+00  0.44408920985E-14  0.91188000000E+02  0.91188000000E+02 0.  0.
    9900012    2    3    3    0    0 -0.23910093889E+02  0.27815166215E+02 -0.32256045149E+01  0.54367074077E+02  0.39999976973E+02 0.  0.
        -12    1    3    3    0    0  0.23910093889E+02 -0.27815166215E+02  0.32256045149E+01  0.36820925923E+02  0.00000000000E+00 0.  1.
         11    1    4    4    0    0 -0.20591957516E+02  0.18747605160E+02 -0.13793075130E+02  0.31076523862E+02  0.51100000000E-03 0. -1.
        -11    1    4    4    0    0  0.15590470481E+01  0.13662701070E+02  0.89168543087E+01  0.16389335534E+02  0.51100000000E-03 0.  1.
        -12    1    4    4    0    0 -0.48771834209E+01 -0.45951400145E+01  0.16506163061E+01  0.69012146803E+01  0.00000000000E+00 0.  1.
</event>
<event>
 8    1  0.2432279E-006  0.9118800E+02  0.7816164E-02  0.1184000E+00
        -11   -1    0    0    0    0  0.00000000000E+00  0.00000000000E+00  0.45593999997E+02  0.45594000000E+02  0.51100000000E-03 0.  1.
         11   -1    0    0    0    0 -0.00000000000E+00 -0.00000000000E+00 -0.45593999997E+02  0.45594000000E+02  0.51100000000E-03 0. -1.
         23    2    1    2    0    0  0.00000000000E+00 -0.35527136788E-14 -0.35527136788E-14  0.91188000000E+02  0.91188000000E+02 0.  0.
    9900012    2    3    3    0    0  0.91571706304E+01 -0.31279143423E+02  0.17133010103E+02  0.54367100739E+02  0.40000037754E+02 0.  0.
        -12    1    3    3    0    0 -0.91571706304E+01  0.31279143423E+02 -0.17133010103E+02  0.36820899261E+02  0.00000000000E+00 0.  1.
         11    1    4    4    0    0  0.61788154834E+01 -0.68679174355E+01 -0.65596302594E+01  0.11330260371E+02  0.51100000000E-03 0. -1.
        -11    1    4    4    0    0 -0.36592053393E+01 -0.28043825026E+02  0.17488813483E+02  0.33252135316E+02  0.51100000000E-03 0.  1.
        -12    1    4    4    0    0  0.66375604863E+01  0.36325990385E+01  0.62038268796E+01  0.97847050510E+01  0.00000000000E+00 0.  1.
</event>
<event>
 8    1  0.2432279E-006  0.9118800E+02  0.7816164E-02  0.1184000E+00
        -11   -1    0    0    0    0  0.00000000000E+00  0.00000000000E+00  0.45593999997E+02  0.45594000000E+02  0.51100000000E-03 0.  1.
         11   -1    0    0    0    0 -0.00000000000E+00 -0.00000000000E+00 -0.45593999997E+02  0.45594000000E+02  0.51100000000E-03 0. -1.
         23    2    1    2    0    0  0.00000000000E+00  0.00000000000E+00  0.00000000000E+00  0.91188000000E+02  0.91188000000E+02 0.  0.
    9900012    2    3    3    0    0  0.81140314481E+01  0.88400859894E+01  0.34810852722E+02  0.54367080758E+02  0.39999992204E+02 0.  0.
         12    1    3    3    0    0 -0.81140314481E+01 -0.88400859894E+01 -0.34810852722E+02  0.36820919242E+02  0.00000000000E+00 0. -1.
         11    1    4    4    0    0  0.21559658642E+01  0.80582608485E+01  0.45057128824E+01  0.94807808513E+01  0.51100000000E-03 0.  1.
        -11    1    4    4    0    0  0.67723414291E+01 -0.98408117220E+01  0.31946352767E+02  0.34106826870E+02  0.51100000000E-03 0. -1.
         12    1    4    4    0    0 -0.81427584518E+00  0.10622636863E+02 -0.16412129276E+01  0.10779473037E+02  0.00000000000E+00 0. -1.
</event>
<event>
 8    1  0.2432279E-006  0.9118800E+02  0.7816164E-02  0.1184000E+00
        -11   -1    0    0    0    0  0.00000000000E+00  0.00000000000E+00  0.45593999997E+02  0.45594000000E+02  0.51100000000E-03 0. -1.
         11   -1    0    0    0    0 -0.00000000000E+00 -0.00000000000E+00 -0.45593999997E+02  0.45594000000E+02  0.51100000000E-03 0.  1.
         23    2    1    2    0    0  0.00000000000E+00  0.00000000000E+00 -0.35527136788E-14  0.91188000000E+02  0.91188000000E+02 0.  0.
    9900012    2    3    3    0    0  0.19083475328E+02 -0.19776485355E+02 -0.24504886694E+02  0.54367110881E+02  0.40000060876E+02 0.  0.
         12    1    3    3    0    0 -0.19083475328E+02  0.19776485355E+02  0.24504886694E+02  0.36820889119E+02  0.00000000000E+00 0. -1.
         11    1    4    4    0    0  0.16066884063E+02 -0.80088713429E+01  0.68160708845E+01  0.19202749966E+02  0.51100000000E-03 0. -1.
        -11    1    4    4    0    0 -0.28436105757E+01 -0.13244531539E+01 -0.12251194797E+02  0.12646425245E+02  0.51100000000E-03 0.  1.
         12    1    4    4    0    0  0.58602018403E+01 -0.10443160858E+02 -0.19069762781E+02  0.22517935670E+02  0.00000000000E+00 0. -1.
</event>
<event>
 8    1  0.2432279E-006  0.9118800E+02  0.7816164E-02  0.1184000E+00
        -11   -1    0    0    0    0  0.00000000000E+00  0.00000000000E+00  0.45593999997E+02  0.45594000000E+02  0.51100000000E-03 0.  1.
         11   -1    0    0    0    0 -0.00000000000E+00 -0.00000000000E+00 -0.45593999997E+02  0.45594000000E+02  0.51100000000E-03 0. -1.
         23    2    1    2    0    0 -0.35527136788E-14  0.35527136788E-14 -0.22204460493E-15  0.91188000000E+02  0.91188000000E+02 0.  0.
    9900012    2    3    3    0    0  0.20474717425E+02 -0.30564285059E+02  0.15462378403E+01  0.54367076244E+02  0.39999981912E+02 0.  0.
         12    1    3    3    0    0 -0.20474717425E+02  0.30564285059E+02 -0.15462378403E+01  0.36820923756E+02  0.00000000000E+00 0. -1.
         11    1    4    4    0    0  0.70318078075E+01  0.54590754742E+00 -0.15446040249E+01  0.72201203554E+01  0.51100000000E-03 0. -1.
        -11    1    4    4    0    0  0.21516952154E+02 -0.32356297544E+02  0.20541495001E+01  0.38911807350E+02  0.51100000000E-03 0.  1.
        -12    1    4    4    0    0 -0.80740425361E+01  0.12461049380E+01  0.10366923651E+01  0.82351485385E+01  0.00000000000E+00 0.  1.
</event>
<event>
 8    1  0.2432279E-006  0.9118800E+02  0.7816164E-02  0.1184000E+00
        -11   -1    0    0    0    0  0.00000000000E+00  0.00000000000E+00  0.45593999997E+02  0.45594000000E+02  0.51100000000E-03 0.  1.
         11   -1    0    0    0    0 -0.00000000000E+00 -0.00000000000E+00 -0.45593999997E+02  0.45594000000E+02  0.51100000000E-03 0. -1.
         23    2    1    2    0    0 -0.44408920985E-15  0.00000000000E+00  0.00000000000E+00  0.91188000000E+02  0.91188000000E+02 0.  0.
    9900012    2    3    3    0    0 -0.33340865263E+01  0.23521453509E+02  0.28131889202E+02  0.54367107857E+02  0.40000053982E+02 0.  0.
        -12    1    3    3    0    0  0.33340865263E+01 -0.23521453509E+02 -0.28131889202E+02  0.36820892143E+02  0.00000000000E+00 0.  1.
         11    1    4    4    0    0 -0.41564769827E+01 -0.49864437060E+01 -0.39288840722E+00  0.65034823981E+01  0.51100000000E-03 0. -1.
        -11    1    4    4    0    0 -0.85667294693E+01  0.97241085638E+01  0.22586815159E+02  0.26040571431E+02  0.51100000000E-03 0.  1.
         12    1    4    4    0    0  0.93891199257E+01  0.18783788651E+02  0.59379624499E+01  0.21823054028E+02  0.00000000000E+00 0. -1.
</event>
<event>
 8    1  0.2432279E-006  0.9118800E+02  0.7816164E-02  0.1184000E+00
        -11   -1    0    0    0    0  0.00000000000E+00  0.00000000000E+00  0.45593999997E+02  0.45594000000E+02  0.51100000000E-03 0. -1.
         11   -1    0    0    0    0 -0.00000000000E+00 -0.00000000000E+00 -0.45593999997E+02  0.45594000000E+02  0.51100000000E-03 0.  1.
         23    2    1    2    0    0  0.22204460493E-15  0.35527136788E-14  0.00000000000E+00  0.91188000000E+02  0.91188000000E+02 0.  0.
    9900012    2    3    3    0    0  0.11550875484E+01  0.30158565767E+02 -0.21092820129E+02  0.54367076908E+02  0.39999983427E+02 0.  0.
        -12    1    3    3    0    0 -0.11550875484E+01 -0.30158565767E+02  0.21092820129E+02  0.36820923092E+02  0.00000000000E+00 0.  1.
         11    1    4    4    0    0 -0.84459753685E+00  0.20659209684E+02  0.90206744123E+00  0.20696135284E+02  0.51100000000E-03 0. -1.
        -11    1    4    4    0    0 -0.83450425744E+01 -0.62063701767E+00 -0.15901242776E+02  0.17968707465E+02  0.51100000000E-03 0.  1.
        -12    1    4    4    0    0  0.10344727660E+02  0.10119993100E+02 -0.60936447946E+01  0.15702234159E+02  0.00000000000E+00 0.  1.
</event>
<event>
 8    1  0.2432279E-006  0.9118800E+02  0.7816164E-02  0.1184000E+00
        -11   -1    0    0    0    0  0.00000000000E+00  0.00000000000E+00  0.45593999997E+02  0.45594000000E+02  0.51100000000E-03 0.  1.
         11   -1    0    0    0    0 -0.00000000000E+00 -0.00000000000E+00 -0.45593999997E+02  0.45594000000E+02  0.51100000000E-03 0. -1.
         23    2    1    2    0    0 -0.35527136788E-14  0.00000000000E+00  0.00000000000E+00  0.91188000000E+02  0.91188000000E+02 0.  0.
    9900012    2    3    3    0    0  0.25117931160E+02  0.21063544102E+02 -0.16768969463E+02  0.54367059045E+02  0.39999942706E+02 0.  0.
        -12    1    3    3    0    0 -0.25117931160E+02 -0.21063544102E+02  0.16768969463E+02  0.36820940955E+02  0.00000000000E+00 0.  1.
         11    1    4    4    0    0  0.11202007596E+02 -0.18008365781E+01 -0.49667001990E+01  0.12385317828E+02  0.51100000000E-03 0. -1.
        -11    1    4    4    0    0  0.21563949385E+02  0.97803789753E+01 -0.12568224399E+02  0.26807088443E+02  0.51100000000E-03 0.  1.
        -12    1    4    4    0    0 -0.76480258209E+01  0.13084001705E+02  0.76595513448E+00  0.15174652775E+02  0.00000000000E+00 0.  1.
</event>
<event>
 8    1  0.2432279E-006  0.9118800E+02  0.7816164E-02  0.1184000E+00
        -11   -1    0    0    0    0  0.00000000000E+00  0.00000000000E+00  0.45593999997E+02  0.45594000000E+02  0.51100000000E-03 0.  1.
         11   -1    0    0    0    0 -0.00000000000E+00 -0.00000000000E+00 -0.45593999997E+02  0.45594000000E+02  0.51100000000E-03 0. -1.
         23    2    1    2    0    0  0.44408920985E-15  0.00000000000E+00 -0.35527136788E-14  0.91188000000E+02  0.91188000000E+02 0.  0.
    9900012    2    3    3    0    0  0.14577226810E+01 -0.26357806243E+02 -0.25669446630E+02  0.54367090239E+02  0.40000013818E+02 0.  0.
        -12    1    3    3    0    0 -0.14577226810E+01  0.26357806243E+02  0.25669446630E+02  0.36820909761E+02  0.00000000000E+00 0.  1.
         11    1    4    4    0    0 -0.27176372036E+01 -0.68395436193E+00 -0.32038073657E+01  0.42564923866E+01  0.51100000000E-03 0. -1.
        -11    1    4    4    0    0  0.15152100370E+02 -0.24665146098E+02 -0.25607692379E+02  0.38648537966E+02  0.51100000000E-03 0.  1.
        -12    1    4    4    0    0 -0.10976740486E+02 -0.10087057826E+01  0.31420531152E+01  0.11462059886E+02  0.00000000000E+00 0.  1.
</event>
<event>
 8    1  0.2432279E-006  0.9118800E+02  0.7816164E-02  0.1184000E+00
        -11   -1    0    0    0    0  0.00000000000E+00  0.00000000000E+00  0.45593999997E+02  0.45594000000E+02  0.51100000000E-03 0. -1.
         11   -1    0    0    0    0 -0.00000000000E+00 -0.00000000000E+00 -0.45593999997E+02  0.45594000000E+02  0.51100000000E-03 0.  1.
         23    2    1    2    0    0 -0.13322676296E-14  0.00000000000E+00  0.00000000000E+00  0.91188000000E+02  0.91188000000E+02 0.  0.
    9900012    2    3    3    0    0 -0.31601678411E+01 -0.15576635930E+02  0.33213892595E+02  0.54367069689E+02  0.39999966969E+02 0.  0.
        -12    1    3    3    0    0  0.31601678411E+01  0.15576635930E+02 -0.33213892595E+02  0.36820930311E+02  0.00000000000E+00 0.  1.
         11    1    4    4    0    0 -0.14806486281E+02 -0.12121300217E+02  0.26724613784E+02  0.32868874899E+02  0.51100000000E-03 0. -1.
        -11    1    4    4    0    0  0.15100849491E+02  0.64202077923E+00  0.43533382598E+01  0.15728935129E+02  0.51100000000E-03 0.  1.
        -12    1    4    4    0    0 -0.34545310504E+01 -0.40973564918E+01  0.21359405512E+01  0.57692596611E+01  0.00000000000E+00 0.  1.
</event>
<event>
 8    1  0.2432279E-006  0.9118800E+02  0.7816164E-02  0.1184000E+00
        -11   -1    0    0    0    0  0.00000000000E+00  0.00000000000E+00  0.45593999997E+02  0.45594000000E+02  0.51100000000E-03 0.  1.
         11   -1    0    0    0    0 -0.00000000000E+00 -0.00000000000E+00 -0.45593999997E+02  0.45594000000E+02  0.51100000000E-03 0. -1.
         23    2    1    2    0    0 -0.71054273576E-14  0.35527136788E-14  0.00000000000E+00  0.91188000000E+02  0.91188000000E+02 0.  0.
    9900012    2    3    3    0    0 -0.28020920233E+02  0.18692099146E+02  0.14873291444E+02  0.54367063842E+02  0.39999953640E+02 0.  0.
         12    1    3    3    0    0  0.28020920233E+02 -0.18692099146E+02 -0.14873291444E+02  0.36820936158E+02  0.00000000000E+00 0. -1.
         11    1    4    4    0    0  0.93486272403E+00 -0.60286925735E+01  0.10066897748E+02  0.11771216292E+02  0.51100000000E-03 0. -1.
        -11    1    4    4    0    0 -0.52862230660E+01  0.30164281487E+01  0.82996878899E+01  0.10292123805E+02  0.51100000000E-03 0.  1.
         12    1    4    4    0    0 -0.23669559891E+02  0.21704363571E+02 -0.34932941939E+01  0.32303723745E+02  0.00000000000E+00 0. -1.
</event>
<event>
 8    1  0.2432279E-006  0.9118800E+02  0.7816164E-02  0.1184000E+00
        -11   -1    0    0    0    0  0.00000000000E+00  0.00000000000E+00  0.45593999997E+02  0.45594000000E+02  0.51100000000E-03 0.  1.
         11   -1    0    0    0    0 -0.00000000000E+00 -0.00000000000E+00 -0.45593999997E+02  0.45594000000E+02  0.51100000000E-03 0. -1.
         23    2    1    2    0    0  0.00000000000E+00 -0.13322676296E-14  0.00000000000E+00  0.91188000000E+02  0.91188000000E+02 0.  0.
    9900012    2    3    3    0    0  0.34842175855E+02 -0.10184677420E+01 -0.11864465750E+02  0.54367081457E+02  0.39999993797E+02 0.  0.
        -12    1    3    3    0    0 -0.34842175855E+02  0.10184677420E+01  0.11864465750E+02  0.36820918543E+02  0.00000000000E+00 0.  1.
         11    1    4    4    0    0  0.10607347583E+02 -0.73491894049E+01 -0.49155351884E+01  0.13809014958E+02  0.51100000000E-03 0. -1.
        -11    1    4    4    0    0 -0.58070134564E+01 -0.42029518169E+01 -0.48478058469E+01  0.86537524259E+01  0.51100000000E-03 0.  1.
         12    1    4    4    0    0  0.30041841728E+02  0.10533673480E+02 -0.21011247146E+01  0.31904314073E+02  0.00000000000E+00 0. -1.
</event>
<event>
 8    1  0.2432279E-006  0.9118800E+02  0.7816164E-02  0.1184000E+00
        -11   -1    0    0    0    0  0.00000000000E+00  0.00000000000E+00  0.45593999997E+02  0.45594000000E+02  0.51100000000E-03 0. -1.
         11   -1    0    0    0    0 -0.00000000000E+00 -0.00000000000E+00 -0.45593999997E+02  0.45594000000E+02  0.51100000000E-03 0.  1.
         23    2    1    2    0    0  0.00000000000E+00  0.00000000000E+00  0.00000000000E+00  0.91188000000E+02  0.91188000000E+02 0.  0.
    9900012    2    3    3    0    0  0.19222030665E+02  0.29951177716E+02  0.94454925697E+01  0.54367124952E+02  0.40000092952E+02 0.  0.
         12    1    3    3    0    0 -0.19222030665E+02 -0.29951177716E+02 -0.94454925697E+01  0.36820875048E+02  0.00000000000E+00 0. -1.
         11    1    4    4    0    0  0.30658894315E+01 -0.30626188546E+01  0.31465906902E+01  0.53554033917E+01  0.51100000000E-03 0. -1.
        -11    1    4    4    0    0 -0.96459643789E-01  0.31921608001E+02  0.12046995038E+01  0.31944477817E+02  0.51100000000E-03 0.  1.
        -12    1    4    4    0    0  0.16252600877E+02  0.10921885695E+01  0.50942023757E+01  0.17067243743E+02  0.00000000000E+00 0.  1.
</event>
<event>
 8    1  0.2432279E-006  0.9118800E+02  0.7816164E-02  0.1184000E+00
        -11   -1    0    0    0    0  0.00000000000E+00  0.00000000000E+00  0.45593999997E+02  0.45594000000E+02  0.51100000000E-03 0. -1.
         11   -1    0    0    0    0 -0.00000000000E+00 -0.00000000000E+00 -0.45593999997E+02  0.45594000000E+02  0.51100000000E-03 0.  1.
         23    2    1    2    0    0 -0.71054273576E-14  0.88817841970E-15  0.00000000000E+00  0.91188000000E+02  0.91188000000E+02 0.  0.
    9900012    2    3    3    0    0  0.32354240788E+02 -0.19002698452E+01  0.17474889828E+02  0.54367086147E+02  0.40000004490E+02 0.  0.
        -12    1    3    3    0    0 -0.32354240788E+02  0.19002698452E+01 -0.17474889828E+02  0.36820913853E+02  0.00000000000E+00 0.  1.
         11    1    4    4    0    0  0.91863416490E+01 -0.13321148655E+02  0.89467604532E+01  0.18490170287E+02  0.51100000000E-03 0. -1.
        -11    1    4    4    0    0  0.15972936154E+02 -0.50075189555E+01  0.23279905269E+01  0.16900576192E+02  0.51100000000E-03 0.  1.
         12    1    4    4    0    0  0.71949629850E+01  0.16428397765E+02  0.62001388481E+01  0.18976339668E+02  0.00000000000E+00 0. -1.
</event>
<event>
 8    1  0.2432279E-006  0.9118800E+02  0.7816164E-02  0.1184000E+00
        -11   -1    0    0    0    0  0.00000000000E+00  0.00000000000E+00  0.45593999997E+02  0.45594000000E+02  0.51100000000E-03 0. -1.
         11   -1    0    0    0    0 -0.00000000000E+00 -0.00000000000E+00 -0.45593999997E+02  0.45594000000E+02  0.51100000000E-03 0.  1.
         23    2    1    2    0    0  0.35527136788E-14  0.35527136788E-14 -0.17763568394E-14  0.91188000000E+02  0.91188000000E+02 0.  0.
    9900012    2    3    3    0    0 -0.21088140556E+02 -0.30047183204E+02  0.28700911565E+01  0.54367077770E+02  0.39999985393E+02 0.  0.
        -12    1    3    3    0    0  0.21088140556E+02  0.30047183204E+02 -0.28700911565E+01  0.36820922230E+02  0.00000000000E+00 0.  1.
         11    1    4    4    0    0 -0.60922735680E+01 -0.15157398728E+01  0.14180159829E+02  0.15507746375E+02  0.51100000000E-03 0. -1.
        -11    1    4    4    0    0 -0.46842138937E+01 -0.18776722659E+02  0.19302718877E+01  0.19448216459E+02  0.51100000000E-03 0.  1.
        -12    1    4    4    0    0 -0.10311653094E+02 -0.97547206720E+01 -0.13240340560E+02  0.19411114936E+02  0.00000000000E+00 0.  1.
</event>
<event>
 8    1  0.2432279E-006  0.9118800E+02  0.7816164E-02  0.1184000E+00
        -11   -1    0    0    0    0  0.00000000000E+00  0.00000000000E+00  0.45593999997E+02  0.45594000000E+02  0.51100000000E-03 0.  1.
         11   -1    0    0    0    0 -0.00000000000E+00 -0.00000000000E+00 -0.45593999997E+02  0.45594000000E+02  0.51100000000E-03 0. -1.
         23    2    1    2    0    0 -0.35527136788E-14  0.00000000000E+00 -0.71054273576E-14  0.91188000000E+02  0.91188000000E+02 0.  0.
    9900012    2    3    3    0    0 -0.28024412327E+02 -0.52905752310E+01 -0.23289970304E+02  0.54367074030E+02  0.39999976866E+02 0.  0.
         12    1    3    3    0    0  0.28024412327E+02  0.52905752310E+01  0.23289970304E+02  0.36820925970E+02  0.00000000000E+00 0. -1.
         11    1    4    4    0    0  0.50205636324E+01  0.69372383555E+01 -0.24514229002E+01  0.89073458272E+01  0.51100000000E-03 0. -1.
        -11    1    4    4    0    0 -0.17020769750E+02 -0.94062611924E+01 -0.55260897066E+00  0.19454812501E+02  0.51100000000E-03 0.  1.
        -12    1    4    4    0    0 -0.16024206209E+02 -0.28215523941E+01 -0.20285938433E+02  0.26004915702E+02  0.00000000000E+00 0.  1.
</event>
<event>
 8    1  0.2432279E-006  0.9118800E+02  0.7816164E-02  0.1184000E+00
        -11   -1    0    0    0    0  0.00000000000E+00  0.00000000000E+00  0.45593999997E+02  0.45594000000E+02  0.51100000000E-03 0.  1.
         11   -1    0    0    0    0 -0.00000000000E+00 -0.00000000000E+00 -0.45593999997E+02  0.45594000000E+02  0.51100000000E-03 0. -1.
         23    2    1    2    0    0  0.35527136788E-14  0.00000000000E+00  0.00000000000E+00  0.91188000000E+02  0.91188000000E+02 0.  0.
    9900012    2    3    3    0    0 -0.22822938553E+02  0.21566425997E+02  0.19229724937E+02  0.54367087795E+02  0.40000008245E+02 0.  0.
         12    1    3    3    0    0  0.22822938553E+02 -0.21566425997E+02 -0.19229724937E+02  0.36820912205E+02  0.00000000000E+00 0. -1.
         11    1    4    4    0    0  0.61348166506E+01 -0.43473157000E+01 -0.10888212878E+01  0.75974114795E+01  0.51100000000E-03 0. -1.
        -11    1    4    4    0    0  0.12530714040E+01 -0.51106735815E+00 -0.63242754085E+00  0.14937679350E+01  0.51100000000E-03 0.  1.
        -12    1    4    4    0    0 -0.30210826608E+02  0.26424809055E+02  0.20950973766E+02  0.45275908380E+02  0.00000000000E+00 0.  1.
</event>
<event>
 8    1  0.2432279E-006  0.9118800E+02  0.7816164E-02  0.1184000E+00
        -11   -1    0    0    0    0  0.00000000000E+00  0.00000000000E+00  0.45593999997E+02  0.45594000000E+02  0.51100000000E-03 0. -1.
         11   -1    0    0    0    0 -0.00000000000E+00 -0.00000000000E+00 -0.45593999997E+02  0.45594000000E+02  0.51100000000E-03 0.  1.
         23    2    1    2    0    0  0.00000000000E+00  0.00000000000E+00 -0.88817841970E-15  0.91188000000E+02  0.91188000000E+02 0.  0.
    9900012    2    3    3    0    0 -0.32275496182E+02 -0.17072775401E+02 -0.47531497549E+01  0.54367085478E+02  0.40000002963E+02 0.  0.
         12    1    3    3    0    0  0.32275496182E+02  0.17072775401E+02  0.47531497549E+01  0.36820914522E+02  0.00000000000E+00 0. -1.
         11    1    4    4    0    0  0.16174645963E+01 -0.10132709917E+02 -0.14663096367E+02  0.17896770583E+02  0.51100000000E-03 0. -1.
        -11    1    4    4    0    0 -0.11609693899E+02 -0.50905761104E+01  0.25531557921E+01  0.12931262982E+02  0.51100000000E-03 0.  1.
         12    1    4    4    0    0 -0.22283266880E+02 -0.18494893733E+01  0.73567908197E+01  0.23539051912E+02  0.00000000000E+00 0. -1.
</event>
<event>
 8    1  0.2432279E-006  0.9118800E+02  0.7816164E-02  0.1184000E+00
        -11   -1    0    0    0    0  0.00000000000E+00  0.00000000000E+00  0.45593999997E+02  0.45594000000E+02  0.51100000000E-03 0. -1.
         11   -1    0    0    0    0 -0.00000000000E+00 -0.00000000000E+00 -0.45593999997E+02  0.45594000000E+02  0.51100000000E-03 0.  1.
         23    2    1    2    0    0  0.00000000000E+00  0.35527136788E-14  0.35527136788E-14  0.91188000000E+02  0.91188000000E+02 0.  0.
    9900012    2    3    3    0    0 -0.10874349843E+02 -0.26022539436E+02 -0.23671900858E+02  0.54367042198E+02  0.39999904300E+02 0.  0.
         12    1    3    3    0    0  0.10874349843E+02  0.26022539436E+02  0.23671900858E+02  0.36820957802E+02  0.00000000000E+00 0. -1.
         11    1    4    4    0    0 -0.37550057861E+00  0.77249526002E-01  0.99119367275E+01  0.99193476663E+01  0.51100000000E-03 0. -1.
        -11    1    4    4    0    0 -0.11086245725E+02 -0.20309150909E+02 -0.28580401787E+02  0.36772351318E+02  0.51100000000E-03 0.  1.
         12    1    4    4    0    0  0.58739646064E+00 -0.57906380531E+01 -0.50034357988E+01  0.76753432143E+01  0.00000000000E+00 0. -1.
</event>
<event>
 8    1  0.2432279E-006  0.9118800E+02  0.7816164E-02  0.1184000E+00
        -11   -1    0    0    0    0  0.00000000000E+00  0.00000000000E+00  0.45593999997E+02  0.45594000000E+02  0.51100000000E-03 0. -1.
         11   -1    0    0    0    0 -0.00000000000E+00 -0.00000000000E+00 -0.45593999997E+02  0.45594000000E+02  0.51100000000E-03 0.  1.
         23    2    1    2    0    0 -0.17763568394E-14 -0.35527136788E-14  0.00000000000E+00  0.91188000000E+02  0.91188000000E+02 0.  0.
    9900012    2    3    3    0    0 -0.56495790203E+01  0.28834981619E+02 -0.22190161857E+02  0.54367120172E+02  0.40000082057E+02 0.  0.
         12    1    3    3    0    0  0.56495790203E+01 -0.28834981619E+02  0.22190161857E+02  0.36820879828E+02  0.00000000000E+00 0. -1.
         11    1    4    4    0    0  0.26217225271E+01  0.58199914256E+01  0.72300138495E+00  0.64240532740E+01  0.51100000000E-03 0. -1.
        -11    1    4    4    0    0  0.11359756010E+02 -0.62947769207E+00 -0.58868764459E+01  0.12809981004E+02  0.51100000000E-03 0.  1.
        -12    1    4    4    0    0 -0.19631057557E+02  0.23644467885E+02 -0.17026286796E+02  0.35133085894E+02  0.00000000000E+00 0.  1.
</event>
<event>
 8    1  0.2432279E-006  0.9118800E+02  0.7816164E-02  0.1184000E+00
        -11   -1    0    0    0    0  0.00000000000E+00  0.00000000000E+00  0.45593999997E+02  0.45594000000E+02  0.51100000000E-03 0.  1.
         11   -1    0    0    0    0 -0.00000000000E+00 -0.00000000000E+00 -0.45593999997E+02  0.45594000000E+02  0.51100000000E-03 0. -1.
         23    2    1    2    0    0  0.44408920985E-15 -0.35527136788E-14 -0.35527136788E-14  0.91188000000E+02  0.91188000000E+02 0.  0.
    9900012    2    3    3    0    0  0.39999377889E+01 -0.26772096132E+02 -0.24960669688E+02  0.54367086582E+02  0.40000005482E+02 0.  0.
        -12    1    3    3    0    0 -0.39999377889E+01  0.26772096132E+02  0.24960669688E+02  0.36820913418E+02  0.00000000000E+00 0.  1.
         11    1    4    4    0    0  0.10419845861E+01 -0.67015503376E+01  0.28321950809E+01  0.73496828532E+01  0.51100000000E-03 0.  1.
        -11    1    4    4    0    0 -0.27461673678E+01 -0.20428987974E+02 -0.21262111834E+01  0.20722107980E+02  0.51100000000E-03 0. -1.
         12    1    4    4    0    0  0.57041205707E+01  0.35844217954E+00 -0.25666653585E+02  0.26295295749E+02  0.00000000000E+00 0. -1.
</event>
<event>
 8    1  0.2432279E-006  0.9118800E+02  0.7816164E-02  0.1184000E+00
        -11   -1    0    0    0    0  0.00000000000E+00  0.00000000000E+00  0.45593999997E+02  0.45594000000E+02  0.51100000000E-03 0.  1.
         11   -1    0    0    0    0 -0.00000000000E+00 -0.00000000000E+00 -0.45593999997E+02  0.45594000000E+02  0.51100000000E-03 0. -1.
         23    2    1    2    0    0  0.00000000000E+00  0.00000000000E+00 -0.71054273576E-14  0.91188000000E+02  0.91188000000E+02 0.  0.
    9900012    2    3    3    0    0 -0.12057836690E+02 -0.90662478765E+01  0.33588599696E+02  0.54367050722E+02  0.39999923730E+02 0.  0.
         12    1    3    3    0    0  0.12057836690E+02  0.90662478765E+01 -0.33588599696E+02  0.36820949278E+02  0.00000000000E+00 0. -1.
         11    1    4    4    0    0 -0.20255033732E+01 -0.11201855661E+02  0.25989923261E+00  0.11386473644E+02  0.51100000000E-03 0. -1.
        -11    1    4    4    0    0 -0.14576924362E+02  0.54656328677E+01  0.33913747827E+02  0.37316245235E+02  0.51100000000E-03 0.  1.
         12    1    4    4    0    0  0.45445910444E+01 -0.33300250831E+01 -0.58504736334E+00  0.56643318434E+01  0.00000000000E+00 0. -1.
</event>
<event>
 8    1  0.2432279E-006  0.9118800E+02  0.7816164E-02  0.1184000E+00
        -11   -1    0    0    0    0  0.00000000000E+00  0.00000000000E+00  0.45593999997E+02  0.45594000000E+02  0.51100000000E-03 0.  1.
         11   -1    0    0    0    0 -0.00000000000E+00 -0.00000000000E+00 -0.45593999997E+02  0.45594000000E+02  0.51100000000E-03 0. -1.
         23    2    1    2    0    0  0.00000000000E+00 -0.35527136788E-14  0.22204460493E-15  0.91188000000E+02  0.91188000000E+02 0.  0.
    9900012    2    3    3    0    0  0.20826342223E+02 -0.30305320357E+02 -0.19051850237E+01  0.54367099654E+02  0.40000035281E+02 0.  0.
         12    1    3    3    0    0 -0.20826342223E+02  0.30305320357E+02  0.19051850237E+01  0.36820900346E+02  0.00000000000E+00 0. -1.
         11    1    4    4    0    0  0.11535119475E+02  0.22325827535E+01 -0.70574720112E+01  0.13705886272E+02  0.51100000000E-03 0.  1.
        -11    1    4    4    0    0 -0.11447524395E+01  0.13492761553E+01  0.48923756761E+01  0.52025324899E+01  0.51100000000E-03 0. -1.
        -12    1    4    4    0    0  0.10435975188E+02 -0.33887179265E+02  0.25991131140E+00  0.35458680892E+02  0.00000000000E+00 0.  1.
</event>
<event>
 8    1  0.2432279E-006  0.9118800E+02  0.7816164E-02  0.1184000E+00
        -11   -1    0    0    0    0  0.00000000000E+00  0.00000000000E+00  0.45593999997E+02  0.45594000000E+02  0.51100000000E-03 0. -1.
         11   -1    0    0    0    0 -0.00000000000E+00 -0.00000000000E+00 -0.45593999997E+02  0.45594000000E+02  0.51100000000E-03 0.  1.
         23    2    1    2    0    0 -0.88817841970E-15 -0.44408920985E-15  0.00000000000E+00  0.91188000000E+02  0.91188000000E+02 0.  0.
    9900012    2    3    3    0    0 -0.67187068025E+01 -0.90783859745E+00 -0.36191369061E+02  0.54367076783E+02  0.39999983143E+02 0.  0.
         12    1    3    3    0    0  0.67187068025E+01  0.90783859745E+00  0.36191369061E+02  0.36820923217E+02  0.00000000000E+00 0. -1.
         11    1    4    4    0    0 -0.89889080001E+01  0.62530801091E+01 -0.25595325484E+01  0.11245118275E+02  0.51100000000E-03 0. -1.
        -11    1    4    4    0    0  0.10634515768E+02 -0.13509089268E+01 -0.30709488183E+02  0.32526766597E+02  0.51100000000E-03 0.  1.
        -12    1    4    4    0    0 -0.83643145707E+01 -0.58100097797E+01 -0.29223483299E+01  0.10595191911E+02  0.00000000000E+00 0.  1.
</event>
<event>
 8    1  0.2432279E-006  0.9118800E+02  0.7816164E-02  0.1184000E+00
        -11   -1    0    0    0    0  0.00000000000E+00  0.00000000000E+00  0.45593999997E+02  0.45594000000E+02  0.51100000000E-03 0.  1.
         11   -1    0    0    0    0 -0.00000000000E+00 -0.00000000000E+00 -0.45593999997E+02  0.45594000000E+02  0.51100000000E-03 0. -1.
         23    2    1    2    0    0 -0.17763568394E-14  0.71054273576E-14 -0.35527136788E-14  0.91188000000E+02  0.91188000000E+02 0.  0.
    9900012    2    3    3    0    0 -0.97247843517E+01  0.29626707015E+02 -0.19582155164E+02  0.54367163506E+02  0.40000180845E+02 0.  0.
        -12    1    3    3    0    0  0.97247843517E+01 -0.29626707015E+02  0.19582155164E+02  0.36820836494E+02  0.00000000000E+00 0.  1.
         11    1    4    4    0    0 -0.56361948916E+01  0.87499705325E+00 -0.33654287832E+01  0.66225692790E+01  0.51100000000E-03 0. -1.
        -11    1    4    4    0    0 -0.28833860615E+01  0.17138465615E+02  0.92799686838E+01  0.19701744538E+02  0.51100000000E-03 0.  1.
         12    1    4    4    0    0 -0.12052033986E+01  0.11613244346E+02 -0.25496695064E+02  0.28042849689E+02  0.00000000000E+00 0. -1.
</event>
<event>
 8    1  0.2432279E-006  0.9118800E+02  0.7816164E-02  0.1184000E+00
        -11   -1    0    0    0    0  0.00000000000E+00  0.00000000000E+00  0.45593999997E+02  0.45594000000E+02  0.51100000000E-03 0.  1.
         11   -1    0    0    0    0 -0.00000000000E+00 -0.00000000000E+00 -0.45593999997E+02  0.45594000000E+02  0.51100000000E-03 0. -1.
         23    2    1    2    0    0  0.00000000000E+00 -0.35527136788E-14  0.35527136788E-14  0.91188000000E+02  0.91188000000E+02 0.  0.
    9900012    2    3    3    0    0  0.93992030561E+01 -0.29907531126E+02 -0.19312529342E+02  0.54367092546E+02  0.40000019077E+02 0.  0.
        -12    1    3    3    0    0 -0.93992030561E+01  0.29907531126E+02  0.19312529342E+02  0.36820907454E+02  0.00000000000E+00 0.  1.
         11    1    4    4    0    0  0.50949209934E+01 -0.89227637556E+01 -0.41032565935E+01  0.11063934558E+02  0.51100000000E-03 0. -1.
        -11    1    4    4    0    0 -0.58834145581E+01 -0.11431572803E+02  0.87631288436E+01  0.15559172568E+02  0.51100000000E-03 0.  1.
        -12    1    4    4    0    0  0.10187696621E+02 -0.95531945681E+01 -0.23972401592E+02  0.27743985420E+02  0.00000000000E+00 0.  1.
</event>
<event>
 8    1  0.2432279E-006  0.9118800E+02  0.7816164E-02  0.1184000E+00
        -11   -1    0    0    0    0  0.00000000000E+00  0.00000000000E+00  0.45593999997E+02  0.45594000000E+02  0.51100000000E-03 0. -1.
         11   -1    0    0    0    0 -0.00000000000E+00 -0.00000000000E+00 -0.45593999997E+02  0.45594000000E+02  0.51100000000E-03 0.  1.
         23    2    1    2    0    0  0.00000000000E+00 -0.44408920985E-15  0.00000000000E+00  0.91188000000E+02  0.91188000000E+02 0.  0.
    9900012    2    3    3    0    0  0.14985360306E+02  0.34824100258E+01 -0.33452853329E+02  0.54367060319E+02  0.39999945610E+02 0.  0.
         12    1    3    3    0    0 -0.14985360306E+02 -0.34824100258E+01  0.33452853329E+02  0.36820939681E+02  0.00000000000E+00 0. -1.
         11    1    4    4    0    0  0.52139562736E+01 -0.16144776213E+01  0.21982311891E+01  0.58842245568E+01  0.51100000000E-03 0. -1.
        -11    1    4    4    0    0  0.10833753971E+02  0.15931593330E+02 -0.31309579673E+02  0.36762421992E+02  0.51100000000E-03 0.  1.
        -12    1    4    4    0    0 -0.10623499386E+01 -0.10834705683E+02 -0.43415048455E+01  0.11720413771E+02  0.00000000000E+00 0.  1.
</event>
<event>
 8    1  0.2432279E-006  0.9118800E+02  0.7816164E-02  0.1184000E+00
        -11   -1    0    0    0    0  0.00000000000E+00  0.00000000000E+00  0.45593999997E+02  0.45594000000E+02  0.51100000000E-03 0.  1.
         11   -1    0    0    0    0 -0.00000000000E+00 -0.00000000000E+00 -0.45593999997E+02  0.45594000000E+02  0.51100000000E-03 0. -1.
         23    2    1    2    0    0  0.00000000000E+00  0.00000000000E+00 -0.35527136788E-14  0.91188000000E+02  0.91188000000E+02 0.  0.
    9900012    2    3    3    0    0  0.28619625270E+02  0.14184076433E+02  0.18316941054E+02  0.54367064319E+02  0.39999954728E+02 0.  0.
         12    1    3    3    0    0 -0.28619625270E+02 -0.14184076433E+02 -0.18316941054E+02  0.36820935681E+02  0.00000000000E+00 0. -1.
         11    1    4    4    0    0 -0.30580019755E+01 -0.13152438819E+01  0.55510231860E+01  0.64726425225E+01  0.51100000000E-03 0. -1.
        -11    1    4    4    0    0  0.14909679826E+02 -0.77571709673E+01  0.79814475177E+00  0.16825851813E+02  0.51100000000E-03 0.  1.
         12    1    4    4    0    0  0.16767947419E+02  0.23256491283E+02  0.11967773116E+02  0.31068569983E+02  0.00000000000E+00 0. -1.
</event>
<event>
 8    1  0.2432279E-006  0.9118800E+02  0.7816164E-02  0.1184000E+00
        -11   -1    0    0    0    0  0.00000000000E+00  0.00000000000E+00  0.45593999997E+02  0.45594000000E+02  0.51100000000E-03 0.  1.
         11   -1    0    0    0    0 -0.00000000000E+00 -0.00000000000E+00 -0.45593999997E+02  0.45594000000E+02  0.51100000000E-03 0. -1.
         23    2    1    2    0    0  0.00000000000E+00  0.71054273576E-14  0.11657341759E-14  0.91188000000E+02  0.91188000000E+02 0.  0.
    9900012    2    3    3    0    0  0.88441543776E+01 -0.35739646287E+02  0.48805262967E+00  0.54367087752E+02  0.40000008148E+02 0.  0.
         12    1    3    3    0    0 -0.88441543776E+01  0.35739646287E+02 -0.48805262967E+00  0.36820912248E+02  0.00000000000E+00 0. -1.
         11    1    4    4    0    0 -0.15726567299E+01  0.22291335364E+01 -0.89825732727E+01  0.93876998446E+01  0.51100000000E-03 0. -1.
        -11    1    4    4    0    0  0.85258977824E+01 -0.80636702913E+01  0.93657718363E+01  0.15014372911E+02  0.51100000000E-03 0.  1.
        -12    1    4    4    0    0  0.18909133250E+01 -0.29905109532E+02  0.10485406608E+00  0.29965014996E+02  0.00000000000E+00 0.  1.
</event>
<event>
 8    1  0.2432279E-006  0.9118800E+02  0.7816164E-02  0.1184000E+00
        -11   -1    0    0    0    0  0.00000000000E+00  0.00000000000E+00  0.45593999997E+02  0.45594000000E+02  0.51100000000E-03 0.  1.
         11   -1    0    0    0    0 -0.00000000000E+00 -0.00000000000E+00 -0.45593999997E+02  0.45594000000E+02  0.51100000000E-03 0. -1.
         23    2    1    2    0    0 -0.17763568394E-14  0.26645352591E-14  0.71054273576E-14  0.91188000000E+02  0.91188000000E+02 0.  0.
    9900012    2    3    3    0    0 -0.14786335665E+02 -0.44682563690E+01  0.33424223018E+02  0.54367085811E+02  0.40000003722E+02 0.  0.
         12    1    3    3    0    0  0.14786335665E+02  0.44682563690E+01 -0.33424223018E+02  0.36820914189E+02  0.00000000000E+00 0. -1.
         11    1    4    4    0    0  0.26816068364E+01 -0.19070190723E+02  0.15044759969E+02  0.24437839352E+02  0.51100000000E-03 0. -1.
        -11    1    4    4    0    0 -0.14310470848E+01 -0.31243988812E+00  0.22340206172E+00  0.14816960501E+01  0.51100000000E-03 0.  1.
         12    1    4    4    0    0 -0.16036895417E+02  0.14914374242E+02  0.18156060987E+02  0.28447550408E+02  0.00000000000E+00 0. -1.
</event>
<event>
 8    1  0.2432279E-006  0.9118800E+02  0.7816164E-02  0.1184000E+00
        -11   -1    0    0    0    0  0.00000000000E+00  0.00000000000E+00  0.45593999997E+02  0.45594000000E+02  0.51100000000E-03 0.  1.
         11   -1    0    0    0    0 -0.00000000000E+00 -0.00000000000E+00 -0.45593999997E+02  0.45594000000E+02  0.51100000000E-03 0. -1.
         23    2    1    2    0    0  0.00000000000E+00 -0.17763568394E-14  0.00000000000E+00  0.91188000000E+02  0.91188000000E+02 0.  0.
    9900012    2    3    3    0    0 -0.32281439191E+02  0.41955253589E+01  0.17207153389E+02  0.54367083702E+02  0.39999998915E+02 0.  0.
         12    1    3    3    0    0  0.32281439191E+02 -0.41955253589E+01 -0.17207153389E+02  0.36820916298E+02  0.00000000000E+00 0. -1.
         11    1    4    4    0    0 -0.25423102723E+02  0.15189616552E+02  0.16104285886E+02  0.33710630774E+02  0.51100000000E-03 0. -1.
        -11    1    4    4    0    0 -0.94201586094E+01 -0.90764482896E+01  0.63262630199E+01  0.14530757235E+02  0.51100000000E-03 0.  1.
         12    1    4    4    0    0  0.25618221410E+01 -0.19176429038E+01 -0.52233955162E+01  0.61256956918E+01  0.00000000000E+00 0. -1.
</event>
<event>
 8    1  0.2432279E-006  0.9118800E+02  0.7816164E-02  0.1184000E+00
        -11   -1    0    0    0    0  0.00000000000E+00  0.00000000000E+00  0.45593999997E+02  0.45594000000E+02  0.51100000000E-03 0.  1.
         11   -1    0    0    0    0 -0.00000000000E+00 -0.00000000000E+00 -0.45593999997E+02  0.45594000000E+02  0.51100000000E-03 0. -1.
         23    2    1    2    0    0  0.00000000000E+00  0.00000000000E+00  0.00000000000E+00  0.91188000000E+02  0.91188000000E+02 0.  0.
    9900012    2    3    3    0    0 -0.32481332372E+02  0.62747810193E+01 -0.16166943066E+02  0.54367083694E+02  0.39999998897E+02 0.  0.
        -12    1    3    3    0    0  0.32481332372E+02 -0.62747810193E+01  0.16166943066E+02  0.36820916306E+02  0.00000000000E+00 0.  1.
         11    1    4    4    0    0  0.50986757964E+01 -0.22067384537E+01  0.46459220654E+01  0.72422911829E+01  0.51100000000E-03 0.  1.
        -11    1    4    4    0    0 -0.17681982954E+02 -0.45639823250E+01 -0.11458722659E+02  0.21558867807E+02  0.51100000000E-03 0. -1.
         12    1    4    4    0    0 -0.19898025214E+02  0.13045501798E+02 -0.93541424724E+01  0.25565924704E+02  0.00000000000E+00 0. -1.
</event>
<event>
 8    1  0.2432279E-006  0.9118800E+02  0.7816164E-02  0.1184000E+00
        -11   -1    0    0    0    0  0.00000000000E+00  0.00000000000E+00  0.45593999997E+02  0.45594000000E+02  0.51100000000E-03 0.  1.
         11   -1    0    0    0    0 -0.00000000000E+00 -0.00000000000E+00 -0.45593999997E+02  0.45594000000E+02  0.51100000000E-03 0. -1.
         23    2    1    2    0    0  0.35527136788E-14  0.00000000000E+00  0.17763568394E-14  0.91188000000E+02  0.91188000000E+02 0.  0.
    9900012    2    3    3    0    0  0.23085865010E+02  0.25577363754E+02  0.12985521872E+02  0.54367048380E+02  0.39999918392E+02 0.  0.
         12    1    3    3    0    0 -0.23085865010E+02 -0.25577363754E+02 -0.12985521872E+02  0.36820951620E+02  0.00000000000E+00 0. -1.
         11    1    4    4    0    0 -0.34740116647E-01  0.64068379636E+01 -0.61997938164E+01  0.89155046517E+01  0.51100000000E-03 0. -1.
        -11    1    4    4    0    0  0.36018549842E+01  0.20987496866E+02  0.72190452486E+01  0.22484728119E+02  0.51100000000E-03 0.  1.
         12    1    4    4    0    0  0.19518750143E+02 -0.18169710749E+01  0.11966270440E+02  0.22966815610E+02  0.00000000000E+00 0. -1.
</event>
<event>
 8    1  0.2432279E-006  0.9118800E+02  0.7816164E-02  0.1184000E+00
        -11   -1    0    0    0    0  0.00000000000E+00  0.00000000000E+00  0.45593999997E+02  0.45594000000E+02  0.51100000000E-03 0. -1.
         11   -1    0    0    0    0 -0.00000000000E+00 -0.00000000000E+00 -0.45593999997E+02  0.45594000000E+02  0.51100000000E-03 0.  1.
         23    2    1    2    0    0  0.00000000000E+00  0.00000000000E+00  0.00000000000E+00  0.91188000000E+02  0.91188000000E+02 0.  0.
    9900012    2    3    3    0    0  0.36314598479E+01 -0.18500149723E+02  0.31628084371E+02  0.54367098851E+02  0.40000033452E+02 0.  0.
        -12    1    3    3    0    0 -0.36314598479E+01  0.18500149723E+02 -0.31628084371E+02  0.36820901149E+02  0.00000000000E+00 0.  1.
         11    1    4    4    0    0 -0.79949452882E+01  0.22122304357E+01  0.97827153928E+01  0.12826325833E+02  0.51100000000E-03 0. -1.
        -11    1    4    4    0    0 -0.18263558354E+01 -0.21719507869E+02  0.12453090419E+02  0.25102829700E+02  0.51100000000E-03 0.  1.
        -12    1    4    4    0    0  0.13452760972E+02  0.10071277103E+01  0.93922785593E+01  0.16437943318E+02  0.00000000000E+00 0.  1.
</event>
<event>
 8    1  0.2432279E-006  0.9118800E+02  0.7816164E-02  0.1184000E+00
        -11   -1    0    0    0    0  0.00000000000E+00  0.00000000000E+00  0.45593999997E+02  0.45594000000E+02  0.51100000000E-03 0. -1.
         11   -1    0    0    0    0 -0.00000000000E+00 -0.00000000000E+00 -0.45593999997E+02  0.45594000000E+02  0.51100000000E-03 0.  1.
         23    2    1    2    0    0  0.00000000000E+00 -0.44408920985E-15 -0.71054273576E-14  0.91188000000E+02  0.91188000000E+02 0.  0.
    9900012    2    3    3    0    0  0.15021017083E+02  0.68918508197E+00 -0.33610610467E+02  0.54367094711E+02  0.40000024014E+02 0.  0.
         12    1    3    3    0    0 -0.15021017083E+02 -0.68918508197E+00  0.33610610467E+02  0.36820905289E+02  0.00000000000E+00 0. -1.
         11    1    4    4    0    0  0.24816801481E+02  0.44845143329E+01 -0.33410222398E+02  0.41859616165E+02  0.51100000000E-03 0. -1.
        -11    1    4    4    0    0 -0.21110020148E+01  0.97497247902E+00 -0.22473112818E+01  0.32337762909E+01  0.51100000000E-03 0.  1.
         12    1    4    4    0    0 -0.76847823836E+01 -0.47703017300E+01  0.20469232126E+01  0.92737022551E+01  0.00000000000E+00 0. -1.
</event>
<event>
 8    1  0.2432279E-006  0.9118800E+02  0.7816164E-02  0.1184000E+00
        -11   -1    0    0    0    0  0.00000000000E+00  0.00000000000E+00  0.45593999997E+02  0.45594000000E+02  0.51100000000E-03 0.  1.
         11   -1    0    0    0    0 -0.00000000000E+00 -0.00000000000E+00 -0.45593999997E+02  0.45594000000E+02  0.51100000000E-03 0. -1.
         23    2    1    2    0    0  0.00000000000E+00  0.00000000000E+00  0.71054273576E-14  0.91188000000E+02  0.91188000000E+02 0.  0.
    9900012    2    3    3    0    0 -0.16264702980E+02  0.52864294828E+01  0.32608184011E+02  0.54367074371E+02  0.39999977644E+02 0.  0.
         12    1    3    3    0    0  0.16264702980E+02 -0.52864294828E+01 -0.32608184011E+02  0.36820925629E+02  0.00000000000E+00 0. -1.
         11    1    4    4    0    0 -0.10417019888E+02  0.33744667749E+01  0.16976670549E+02  0.20201699744E+02  0.51100000000E-03 0. -1.
        -11    1    4    4    0    0 -0.70563282148E+01  0.49599475681E+01  0.23826063176E+02  0.25339181804E+02  0.51100000000E-03 0.  1.
         12    1    4    4    0    0  0.12086451237E+01 -0.30479848602E+01 -0.81945497139E+01  0.88261928234E+01  0.00000000000E+00 0. -1.
</event>
<event>
 8    1  0.2432279E-006  0.9118800E+02  0.7816164E-02  0.1184000E+00
        -11   -1    0    0    0    0  0.00000000000E+00  0.00000000000E+00  0.45593999997E+02  0.45594000000E+02  0.51100000000E-03 0.  1.
         11   -1    0    0    0    0 -0.00000000000E+00 -0.00000000000E+00 -0.45593999997E+02  0.45594000000E+02  0.51100000000E-03 0. -1.
         23    2    1    2    0    0  0.00000000000E+00  0.00000000000E+00  0.00000000000E+00  0.91188000000E+02  0.91188000000E+02 0.  0.
    9900012    2    3    3    0    0  0.21684364129E+02 -0.26575644663E+02  0.13390172848E+02  0.54367173477E+02  0.40000203575E+02 0.  0.
         12    1    3    3    0    0 -0.21684364129E+02  0.26575644663E+02 -0.13390172848E+02  0.36820826523E+02  0.00000000000E+00 0. -1.
         11    1    4    4    0    0  0.58098484571E+01  0.14886947680E+01  0.15566841351E+02  0.16682239091E+02  0.51100000000E-03 0. -1.
        -11    1    4    4    0    0  0.54608317682E+01 -0.47698565394E+01  0.74661140394E+01  0.10407452816E+02  0.51100000000E-03 0.  1.
         12    1    4    4    0    0  0.10413683904E+02 -0.23294482891E+02 -0.96427825421E+01  0.27277481570E+02  0.00000000000E+00 0. -1.
</event>
<event>
 8    1  0.2432279E-006  0.9118800E+02  0.7816164E-02  0.1184000E+00
        -11   -1    0    0    0    0  0.00000000000E+00  0.00000000000E+00  0.45593999997E+02  0.45594000000E+02  0.51100000000E-03 0.  1.
         11   -1    0    0    0    0 -0.00000000000E+00 -0.00000000000E+00 -0.45593999997E+02  0.45594000000E+02  0.51100000000E-03 0. -1.
         23    2    1    2    0    0  0.00000000000E+00  0.17763568394E-14  0.00000000000E+00  0.91188000000E+02  0.91188000000E+02 0.  0.
    9900012    2    3    3    0    0 -0.10757428024E+02 -0.14596215965E+02 -0.32046957641E+02  0.54367091915E+02  0.40000017638E+02 0.  0.
        -12    1    3    3    0    0  0.10757428024E+02  0.14596215965E+02  0.32046957641E+02  0.36820908085E+02  0.00000000000E+00 0.  1.
         11    1    4    4    0    0 -0.19459671917E+02  0.40763901469E+01 -0.23482366442E+02  0.30768771859E+02  0.51100000000E-03 0. -1.
        -11    1    4    4    0    0  0.12206298695E+01 -0.60983454510E+01 -0.61908420630E+01  0.87753222293E+01  0.51100000000E-03 0.  1.
         12    1    4    4    0    0  0.74816140243E+01 -0.12574260661E+02 -0.23737491359E+01  0.14822997826E+02  0.00000000000E+00 0. -1.
</event>
<event>
 8    1  0.2432279E-006  0.9118800E+02  0.7816164E-02  0.1184000E+00
        -11   -1    0    0    0    0  0.00000000000E+00  0.00000000000E+00  0.45593999997E+02  0.45594000000E+02  0.51100000000E-03 0. -1.
         11   -1    0    0    0    0 -0.00000000000E+00 -0.00000000000E+00 -0.45593999997E+02  0.45594000000E+02  0.51100000000E-03 0.  1.
         23    2    1    2    0    0  0.35527136788E-14 -0.88817841970E-15 -0.35527136788E-14  0.91188000000E+02  0.91188000000E+02 0.  0.
    9900012    2    3    3    0    0  0.19764630476E+02 -0.77233089280E+01 -0.30091355453E+02  0.54367084861E+02  0.40000001558E+02 0.  0.
         12    1    3    3    0    0 -0.19764630476E+02  0.77233089280E+01  0.30091355453E+02  0.36820915139E+02  0.00000000000E+00 0. -1.
         11    1    4    4    0    0 -0.34718114810E+01 -0.39924878308E+01 -0.34106508512E+01  0.62949164831E+01  0.51100000000E-03 0. -1.
        -11    1    4    4    0    0  0.15143960021E+02  0.28034227814E+01 -0.32635472337E+02  0.36087016492E+02  0.51100000000E-03 0.  1.
         12    1    4    4    0    0  0.80924819364E+01 -0.65342438786E+01  0.59547677350E+01  0.11985151886E+02  0.00000000000E+00 0. -1.
</event>
<event>
 8    1  0.2432279E-006  0.9118800E+02  0.7816164E-02  0.1184000E+00
        -11   -1    0    0    0    0  0.00000000000E+00  0.00000000000E+00  0.45593999997E+02  0.45594000000E+02  0.51100000000E-03 0.  1.
         11   -1    0    0    0    0 -0.00000000000E+00 -0.00000000000E+00 -0.45593999997E+02  0.45594000000E+02  0.51100000000E-03 0. -1.
         23    2    1    2    0    0  0.00000000000E+00  0.44408920985E-15  0.00000000000E+00  0.91188000000E+02  0.91188000000E+02 0.  0.
    9900012    2    3    3    0    0 -0.68962011696E+01  0.12984937086E+01 -0.36146060367E+02  0.54367063612E+02  0.39999953116E+02 0.  0.
        -12    1    3    3    0    0  0.68962011696E+01 -0.12984937086E+01  0.36146060367E+02  0.36820936388E+02  0.00000000000E+00 0.  1.
         11    1    4    4    0    0  0.51613380125E+01 -0.15874819285E+02 -0.13151530463E+02  0.21251165879E+02  0.51100000000E-03 0. -1.
        -11    1    4    4    0    0  0.19819153925E+01  0.27259019125E+01 -0.16041725912E+01  0.37325460243E+01  0.51100000000E-03 0.  1.
         12    1    4    4    0    0 -0.14039454575E+02  0.14447411081E+02 -0.21390357312E+02  0.29383351709E+02  0.00000000000E+00 0. -1.
</event>
<event>
 8    1  0.2432279E-006  0.9118800E+02  0.7816164E-02  0.1184000E+00
        -11   -1    0    0    0    0  0.00000000000E+00  0.00000000000E+00  0.45593999997E+02  0.45594000000E+02  0.51100000000E-03 0.  1.
         11   -1    0    0    0    0 -0.00000000000E+00 -0.00000000000E+00 -0.45593999997E+02  0.45594000000E+02  0.51100000000E-03 0. -1.
         23    2    1    2    0    0 -0.17763568394E-14  0.17763568394E-14  0.00000000000E+00  0.91188000000E+02  0.91188000000E+02 0.  0.
    9900012    2    3    3    0    0  0.12073841047E+02 -0.11790191786E+02 -0.32726039595E+02  0.54367083016E+02  0.39999997352E+02 0.  0.
        -12    1    3    3    0    0 -0.12073841047E+02  0.11790191786E+02  0.32726039595E+02  0.36820916984E+02  0.00000000000E+00 0.  1.
         11    1    4    4    0    0 -0.73471995803E+01  0.33127766259E+01 -0.15490709768E+01  0.82070367246E+01  0.51100000000E-03 0. -1.
        -11    1    4    4    0    0  0.12488030051E+02 -0.20387707910E+02 -0.16363810609E+02  0.28972121535E+02  0.51100000000E-03 0.  1.
         12    1    4    4    0    0  0.69330105760E+01  0.52847394979E+01 -0.14813158009E+02  0.17187924756E+02  0.00000000000E+00 0. -1.
</event>
<event>
 8    1  0.2432279E-006  0.9118800E+02  0.7816164E-02  0.1184000E+00
        -11   -1    0    0    0    0  0.00000000000E+00  0.00000000000E+00  0.45593999997E+02  0.45594000000E+02  0.51100000000E-03 0.  1.
         11   -1    0    0    0    0 -0.00000000000E+00 -0.00000000000E+00 -0.45593999997E+02  0.45594000000E+02  0.51100000000E-03 0. -1.
         23    2    1    2    0    0  0.00000000000E+00  0.35527136788E-14 -0.35527136788E-14  0.91188000000E+02  0.91188000000E+02 0.  0.
    9900012    2    3    3    0    0 -0.24372002178E+01 -0.26265725154E+02 -0.25689535434E+02  0.54367075329E+02  0.39999979828E+02 0.  0.
        -12    1    3    3    0    0  0.24372002178E+01  0.26265725154E+02  0.25689535434E+02  0.36820924671E+02  0.00000000000E+00 0.  1.
         11    1    4    4    0    0 -0.63416820283E+00  0.30032581020E+01 -0.65303941442E+01  0.72158004737E+01  0.51100000000E-03 0. -1.
        -11    1    4    4    0    0 -0.64360956636E+00  0.65311662571E+01 -0.62908993430E+01  0.90909724868E+01  0.51100000000E-03 0.  1.
         12    1    4    4    0    0 -0.11594224486E+01 -0.35800149513E+02 -0.12868241947E+02  0.38060302369E+02  0.00000000000E+00 0. -1.
</event>
<event>
 8    1  0.2432279E-006  0.9118800E+02  0.7816164E-02  0.1184000E+00
        -11   -1    0    0    0    0  0.00000000000E+00  0.00000000000E+00  0.45593999997E+02  0.45594000000E+02  0.51100000000E-03 0. -1.
         11   -1    0    0    0    0 -0.00000000000E+00 -0.00000000000E+00 -0.45593999997E+02  0.45594000000E+02  0.51100000000E-03 0.  1.
         23    2    1    2    0    0  0.00000000000E+00  0.00000000000E+00  0.35527136788E-14  0.91188000000E+02  0.91188000000E+02 0.  0.
    9900012    2    3    3    0    0 -0.17180945993E+02 -0.16599279117E+02 -0.28018898147E+02  0.54367087114E+02  0.40000006694E+02 0.  0.
         12    1    3    3    0    0  0.17180945993E+02  0.16599279117E+02  0.28018898147E+02  0.36820912886E+02  0.00000000000E+00 0. -1.
         11    1    4    4    0    0 -0.27865035901E+02 -0.18245326220E+02 -0.27396013808E+02  0.43126485220E+02  0.51100000000E-03 0. -1.
        -11    1    4    4    0    0  0.27347599700E+01  0.16056055004E+01 -0.86626159719E+00  0.32874443771E+01  0.51100000000E-03 0.  1.
         12    1    4    4    0    0  0.79493299383E+01  0.40441602765E-01  0.24337725849E+00  0.79531575165E+01  0.00000000000E+00 0. -1.
</event>
<event>
 8    1  0.2432279E-006  0.9118800E+02  0.7816164E-02  0.1184000E+00
        -11   -1    0    0    0    0  0.00000000000E+00  0.00000000000E+00  0.45593999997E+02  0.45594000000E+02  0.51100000000E-03 0.  1.
         11   -1    0    0    0    0 -0.00000000000E+00 -0.00000000000E+00 -0.45593999997E+02  0.45594000000E+02  0.51100000000E-03 0. -1.
         23    2    1    2    0    0 -0.44408920985E-15 -0.13322676296E-14  0.00000000000E+00  0.91188000000E+02  0.91188000000E+02 0.  0.
    9900012    2    3    3    0    0  0.28729605030E+01 -0.33159567857E+01  0.36558593328E+02  0.54367079078E+02  0.39999988374E+02 0.  0.
         12    1    3    3    0    0 -0.28729605030E+01  0.33159567857E+01 -0.36558593328E+02  0.36820920922E+02  0.00000000000E+00 0. -1.
         11    1    4    4    0    0 -0.10035070280E+02 -0.31645694320E+01  0.16653664252E+02  0.19699280913E+02  0.51100000000E-03 0. -1.
        -11    1    4    4    0    0  0.18918140502E+02  0.34585750114E+01  0.19875632439E+02  0.27656799277E+02  0.51100000000E-03 0.  1.
        -12    1    4    4    0    0 -0.60101097187E+01 -0.36099623651E+01  0.29296636674E-01  0.70109988876E+01  0.00000000000E+00 0.  1.
</event>
<event>
 8    1  0.2432279E-006  0.9118800E+02  0.7816164E-02  0.1184000E+00
        -11   -1    0    0    0    0  0.00000000000E+00  0.00000000000E+00  0.45593999997E+02  0.45594000000E+02  0.51100000000E-03 0. -1.
         11   -1    0    0    0    0 -0.00000000000E+00 -0.00000000000E+00 -0.45593999997E+02  0.45594000000E+02  0.51100000000E-03 0.  1.
         23    2    1    2    0    0  0.00000000000E+00  0.00000000000E+00 -0.35527136788E-14  0.91188000000E+02  0.91188000000E+02 0.  0.
    9900012    2    3    3    0    0  0.18359869650E+02 -0.10736029331E+02 -0.30057334894E+02  0.54366939175E+02  0.39999669435E+02 0.  0.
         12    1    3    3    0    0 -0.18359869650E+02  0.10736029331E+02  0.30057334894E+02  0.36821060825E+02  0.00000000000E+00 0. -1.
         11    1    4    4    0    0 -0.11130390780E+01 -0.12706096258E+02  0.33781101012E+01  0.13194520310E+02  0.51100000000E-03 0. -1.
        -11    1    4    4    0    0  0.88827089476E+01  0.74355175197E+01 -0.12213545643E+02  0.16833304383E+02  0.51100000000E-03 0.  1.
        -12    1    4    4    0    0  0.10590199780E+02 -0.54654505922E+01 -0.21221899353E+02  0.24339114481E+02  0.00000000000E+00 0.  1.
</event>
<event>
 8    1  0.2432279E-006  0.9118800E+02  0.7816164E-02  0.1184000E+00
        -11   -1    0    0    0    0  0.00000000000E+00  0.00000000000E+00  0.45593999997E+02  0.45594000000E+02  0.51100000000E-03 0. -1.
         11   -1    0    0    0    0 -0.00000000000E+00 -0.00000000000E+00 -0.45593999997E+02  0.45594000000E+02  0.51100000000E-03 0.  1.
         23    2    1    2    0    0 -0.35527136788E-14 -0.88817841970E-15  0.00000000000E+00  0.91188000000E+02  0.91188000000E+02 0.  0.
    9900012    2    3    3    0    0  0.18564833061E+02 -0.18853191680E+01  0.31742265733E+02  0.54367097121E+02  0.40000029507E+02 0.  0.
        -12    1    3    3    0    0 -0.18564833061E+02  0.18853191680E+01 -0.31742265733E+02  0.36820902879E+02  0.00000000000E+00 0.  1.
         11    1    4    4    0    0  0.10029725453E+02 -0.16022090384E+01  0.35920856477E+01  0.10773372082E+02  0.51100000000E-03 0. -1.
        -11    1    4    4    0    0  0.11112621460E+01  0.15304936048E+02  0.89178427072E+01  0.17748348932E+02  0.51100000000E-03 0.  1.
        -12    1    4    4    0    0  0.74238454625E+01 -0.15588046178E+02  0.19232337378E+02  0.25845376107E+02  0.00000000000E+00 0.  1.
</event>
<event>
 8    1  0.2432279E-006  0.9118800E+02  0.7816164E-02  0.1184000E+00
        -11   -1    0    0    0    0  0.00000000000E+00  0.00000000000E+00  0.45593999997E+02  0.45594000000E+02  0.51100000000E-03 0.  1.
         11   -1    0    0    0    0 -0.00000000000E+00 -0.00000000000E+00 -0.45593999997E+02  0.45594000000E+02  0.51100000000E-03 0. -1.
         23    2    1    2    0    0 -0.35527136788E-14  0.00000000000E+00  0.00000000000E+00  0.91188000000E+02  0.91188000000E+02 0.  0.
    9900012    2    3    3    0    0  0.29897173224E+02 -0.10652149166E+02 -0.18667353094E+02  0.54367091264E+02  0.40000016154E+02 0.  0.
        -12    1    3    3    0    0 -0.29897173224E+02  0.10652149166E+02  0.18667353094E+02  0.36820908736E+02  0.00000000000E+00 0.  1.
         11    1    4    4    0    0  0.10270386637E+02 -0.78817128944E+01 -0.16950450452E+02  0.21328853945E+02  0.51100000000E-03 0. -1.
        -11    1    4    4    0    0  0.10732206157E+02 -0.32485296884E+01 -0.13954956675E+02  0.17901787905E+02  0.51100000000E-03 0.  1.
        -12    1    4    4    0    0  0.88945804293E+01  0.47809341697E+00  0.12238054033E+02  0.15136449414E+02  0.00000000000E+00 0.  1.
</event>
<event>
 8    1  0.2432279E-006  0.9118800E+02  0.7816164E-02  0.1184000E+00
        -11   -1    0    0    0    0  0.00000000000E+00  0.00000000000E+00  0.45593999997E+02  0.45594000000E+02  0.51100000000E-03 0. -1.
         11   -1    0    0    0    0 -0.00000000000E+00 -0.00000000000E+00 -0.45593999997E+02  0.45594000000E+02  0.51100000000E-03 0.  1.
         23    2    1    2    0    0  0.00000000000E+00  0.17763568394E-14  0.71054273576E-14  0.91188000000E+02  0.91188000000E+02 0.  0.
    9900012    2    3    3    0    0  0.43956269421E+01 -0.86545767853E+01  0.35518418840E+02  0.54367064211E+02  0.39999954481E+02 0.  0.
        -12    1    3    3    0    0 -0.43956269421E+01  0.86545767853E+01 -0.35518418840E+02  0.36820935789E+02  0.00000000000E+00 0.  1.
         11    1    4    4    0    0 -0.53195915277E+01  0.39278991460E+01 -0.13734590858E+01  0.67537275518E+01  0.51100000000E-03 0. -1.
        -11    1    4    4    0    0  0.89367731568E+01  0.20375176092E+01  0.14676543648E+01  0.92828552752E+01  0.51100000000E-03 0.  1.
         12    1    4    4    0    0  0.77844531303E+00 -0.14619993540E+02  0.35424223561E+02  0.38330481384E+02  0.00000000000E+00 0. -1.
</event>
<event>
 8    1  0.2432279E-006  0.9118800E+02  0.7816164E-02  0.1184000E+00
        -11   -1    0    0    0    0  0.00000000000E+00  0.00000000000E+00  0.45593999997E+02  0.45594000000E+02  0.51100000000E-03 0. -1.
         11   -1    0    0    0    0 -0.00000000000E+00 -0.00000000000E+00 -0.45593999997E+02  0.45594000000E+02  0.51100000000E-03 0.  1.
         23    2    1    2    0    0  0.88817841970E-15  0.11102230246E-15  0.00000000000E+00  0.91188000000E+02  0.91188000000E+02 0.  0.
    9900012    2    3    3    0    0 -0.70792847877E+01  0.22794012171E+00 -0.36133256559E+02  0.54367075794E+02  0.39999980888E+02 0.  0.
         12    1    3    3    0    0  0.70792847877E+01 -0.22794012171E+00  0.36133256559E+02  0.36820924206E+02  0.00000000000E+00 0. -1.
         11    1    4    4    0    0  0.93854296264E+01 -0.10467198172E+01 -0.21059378910E+01  0.96755819623E+01  0.51100000000E-03 0. -1.
        -11    1    4    4    0    0 -0.20241187744E+02 -0.29607266168E+00 -0.14910236386E+02  0.25141767831E+02  0.51100000000E-03 0.  1.
         12    1    4    4    0    0  0.37764733300E+01  0.15707326006E+01 -0.19117082283E+02  0.19549726001E+02  0.00000000000E+00 0. -1.
</event>
<event>
 8    1  0.2432279E-006  0.9118800E+02  0.7816164E-02  0.1184000E+00
        -11   -1    0    0    0    0  0.00000000000E+00  0.00000000000E+00  0.45593999997E+02  0.45594000000E+02  0.51100000000E-03 0. -1.
         11   -1    0    0    0    0 -0.00000000000E+00 -0.00000000000E+00 -0.45593999997E+02  0.45594000000E+02  0.51100000000E-03 0.  1.
         23    2    1    2    0    0  0.00000000000E+00  0.00000000000E+00  0.00000000000E+00  0.91188000000E+02  0.91188000000E+02 0.  0.
    9900012    2    3    3    0    0 -0.17205438394E+02 -0.12560959333E+02 -0.30032916455E+02  0.54367070076E+02  0.39999967852E+02 0.  0.
         12    1    3    3    0    0  0.17205438394E+02  0.12560959333E+02  0.30032916455E+02  0.36820929924E+02  0.00000000000E+00 0. -1.
         11    1    4    4    0    0  0.84187655932E+01 -0.10026387488E+02 -0.14911705164E+02  0.19843462685E+02  0.51100000000E-03 0. -1.
        -11    1    4    4    0    0 -0.29447331257E+01 -0.72875680964E+01 -0.35983723937E+01  0.86445581776E+01  0.51100000000E-03 0.  1.
         12    1    4    4    0    0 -0.22679470861E+02  0.47529962522E+01 -0.11522838897E+02  0.25879049213E+02  0.00000000000E+00 0. -1.
</event>
<event>
 8    1  0.2432279E-006  0.9118800E+02  0.7816164E-02  0.1184000E+00
        -11   -1    0    0    0    0  0.00000000000E+00  0.00000000000E+00  0.45593999997E+02  0.45594000000E+02  0.51100000000E-03 0. -1.
         11   -1    0    0    0    0 -0.00000000000E+00 -0.00000000000E+00 -0.45593999997E+02  0.45594000000E+02  0.51100000000E-03 0.  1.
         23    2    1    2    0    0  0.00000000000E+00 -0.26645352591E-14  0.00000000000E+00  0.91188000000E+02  0.91188000000E+02 0.  0.
    9900012    2    3    3    0    0  0.17663463955E+02  0.79857232270E+01  0.31305126238E+02  0.54367073027E+02  0.39999974581E+02 0.  0.
        -12    1    3    3    0    0 -0.17663463955E+02 -0.79857232270E+01 -0.31305126238E+02  0.36820926973E+02  0.00000000000E+00 0.  1.
         11    1    4    4    0    0  0.13602329320E+02 -0.45406021998E+01  0.16227418362E+02  0.21655704519E+02  0.51100000000E-03 0. -1.
        -11    1    4    4    0    0 -0.49933077336E+01  0.17824389064E+02  0.10310548775E+02  0.21188425707E+02  0.51100000000E-03 0.  1.
        -12    1    4    4    0    0  0.90544423688E+01 -0.52980636373E+01  0.47671591010E+01  0.11522942802E+02  0.00000000000E+00 0.  1.
</event>
<event>
 8    1  0.2432279E-006  0.9118800E+02  0.7816164E-02  0.1184000E+00
        -11   -1    0    0    0    0  0.00000000000E+00  0.00000000000E+00  0.45593999997E+02  0.45594000000E+02  0.51100000000E-03 0. -1.
         11   -1    0    0    0    0 -0.00000000000E+00 -0.00000000000E+00 -0.45593999997E+02  0.45594000000E+02  0.51100000000E-03 0.  1.
         23    2    1    2    0    0 -0.17763568394E-14  0.00000000000E+00  0.00000000000E+00  0.91188000000E+02  0.91188000000E+02 0.  0.
    9900012    2    3    3    0    0  0.40043689667E+01 -0.90418487948E+01  0.35468166911E+02  0.54367070293E+02  0.39999968348E+02 0.  0.
         12    1    3    3    0    0 -0.40043689667E+01  0.90418487948E+01 -0.35468166911E+02  0.36820929707E+02  0.00000000000E+00 0. -1.
         11    1    4    4    0    0 -0.92354667883E+01 -0.64419229254E+01  0.42928967029E+01  0.12050775085E+02  0.51100000000E-03 0. -1.
        -11    1    4    4    0    0 -0.74620891374E+01 -0.25178312702E+01  0.76519853200E+01  0.10980670663E+02  0.51100000000E-03 0.  1.
         12    1    4    4    0    0  0.20701924892E+02 -0.82094599138E-01  0.23523284888E+02  0.31335624546E+02  0.00000000000E+00 0. -1.
</event>
<event>
 8    1  0.2432279E-006  0.9118800E+02  0.7816164E-02  0.1184000E+00
        -11   -1    0    0    0    0  0.00000000000E+00  0.00000000000E+00  0.45593999997E+02  0.45594000000E+02  0.51100000000E-03 0.  1.
         11   -1    0    0    0    0 -0.00000000000E+00 -0.00000000000E+00 -0.45593999997E+02  0.45594000000E+02  0.51100000000E-03 0. -1.
         23    2    1    2    0    0 -0.35527136788E-14 -0.71054273576E-14 -0.35527136788E-14  0.91188000000E+02  0.91188000000E+02 0.  0.
    9900012    2    3    3    0    0 -0.17740550130E+02 -0.19711938566E+02 -0.25543937409E+02  0.54367076882E+02  0.39999983368E+02 0.  0.
        -12    1    3    3    0    0  0.17740550130E+02  0.19711938566E+02  0.25543937409E+02  0.36820923118E+02  0.00000000000E+00 0.  1.
         11    1    4    4    0    0 -0.76219768350E+01 -0.11821552574E+02  0.14413303115E+01  0.14139344733E+02  0.51100000000E-03 0. -1.
        -11    1    4    4    0    0 -0.20582766457E+01  0.61389394600E+01  0.22160171517E+01  0.68435234142E+01  0.51100000000E-03 0.  1.
        -12    1    4    4    0    0 -0.80602966489E+01 -0.14029325451E+02 -0.29201284872E+02  0.33384208735E+02  0.00000000000E+00 0.  1.
</event>
<event>
 8    1  0.2432279E-006  0.9118800E+02  0.7816164E-02  0.1184000E+00
        -11   -1    0    0    0    0  0.00000000000E+00  0.00000000000E+00  0.45593999997E+02  0.45594000000E+02  0.51100000000E-03 0.  1.
         11   -1    0    0    0    0 -0.00000000000E+00 -0.00000000000E+00 -0.45593999997E+02  0.45594000000E+02  0.51100000000E-03 0. -1.
         23    2    1    2    0    0 -0.35527136788E-14  0.00000000000E+00  0.00000000000E+00  0.91188000000E+02  0.91188000000E+02 0.  0.
    9900012    2    3    3    0    0 -0.20421010558E+02 -0.18961822415E+02 -0.24066601280E+02  0.54367222188E+02  0.40000314620E+02 0.  0.
        -12    1    3    3    0    0  0.20421010558E+02  0.18961822415E+02  0.24066601280E+02  0.36820777812E+02  0.00000000000E+00 0.  1.
         11    1    4    4    0    0 -0.16849859765E+02 -0.14252154551E+02  0.39195829715E+00  0.22072501332E+02  0.51100000000E-03 0. -1.
        -11    1    4    4    0    0 -0.32978076693E+01 -0.10665647321E+02 -0.55478287739E+01  0.12466353619E+02  0.51100000000E-03 0.  1.
        -12    1    4    4    0    0 -0.27334312341E+00  0.59559794568E+01 -0.18910730804E+02  0.19828367237E+02  0.00000000000E+00 0.  1.
</event>
<event>
 8    1  0.2432279E-006  0.9118800E+02  0.7816164E-02  0.1184000E+00
        -11   -1    0    0    0    0  0.00000000000E+00  0.00000000000E+00  0.45593999997E+02  0.45594000000E+02  0.51100000000E-03 0. -1.
         11   -1    0    0    0    0 -0.00000000000E+00 -0.00000000000E+00 -0.45593999997E+02  0.45594000000E+02  0.51100000000E-03 0.  1.
         23    2    1    2    0    0  0.00000000000E+00  0.00000000000E+00  0.71054273576E-14  0.91188000000E+02  0.91188000000E+02 0.  0.
    9900012    2    3    3    0    0  0.90065263493E+01 -0.19781559360E+02 -0.29721253046E+02  0.54367075375E+02  0.39999979933E+02 0.  0.
         12    1    3    3    0    0 -0.90065263493E+01  0.19781559360E+02  0.29721253046E+02  0.36820924625E+02  0.00000000000E+00 0. -1.
         11    1    4    4    0    0 -0.20487810388E+01  0.13461586206E+01 -0.26591472395E+01  0.36167265696E+01  0.51100000000E-03 0. -1.
        -11    1    4    4    0    0  0.14528455157E+02 -0.29641648081E+01  0.33087351416E+01  0.15192432681E+02  0.51100000000E-03 0.  1.
        -12    1    4    4    0    0 -0.34731477688E+01 -0.18163553172E+02 -0.30370840948E+02  0.35557916125E+02  0.00000000000E+00 0.  1.
</event>
<event>
 8    1  0.2432279E-006  0.9118800E+02  0.7816164E-02  0.1184000E+00
        -11   -1    0    0    0    0  0.00000000000E+00  0.00000000000E+00  0.45593999997E+02  0.45594000000E+02  0.51100000000E-03 0.  1.
         11   -1    0    0    0    0 -0.00000000000E+00 -0.00000000000E+00 -0.45593999997E+02  0.45594000000E+02  0.51100000000E-03 0. -1.
         23    2    1    2    0    0  0.00000000000E+00 -0.17763568394E-14 -0.35527136788E-14  0.91188000000E+02  0.91188000000E+02 0.  0.
    9900012    2    3    3    0    0  0.29013701253E+02  0.12184483117E+02 -0.19118680409E+02  0.54367076195E+02  0.39999981802E+02 0.  0.
        -12    1    3    3    0    0 -0.29013701253E+02 -0.12184483117E+02  0.19118680409E+02  0.36820923805E+02  0.00000000000E+00 0.  1.
         11    1    4    4    0    0  0.16116570689E+02  0.18199106362E+01 -0.19921779024E+01  0.16340890384E+02  0.51100000000E-03 0. -1.
        -11    1    4    4    0    0 -0.33111581515E+01 -0.79956211132E+01 -0.83064778662E+01  0.11995469982E+02  0.51100000000E-03 0.  1.
         12    1    4    4    0    0  0.16208288716E+02  0.18360193594E+02 -0.88200246408E+01  0.26030715829E+02  0.00000000000E+00 0. -1.
</event>
<event>
 8    1  0.2432279E-006  0.9118800E+02  0.7816164E-02  0.1184000E+00
        -11   -1    0    0    0    0  0.00000000000E+00  0.00000000000E+00  0.45593999997E+02  0.45594000000E+02  0.51100000000E-03 0.  1.
         11   -1    0    0    0    0 -0.00000000000E+00 -0.00000000000E+00 -0.45593999997E+02  0.45594000000E+02  0.51100000000E-03 0. -1.
         23    2    1    2    0    0  0.88817841970E-15  0.00000000000E+00 -0.35527136788E-14  0.91188000000E+02  0.91188000000E+02 0.  0.
    9900012    2    3    3    0    0 -0.61960895002E+01  0.19932213896E+02 -0.30333078258E+02  0.54367077788E+02  0.39999985434E+02 0.  0.
        -12    1    3    3    0    0  0.61960895002E+01 -0.19932213896E+02  0.30333078258E+02  0.36820922212E+02  0.00000000000E+00 0.  1.
         11    1    4    4    0    0 -0.21968638016E+01  0.78646102766E+01 -0.74303507623E+01  0.11040308785E+02  0.51100000000E-03 0. -1.
        -11    1    4    4    0    0 -0.19017223278E+02  0.10360112743E+02 -0.13046876026E+02  0.25282557061E+02  0.51100000000E-03 0.  1.
        -12    1    4    4    0    0  0.15017997579E+02  0.17074908759E+01 -0.98558514706E+01  0.18044211942E+02  0.00000000000E+00 0.  1.
</event>
<event>
 8    1  0.2432279E-006  0.9118800E+02  0.7816164E-02  0.1184000E+00
        -11   -1    0    0    0    0  0.00000000000E+00  0.00000000000E+00  0.45593999997E+02  0.45594000000E+02  0.51100000000E-03 0.  1.
         11   -1    0    0    0    0 -0.00000000000E+00 -0.00000000000E+00 -0.45593999997E+02  0.45594000000E+02  0.51100000000E-03 0. -1.
         23    2    1    2    0    0  0.00000000000E+00  0.35527136788E-14 -0.35527136788E-14  0.91188000000E+02  0.91188000000E+02 0.  0.
    9900012    2    3    3    0    0 -0.36783098321E+01  0.30284483991E+02  0.20617961127E+02  0.54367078571E+02  0.39999987218E+02 0.  0.
         12    1    3    3    0    0  0.36783098321E+01 -0.30284483991E+02 -0.20617961127E+02  0.36820921429E+02  0.00000000000E+00 0. -1.
         11    1    4    4    0    0 -0.51920117079E+01  0.32141316319E+01 -0.97893997368E+01  0.11537763006E+02  0.51100000000E-03 0. -1.
        -11    1    4    4    0    0 -0.46640714539E+01  0.20343326273E+02  0.23102548853E+02  0.31134101082E+02  0.51100000000E-03 0.  1.
         12    1    4    4    0    0  0.61777733296E+01  0.67270260862E+01  0.73048120108E+01  0.11695214482E+02  0.00000000000E+00 0. -1.
</event>
<event>
 8    1  0.2432279E-006  0.9118800E+02  0.7816164E-02  0.1184000E+00
        -11   -1    0    0    0    0  0.00000000000E+00  0.00000000000E+00  0.45593999997E+02  0.45594000000E+02  0.51100000000E-03 0.  1.
         11   -1    0    0    0    0 -0.00000000000E+00 -0.00000000000E+00 -0.45593999997E+02  0.45594000000E+02  0.51100000000E-03 0. -1.
         23    2    1    2    0    0  0.00000000000E+00  0.00000000000E+00 -0.35527136788E-14  0.91188000000E+02  0.91188000000E+02 0.  0.
    9900012    2    3    3    0    0 -0.22976730387E+02 -0.65527803097E+01 -0.28016254985E+02  0.54367087295E+02  0.40000007106E+02 0.  0.
        -12    1    3    3    0    0  0.22976730387E+02  0.65527803097E+01  0.28016254985E+02  0.36820912705E+02  0.00000000000E+00 0.  1.
         11    1    4    4    0    0 -0.38818091715E+01 -0.15693467421E+02 -0.21315585243E+02  0.26752710828E+02  0.51100000000E-03 0. -1.
        -11    1    4    4    0    0 -0.51496858130E+01 -0.32916901470E+01 -0.65121421149E+01  0.89309844465E+01  0.51100000000E-03 0.  1.
        -12    1    4    4    0    0 -0.13945235402E+02  0.12432377259E+02 -0.18852762718E+00  0.18683392021E+02  0.00000000000E+00 0.  1.
</event>
<event>
 8    1  0.2432279E-006  0.9118800E+02  0.7816164E-02  0.1184000E+00
        -11   -1    0    0    0    0  0.00000000000E+00  0.00000000000E+00  0.45593999997E+02  0.45594000000E+02  0.51100000000E-03 0.  1.
         11   -1    0    0    0    0 -0.00000000000E+00 -0.00000000000E+00 -0.45593999997E+02  0.45594000000E+02  0.51100000000E-03 0. -1.
         23    2    1    2    0    0  0.17763568394E-14  0.00000000000E+00  0.17763568394E-14  0.91188000000E+02  0.91188000000E+02 0.  0.
    9900012    2    3    3    0    0 -0.10622788101E+02 -0.33612773319E+02 -0.10635694777E+02  0.54367079851E+02  0.39999990136E+02 0.  0.
        -12    1    3    3    0    0  0.10622788101E+02  0.33612773319E+02  0.10635694777E+02  0.36820920149E+02  0.00000000000E+00 0.  1.
         11    1    4    4    0    0  0.79885971370E+01  0.82430345622E+00 -0.50152622425E+01  0.94683692380E+01  0.51100000000E-03 0. -1.
        -11    1    4    4    0    0 -0.37011981259E+01  0.16868846072E+01 -0.41204018396E+01  0.57898323660E+01  0.51100000000E-03 0.  1.
         12    1    4    4    0    0 -0.14910187112E+02 -0.36123961382E+02 -0.15000306952E+01  0.39108878247E+02  0.00000000000E+00 0. -1.
</event>
<event>
 8    1  0.2432279E-006  0.9118800E+02  0.7816164E-02  0.1184000E+00
        -11   -1    0    0    0    0  0.00000000000E+00  0.00000000000E+00  0.45593999997E+02  0.45594000000E+02  0.51100000000E-03 0.  1.
         11   -1    0    0    0    0 -0.00000000000E+00 -0.00000000000E+00 -0.45593999997E+02  0.45594000000E+02  0.51100000000E-03 0. -1.
         23    2    1    2    0    0  0.00000000000E+00  0.00000000000E+00  0.00000000000E+00  0.91188000000E+02  0.91188000000E+02 0.  0.
    9900012    2    3    3    0    0 -0.85618171123E+01 -0.34785961523E+02 -0.85100920496E+01  0.54366953056E+02  0.39999701080E+02 0.  0.
         12    1    3    3    0    0  0.85618171123E+01  0.34785961523E+02  0.85100920496E+01  0.36821046944E+02  0.00000000000E+00 0. -1.
         11    1    4    4    0    0  0.47858344993E+01  0.40619830494E+01 -0.93560944036E+01  0.11266783964E+02  0.51100000000E-03 0. -1.
        -11    1    4    4    0    0 -0.29178748660E+01 -0.24714668588E+02 -0.31542142631E+01  0.25085412196E+02  0.51100000000E-03 0.  1.
         12    1    4    4    0    0 -0.10429776746E+02 -0.14133275985E+02  0.40002166171E+01  0.18014756896E+02  0.00000000000E+00 0. -1.
</event>
<event>
 8    1  0.2432279E-006  0.9118800E+02  0.7816164E-02  0.1184000E+00
        -11   -1    0    0    0    0  0.00000000000E+00  0.00000000000E+00  0.45593999997E+02  0.45594000000E+02  0.51100000000E-03 0.  1.
         11   -1    0    0    0    0 -0.00000000000E+00 -0.00000000000E+00 -0.45593999997E+02  0.45594000000E+02  0.51100000000E-03 0. -1.
         23    2    1    2    0    0  0.35527136788E-14  0.35527136788E-14  0.00000000000E+00  0.91188000000E+02  0.91188000000E+02 0.  0.
    9900012    2    3    3    0    0  0.21591256088E+02  0.19065165829E+02 -0.22937229500E+02  0.54367090387E+02  0.40000014156E+02 0.  0.
        -12    1    3    3    0    0 -0.21591256088E+02 -0.19065165829E+02  0.22937229500E+02  0.36820909613E+02  0.00000000000E+00 0.  1.
         11    1    4    4    0    0  0.13123140798E+02 -0.57142625043E+01 -0.12637061459E+02  0.19093583816E+02  0.51100000000E-03 0. -1.
        -11    1    4    4    0    0 -0.31499124419E+01 -0.23929241146E+01 -0.26039148428E+01  0.47358639106E+01  0.51100000000E-03 0.  1.
        -12    1    4    4    0    0  0.11618027733E+02  0.27172352448E+02 -0.76962531973E+01  0.30537642660E+02  0.00000000000E+00 0.  1.
</event>
<event>
 8    1  0.2432279E-006  0.9118800E+02  0.7816164E-02  0.1184000E+00
        -11   -1    0    0    0    0  0.00000000000E+00  0.00000000000E+00  0.45593999997E+02  0.45594000000E+02  0.51100000000E-03 0.  1.
         11   -1    0    0    0    0 -0.00000000000E+00 -0.00000000000E+00 -0.45593999997E+02  0.45594000000E+02  0.51100000000E-03 0. -1.
         23    2    1    2    0    0  0.00000000000E+00  0.00000000000E+00  0.00000000000E+00  0.91188000000E+02  0.91188000000E+02 0.  0.
    9900012    2    3    3    0    0 -0.13026157056E+02  0.30734373565E+02  0.15540202471E+02  0.54367076887E+02  0.39999983379E+02 0.  0.
         12    1    3    3    0    0  0.13026157056E+02 -0.30734373565E+02 -0.15540202471E+02  0.36820923113E+02  0.00000000000E+00 0. -1.
         11    1    4    4    0    0 -0.19753281614E+01 -0.80514992085E+01  0.31776885298E+01  0.88784157091E+01  0.51100000000E-03 0. -1.
        -11    1    4    4    0    0 -0.10534478473E+02  0.23970062724E+02 -0.44307783140E-02  0.26182802821E+02  0.51100000000E-03 0.  1.
         12    1    4    4    0    0 -0.51635042154E+00  0.14815810050E+02  0.12366944719E+02  0.19305858356E+02  0.00000000000E+00 0. -1.
</event>
<event>
 8    1  0.2432279E-006  0.9118800E+02  0.7816164E-02  0.1184000E+00
        -11   -1    0    0    0    0  0.00000000000E+00  0.00000000000E+00  0.45593999997E+02  0.45594000000E+02  0.51100000000E-03 0. -1.
         11   -1    0    0    0    0 -0.00000000000E+00 -0.00000000000E+00 -0.45593999997E+02  0.45594000000E+02  0.51100000000E-03 0.  1.
         23    2    1    2    0    0  0.00000000000E+00  0.00000000000E+00 -0.17763568394E-14  0.91188000000E+02  0.91188000000E+02 0.  0.
    9900012    2    3    3    0    0  0.24239188761E+02  0.24587217655E+02  0.12795005889E+02  0.54367058683E+02  0.39999941880E+02 0.  0.
         12    1    3    3    0    0 -0.24239188761E+02 -0.24587217655E+02 -0.12795005889E+02  0.36820941317E+02  0.00000000000E+00 0. -1.
         11    1    4    4    0    0 -0.99745874402E+00 -0.37105956672E+01 -0.12558102326E+00  0.38443744623E+01  0.51100000000E-03 0. -1.
        -11    1    4    4    0    0  0.31055930981E+00  0.25748067341E+01 -0.84323696751E+01  0.88221842761E+01  0.51100000000E-03 0.  1.
        -12    1    4    4    0    0  0.24926088195E+02  0.25723006588E+02  0.21352956587E+02  0.41700499945E+02  0.00000000000E+00 0.  1.
</event>
<event>
 8    1  0.2432279E-006  0.9118800E+02  0.7816164E-02  0.1184000E+00
        -11   -1    0    0    0    0  0.00000000000E+00  0.00000000000E+00  0.45593999997E+02  0.45594000000E+02  0.51100000000E-03 0.  1.
         11   -1    0    0    0    0 -0.00000000000E+00 -0.00000000000E+00 -0.45593999997E+02  0.45594000000E+02  0.51100000000E-03 0. -1.
         23    2    1    2    0    0 -0.88817841970E-15  0.00000000000E+00  0.88817841970E-15  0.91188000000E+02  0.91188000000E+02 0.  0.
    9900012    2    3    3    0    0  0.51863163702E+01 -0.35829699747E+02 -0.67167290684E+01  0.54367085959E+02  0.40000004061E+02 0.  0.
        -12    1    3    3    0    0 -0.51863163702E+01  0.35829699747E+02  0.67167290684E+01  0.36820914041E+02  0.00000000000E+00 0.  1.
         11    1    4    4    0    0  0.27109449093E+01 -0.19302805214E+02 -0.15416850995E+02  0.24852098630E+02  0.51100000000E-03 0. -1.
        -11    1    4    4    0    0 -0.17256568938E+01 -0.21568015611E+02  0.68980350285E+01  0.22709911418E+02  0.51100000000E-03 0.  1.
        -12    1    4    4    0    0  0.42010283547E+01  0.50411210785E+01  0.18020868984E+01  0.68050759110E+01  0.00000000000E+00 0.  1.
</event>
<event>
 8    1  0.2432279E-006  0.9118800E+02  0.7816164E-02  0.1184000E+00
        -11   -1    0    0    0    0  0.00000000000E+00  0.00000000000E+00  0.45593999997E+02  0.45594000000E+02  0.51100000000E-03 0. -1.
         11   -1    0    0    0    0 -0.00000000000E+00 -0.00000000000E+00 -0.45593999997E+02  0.45594000000E+02  0.51100000000E-03 0.  1.
         23    2    1    2    0    0  0.00000000000E+00  0.00000000000E+00 -0.71054273576E-14  0.91188000000E+02  0.91188000000E+02 0.  0.
    9900012    2    3    3    0    0 -0.21693232313E+02  0.95229058773E+01  0.28186833364E+02  0.54367086926E+02  0.40000006265E+02 0.  0.
        -12    1    3    3    0    0  0.21693232313E+02 -0.95229058773E+01 -0.28186833364E+02  0.36820913074E+02  0.00000000000E+00 0.  1.
         11    1    4    4    0    0 -0.20008108174E+02  0.11118141677E+02  0.35041951529E+02  0.41855415830E+02  0.51100000000E-03 0. -1.
        -11    1    4    4    0    0 -0.50751091956E+01  0.69319216608E+00 -0.77009780735E+00  0.51797972567E+01  0.51100000000E-03 0.  1.
         12    1    4    4    0    0  0.33899850564E+01 -0.22884279656E+01 -0.60850203580E+01  0.73318738392E+01  0.00000000000E+00 0. -1.
</event>
<event>
 8    1  0.2432279E-006  0.9118800E+02  0.7816164E-02  0.1184000E+00
        -11   -1    0    0    0    0  0.00000000000E+00  0.00000000000E+00  0.45593999997E+02  0.45594000000E+02  0.51100000000E-03 0.  1.
         11   -1    0    0    0    0 -0.00000000000E+00 -0.00000000000E+00 -0.45593999997E+02  0.45594000000E+02  0.51100000000E-03 0. -1.
         23    2    1    2    0    0  0.00000000000E+00  0.17763568394E-14  0.00000000000E+00  0.91188000000E+02  0.91188000000E+02 0.  0.
    9900012    2    3    3    0    0  0.12004068700E+02  0.82056680421E+01  0.33828219116E+02  0.54367094771E+02  0.40000024148E+02 0.  0.
         12    1    3    3    0    0 -0.12004068700E+02 -0.82056680421E+01 -0.33828219116E+02  0.36820905229E+02  0.00000000000E+00 0. -1.
         11    1    4    4    0    0  0.30360018948E+01 -0.48707237736E+01  0.34963469412E+01  0.67205431164E+01  0.51100000000E-03 0. -1.
        -11    1    4    4    0    0 -0.61622206703E+00  0.22394617341E+02  0.24078370805E+02  0.32888699524E+02  0.51100000000E-03 0.  1.
        -12    1    4    4    0    0  0.95842888720E+01 -0.93182255253E+01  0.62535013694E+01  0.14757852130E+02  0.00000000000E+00 0.  1.
</event>
<event>
 8    1  0.2432279E-006  0.9118800E+02  0.7816164E-02  0.1184000E+00
        -11   -1    0    0    0    0  0.00000000000E+00  0.00000000000E+00  0.45593999997E+02  0.45594000000E+02  0.51100000000E-03 0. -1.
         11   -1    0    0    0    0 -0.00000000000E+00 -0.00000000000E+00 -0.45593999997E+02  0.45594000000E+02  0.51100000000E-03 0.  1.
         23    2    1    2    0    0 -0.22204460493E-15  0.00000000000E+00 -0.71054273576E-14  0.91188000000E+02  0.91188000000E+02 0.  0.
    9900012    2    3    3    0    0  0.13948011811E+01 -0.12474431320E+02  0.34615353200E+02  0.54367087678E+02  0.40000007979E+02 0.  0.
        -12    1    3    3    0    0 -0.13948011811E+01  0.12474431320E+02 -0.34615353200E+02  0.36820912322E+02  0.00000000000E+00 0.  1.
         11    1    4    4    0    0 -0.68124327845E+00 -0.17420246667E+01 -0.75596523332E+00  0.20174801211E+01  0.51100000000E-03 0. -1.
        -11    1    4    4    0    0 -0.97359514977E+01  0.10456255563E+02  0.11882912208E+02  0.18582939347E+02  0.51100000000E-03 0.  1.
         12    1    4    4    0    0  0.11811995957E+02 -0.21188662216E+02  0.23488406225E+02  0.33766668210E+02  0.00000000000E+00 0. -1.
</event>
<event>
 8    1  0.2432279E-006  0.9118800E+02  0.7816164E-02  0.1184000E+00
        -11   -1    0    0    0    0  0.00000000000E+00  0.00000000000E+00  0.45593999997E+02  0.45594000000E+02  0.51100000000E-03 0. -1.
         11   -1    0    0    0    0 -0.00000000000E+00 -0.00000000000E+00 -0.45593999997E+02  0.45594000000E+02  0.51100000000E-03 0.  1.
         23    2    1    2    0    0  0.44408920985E-15  0.00000000000E+00  0.00000000000E+00  0.91188000000E+02  0.91188000000E+02 0.  0.
    9900012    2    3    3    0    0  0.29226064562E+01 -0.87485835327E+01  0.35646894618E+02  0.54367076081E+02  0.39999981542E+02 0.  0.
        -12    1    3    3    0    0 -0.29226064562E+01  0.87485835327E+01 -0.35646894618E+02  0.36820923919E+02  0.00000000000E+00 0.  1.
         11    1    4    4    0    0  0.89926167784E+00 -0.35370208110E+01 -0.98808482631E+00  0.37809389928E+01  0.51100000000E-03 0. -1.
        -11    1    4    4    0    0  0.59366013173E+01 -0.52165442743E+01 -0.46144959099E+01  0.91514557383E+01  0.51100000000E-03 0.  1.
         12    1    4    4    0    0 -0.39132565389E+01  0.49815526311E-02  0.41249475354E+02  0.41434681350E+02  0.00000000000E+00 0. -1.
</event>
<event>
 8    1  0.2432279E-006  0.9118800E+02  0.7816164E-02  0.1184000E+00
        -11   -1    0    0    0    0  0.00000000000E+00  0.00000000000E+00  0.45593999997E+02  0.45594000000E+02  0.51100000000E-03 0. -1.
         11   -1    0    0    0    0 -0.00000000000E+00 -0.00000000000E+00 -0.45593999997E+02  0.45594000000E+02  0.51100000000E-03 0.  1.
         23    2    1    2    0    0  0.00000000000E+00  0.00000000000E+00  0.00000000000E+00  0.91188000000E+02  0.91188000000E+02 0.  0.
    9900012    2    3    3    0    0 -0.13253830962E+02  0.25320803281E+02 -0.23215757907E+02  0.54367102005E+02  0.40000040641E+02 0.  0.
         12    1    3    3    0    0  0.13253830962E+02 -0.25320803281E+02  0.23215757907E+02  0.36820897995E+02  0.00000000000E+00 0. -1.
         11    1    4    4    0    0 -0.14198914534E+02 -0.30416086312E+01 -0.11335084575E+02  0.18421311017E+02  0.51100000000E-03 0. -1.
        -11    1    4    4    0    0 -0.65259162877E+01  0.16655585586E+02 -0.12848450797E+02  0.22024504597E+02  0.51100000000E-03 0.  1.
        -12    1    4    4    0    0  0.74709998600E+01  0.11706826326E+02  0.96777746512E+00  0.13921286390E+02  0.00000000000E+00 0.  1.
</event>
<event>
 8    1  0.2432279E-006  0.9118800E+02  0.7816164E-02  0.1184000E+00
        -11   -1    0    0    0    0  0.00000000000E+00  0.00000000000E+00  0.45593999997E+02  0.45594000000E+02  0.51100000000E-03 0.  1.
         11   -1    0    0    0    0 -0.00000000000E+00 -0.00000000000E+00 -0.45593999997E+02  0.45594000000E+02  0.51100000000E-03 0. -1.
         23    2    1    2    0    0  0.17763568394E-14  0.00000000000E+00 -0.66613381478E-15  0.91188000000E+02  0.91188000000E+02 0.  0.
    9900012    2    3    3    0    0 -0.11860586640E+02  0.34818098411E+02  0.16752443955E+01  0.54367082898E+02  0.39999997083E+02 0.  0.
        -12    1    3    3    0    0  0.11860586640E+02 -0.34818098411E+02 -0.16752443955E+01  0.36820917102E+02  0.00000000000E+00 0.  1.
         11    1    4    4    0    0 -0.58164439439E+01  0.22994092827E+02 -0.14636760641E+01  0.23763452463E+02  0.51100000000E-03 0. -1.
        -11    1    4    4    0    0 -0.55539378575E+01  0.19693171639E+02  0.72549593364E+01  0.21709483415E+02  0.51100000000E-03 0.  1.
         12    1    4    4    0    0 -0.49020483852E+00 -0.78691660543E+01 -0.41160388768E+01  0.88941470198E+01  0.00000000000E+00 0. -1.
</event>
<event>
 8    1  0.2432279E-006  0.9118800E+02  0.7816164E-02  0.1184000E+00
        -11   -1    0    0    0    0  0.00000000000E+00  0.00000000000E+00  0.45593999997E+02  0.45594000000E+02  0.51100000000E-03 0.  1.
         11   -1    0    0    0    0 -0.00000000000E+00 -0.00000000000E+00 -0.45593999997E+02  0.45594000000E+02  0.51100000000E-03 0. -1.
         23    2    1    2    0    0 -0.17763568394E-14  0.17763568394E-14  0.71054273576E-14  0.91188000000E+02  0.91188000000E+02 0.  0.
    9900012    2    3    3    0    0  0.59212883497E+01 -0.13118334980E+02 -0.33891408463E+02  0.54367082902E+02  0.39999997091E+02 0.  0.
        -12    1    3    3    0    0 -0.59212883497E+01  0.13118334980E+02  0.33891408463E+02  0.36820917098E+02  0.00000000000E+00 0.  1.
         11    1    4    4    0    0 -0.51418364258E+01 -0.21434446681E+01 -0.21305923433E+01  0.59642485587E+01  0.51100000000E-03 0. -1.
        -11    1    4    4    0    0  0.11375698217E+02 -0.16468314028E+02 -0.43986624933E+01  0.20492928264E+02  0.51100000000E-03 0.  1.
        -12    1    4    4    0    0 -0.31257344110E+00  0.54934237158E+01 -0.27362153626E+02  0.27909906079E+02  0.00000000000E+00 0.  1.
</event>
<event>
 8    1  0.2432279E-006  0.9118800E+02  0.7816164E-02  0.1184000E+00
        -11   -1    0    0    0    0  0.00000000000E+00  0.00000000000E+00  0.45593999997E+02  0.45594000000E+02  0.51100000000E-03 0. -1.
         11   -1    0    0    0    0 -0.00000000000E+00 -0.00000000000E+00 -0.45593999997E+02  0.45594000000E+02  0.51100000000E-03 0.  1.
         23    2    1    2    0    0  0.00000000000E+00 -0.17763568394E-14 -0.11102230246E-14  0.91188000000E+02  0.91188000000E+02 0.  0.
    9900012    2    3    3    0    0  0.35010501122E+02  0.11400655864E+02 -0.25777714528E+00  0.54367128310E+02  0.40000100609E+02 0.  0.
         12    1    3    3    0    0 -0.35010501122E+02 -0.11400655864E+02  0.25777714528E+00  0.36820871690E+02  0.00000000000E+00 0. -1.
         11    1    4    4    0    0  0.67156063747E+01 -0.41655027959E+01  0.86873926623E+01  0.11744001620E+02  0.51100000000E-03 0. -1.
        -11    1    4    4    0    0  0.25140270652E+02  0.19344938581E+02  0.77121767627E+00  0.31730972789E+02  0.51100000000E-03 0.  1.
        -12    1    4    4    0    0  0.31546240954E+01 -0.37787799217E+01 -0.97163874838E+01  0.10892153902E+02  0.00000000000E+00 0.  1.
</event>
<event>
 8    1  0.2432279E-006  0.9118800E+02  0.7816164E-02  0.1184000E+00
        -11   -1    0    0    0    0  0.00000000000E+00  0.00000000000E+00  0.45593999997E+02  0.45594000000E+02  0.51100000000E-03 0.  1.
         11   -1    0    0    0    0 -0.00000000000E+00 -0.00000000000E+00 -0.45593999997E+02  0.45594000000E+02  0.51100000000E-03 0. -1.
         23    2    1    2    0    0 -0.44408920985E-15 -0.71054273576E-14 -0.88817841970E-15  0.91188000000E+02  0.91188000000E+02 0.  0.
    9900012    2    3    3    0    0  0.34348549840E+01 -0.36183283163E+02 -0.58961029706E+01  0.54366915830E+02  0.39999616216E+02 0.  0.
         12    1    3    3    0    0 -0.34348549840E+01  0.36183283163E+02  0.58961029706E+01  0.36821084170E+02  0.00000000000E+00 0. -1.
         11    1    4    4    0    0  0.32283023317E+01  0.70005227956E+01 -0.35488912908E+01  0.84866886953E+01  0.51100000000E-03 0. -1.
        -11    1    4    4    0    0  0.17578513197E+01 -0.43750327172E+02 -0.34069155735E+01  0.43917971753E+02  0.51100000000E-03 0.  1.
        -12    1    4    4    0    0 -0.15512986673E+01  0.56652121328E+00  0.10597038937E+01  0.19622553816E+01  0.00000000000E+00 0.  1.
</event>
<event>
 8    1  0.2432279E-006  0.9118800E+02  0.7816164E-02  0.1184000E+00
        -11   -1    0    0    0    0  0.00000000000E+00  0.00000000000E+00  0.45593999997E+02  0.45594000000E+02  0.51100000000E-03 0.  1.
         11   -1    0    0    0    0 -0.00000000000E+00 -0.00000000000E+00 -0.45593999997E+02  0.45594000000E+02  0.51100000000E-03 0. -1.
         23    2    1    2    0    0 -0.17763568394E-14  0.00000000000E+00  0.00000000000E+00  0.91188000000E+02  0.91188000000E+02 0.  0.
    9900012    2    3    3    0    0  0.11356709569E+02  0.11014486328E+02 -0.33248840421E+02  0.54367093566E+02  0.40000021402E+02 0.  0.
        -12    1    3    3    0    0 -0.11356709569E+02 -0.11014486328E+02  0.33248840421E+02  0.36820906434E+02  0.00000000000E+00 0.  1.
         11    1    4    4    0    0 -0.39151841300E+01  0.16176615004E+02 -0.42054458879E+01  0.17166750279E+02  0.51100000000E-03 0. -1.
        -11    1    4    4    0    0  0.15156392366E+01 -0.88453478075E+01 -0.12160468278E+02  0.15113382452E+02  0.51100000000E-03 0.  1.
         12    1    4    4    0    0  0.13756254463E+02  0.36832191319E+01 -0.16882926254E+02  0.22086960835E+02  0.00000000000E+00 0. -1.
</event>
<event>
 8    1  0.2432279E-006  0.9118800E+02  0.7816164E-02  0.1184000E+00
        -11   -1    0    0    0    0  0.00000000000E+00  0.00000000000E+00  0.45593999997E+02  0.45594000000E+02  0.51100000000E-03 0. -1.
         11   -1    0    0    0    0 -0.00000000000E+00 -0.00000000000E+00 -0.45593999997E+02  0.45594000000E+02  0.51100000000E-03 0.  1.
         23    2    1    2    0    0  0.00000000000E+00  0.17763568394E-14 -0.35527136788E-14  0.91188000000E+02  0.91188000000E+02 0.  0.
    9900012    2    3    3    0    0  0.23088760855E+02 -0.12406254806E+02  0.25860653915E+02  0.54367089405E+02  0.40000011917E+02 0.  0.
        -12    1    3    3    0    0 -0.23088760855E+02  0.12406254806E+02 -0.25860653915E+02  0.36820910595E+02  0.00000000000E+00 0.  1.
         11    1    4    4    0    0  0.10616611207E+02 -0.14992770695E+02  0.10721459107E+02  0.21270761441E+02  0.51100000000E-03 0. -1.
        -11    1    4    4    0    0  0.15917852641E+01  0.62578569967E+01  0.19707149523E+02  0.20738039857E+02  0.51100000000E-03 0.  1.
         12    1    4    4    0    0  0.10880364384E+02 -0.36713411081E+01 -0.45679547155E+01  0.12358288108E+02  0.00000000000E+00 0. -1.
</event>
<event>
 8    1  0.2432279E-006  0.9118800E+02  0.7816164E-02  0.1184000E+00
        -11   -1    0    0    0    0  0.00000000000E+00  0.00000000000E+00  0.45593999997E+02  0.45594000000E+02  0.51100000000E-03 0. -1.
         11   -1    0    0    0    0 -0.00000000000E+00 -0.00000000000E+00 -0.45593999997E+02  0.45594000000E+02  0.51100000000E-03 0.  1.
         23    2    1    2    0    0  0.00000000000E+00  0.00000000000E+00  0.17763568394E-14  0.91188000000E+02  0.91188000000E+02 0.  0.
    9900012    2    3    3    0    0 -0.19415475636E+02  0.27093510190E+02 -0.15644868865E+02  0.54367069670E+02  0.39999966927E+02 0.  0.
         12    1    3    3    0    0  0.19415475636E+02 -0.27093510190E+02  0.15644868865E+02  0.36820930330E+02  0.00000000000E+00 0. -1.
         11    1    4    4    0    0  0.22630345459E+01 -0.87434059945E-01  0.72763653492E+01  0.76206602750E+01  0.51100000000E-03 0. -1.
        -11    1    4    4    0    0 -0.11054991452E+02  0.16665534350E+02 -0.75744388853E+00  0.20013160488E+02  0.51100000000E-03 0.  1.
         12    1    4    4    0    0 -0.10623518729E+02  0.10515409899E+02 -0.22163790326E+02  0.26733248907E+02  0.00000000000E+00 0. -1.
</event>
<event>
 8    1  0.2432279E-006  0.9118800E+02  0.7816164E-02  0.1184000E+00
        -11   -1    0    0    0    0  0.00000000000E+00  0.00000000000E+00  0.45593999997E+02  0.45594000000E+02  0.51100000000E-03 0. -1.
         11   -1    0    0    0    0 -0.00000000000E+00 -0.00000000000E+00 -0.45593999997E+02  0.45594000000E+02  0.51100000000E-03 0.  1.
         23    2    1    2    0    0  0.00000000000E+00  0.00000000000E+00  0.00000000000E+00  0.91188000000E+02  0.91188000000E+02 0.  0.
    9900012    2    3    3    0    0  0.14023636534E+02 -0.88852608902E+01 -0.32865928259E+02  0.54367089052E+02  0.40000011111E+02 0.  0.
         12    1    3    3    0    0 -0.14023636534E+02  0.88852608902E+01  0.32865928259E+02  0.36820910948E+02  0.00000000000E+00 0. -1.
         11    1    4    4    0    0  0.11067277133E+01 -0.11508892788E+00  0.25828775997E+01  0.28123564228E+01  0.51100000000E-03 0. -1.
        -11    1    4    4    0    0  0.64235540490E+00 -0.86023151476E+01 -0.38042294981E+02  0.39008058835E+02  0.51100000000E-03 0.  1.
        -12    1    4    4    0    0  0.12274553416E+02 -0.16785681476E+00  0.25934891223E+01  0.12546673794E+02  0.00000000000E+00 0.  1.
</event>
<event>
 8    1  0.2432279E-006  0.9118800E+02  0.7816164E-02  0.1184000E+00
        -11   -1    0    0    0    0  0.00000000000E+00  0.00000000000E+00  0.45593999997E+02  0.45594000000E+02  0.51100000000E-03 0. -1.
         11   -1    0    0    0    0 -0.00000000000E+00 -0.00000000000E+00 -0.45593999997E+02  0.45594000000E+02  0.51100000000E-03 0.  1.
         23    2    1    2    0    0  0.17763568394E-14  0.00000000000E+00  0.00000000000E+00  0.91188000000E+02  0.91188000000E+02 0.  0.
    9900012    2    3    3    0    0  0.14546646315E+02 -0.21979363168E+02  0.25711532700E+02  0.54367078799E+02  0.39999987738E+02 0.  0.
        -12    1    3    3    0    0 -0.14546646315E+02  0.21979363168E+02 -0.25711532700E+02  0.36820921201E+02  0.00000000000E+00 0.  1.
         11    1    4    4    0    0  0.11082267567E+02  0.23320055959E+01  0.20912169567E+02  0.23781794313E+02  0.51100000000E-03 0. -1.
        -11    1    4    4    0    0  0.50179941022E+01  0.40938856029E+00  0.27357589213E+01  0.57299424901E+01  0.51100000000E-03 0.  1.
         12    1    4    4    0    0 -0.15536153541E+01 -0.24720757324E+02  0.20636042123E+01  0.24855341995E+02  0.00000000000E+00 0. -1.
</event>
<event>
 8    1  0.2432279E-006  0.9118800E+02  0.7816164E-02  0.1184000E+00
        -11   -1    0    0    0    0  0.00000000000E+00  0.00000000000E+00  0.45593999997E+02  0.45594000000E+02  0.51100000000E-03 0. -1.
         11   -1    0    0    0    0 -0.00000000000E+00 -0.00000000000E+00 -0.45593999997E+02  0.45594000000E+02  0.51100000000E-03 0.  1.
         23    2    1    2    0    0  0.35527136788E-14 -0.71054273576E-14  0.00000000000E+00  0.91188000000E+02  0.91188000000E+02 0.  0.
    9900012    2    3    3    0    0 -0.24297132201E+02  0.26548819819E+02  0.77839845288E+01  0.54367070054E+02  0.39999967801E+02 0.  0.
        -12    1    3    3    0    0  0.24297132201E+02 -0.26548819819E+02 -0.77839845288E+01  0.36820929946E+02  0.00000000000E+00 0.  1.
         11    1    4    4    0    0  0.49633298226E+00 -0.16510387064E+01  0.45178208624E+01  0.48355951904E+01  0.51100000000E-03 0. -1.
        -11    1    4    4    0    0  0.78163177001E+01  0.51377784442E+01  0.20312909502E+01  0.95717152547E+01  0.51100000000E-03 0.  1.
         12    1    4    4    0    0 -0.32609782883E+02  0.23062080081E+02  0.12348727163E+01  0.39959759609E+02  0.00000000000E+00 0. -1.
</event>
<event>
 8    1  0.2432279E-006  0.9118800E+02  0.7816164E-02  0.1184000E+00
        -11   -1    0    0    0    0  0.00000000000E+00  0.00000000000E+00  0.45593999997E+02  0.45594000000E+02  0.51100000000E-03 0.  1.
         11   -1    0    0    0    0 -0.00000000000E+00 -0.00000000000E+00 -0.45593999997E+02  0.45594000000E+02  0.51100000000E-03 0. -1.
         23    2    1    2    0    0  0.00000000000E+00  0.00000000000E+00  0.00000000000E+00  0.91188000000E+02  0.91188000000E+02 0.  0.
    9900012    2    3    3    0    0 -0.10492384861E+02  0.85541515663E+01  0.34242011408E+02  0.54367095688E+02  0.40000026239E+02 0.  0.
         12    1    3    3    0    0  0.10492384861E+02 -0.85541515663E+01 -0.34242011408E+02  0.36820904312E+02  0.00000000000E+00 0. -1.
         11    1    4    4    0    0 -0.58322587044E+01 -0.65174601423E+01  0.13631987706E+02  0.16196407546E+02  0.51100000000E-03 0. -1.
        -11    1    4    4    0    0 -0.11440934545E+02  0.60554623983E+01  0.23226246631E+02  0.26589887946E+02  0.51100000000E-03 0.  1.
         12    1    4    4    0    0  0.67808083876E+01  0.90161493102E+01 -0.26162229296E+01  0.11580800197E+02  0.00000000000E+00 0. -1.
</event>
<event>
 8    1  0.2432279E-006  0.9118800E+02  0.7816164E-02  0.1184000E+00
        -11   -1    0    0    0    0  0.00000000000E+00  0.00000000000E+00  0.45593999997E+02  0.45594000000E+02  0.51100000000E-03 0.  1.
         11   -1    0    0    0    0 -0.00000000000E+00 -0.00000000000E+00 -0.45593999997E+02  0.45594000000E+02  0.51100000000E-03 0. -1.
         23    2    1    2    0    0 -0.88817841970E-15  0.35527136788E-14  0.00000000000E+00  0.91188000000E+02  0.91188000000E+02 0.  0.
    9900012    2    3    3    0    0  0.40416470721E+01 -0.29533216502E+02  0.21615601956E+02  0.54367081544E+02  0.39999993996E+02 0.  0.
         12    1    3    3    0    0 -0.40416470721E+01  0.29533216502E+02 -0.21615601956E+02  0.36820918456E+02  0.00000000000E+00 0. -1.
         11    1    4    4    0    0  0.20876230762E+01 -0.38996309557E+01 -0.75498108260E+01  0.87501391685E+01  0.51100000000E-03 0. -1.
        -11    1    4    4    0    0  0.68022895060E-01 -0.20535576418E+02  0.33067809683E+02  0.38925500169E+02  0.51100000000E-03 0.  1.
        -12    1    4    4    0    0  0.18860011008E+01 -0.50980091282E+01 -0.39023969011E+01  0.66914422061E+01  0.00000000000E+00 0.  1.
</event>
<event>
 8    1  0.2432279E-006  0.9118800E+02  0.7816164E-02  0.1184000E+00
        -11   -1    0    0    0    0  0.00000000000E+00  0.00000000000E+00  0.45593999997E+02  0.45594000000E+02  0.51100000000E-03 0.  1.
         11   -1    0    0    0    0 -0.00000000000E+00 -0.00000000000E+00 -0.45593999997E+02  0.45594000000E+02  0.51100000000E-03 0. -1.
         23    2    1    2    0    0  0.35527136788E-14  0.35527136788E-14  0.00000000000E+00  0.91188000000E+02  0.91188000000E+02 0.  0.
    9900012    2    3    3    0    0  0.21722323184E+02  0.23205253688E+02 -0.18585976696E+02  0.54367059586E+02  0.39999943938E+02 0.  0.
        -12    1    3    3    0    0 -0.21722323184E+02 -0.23205253688E+02  0.18585976696E+02  0.36820940414E+02  0.00000000000E+00 0.  1.
         11    1    4    4    0    0  0.22661115722E+01  0.66273284548E+01 -0.13221332178E+02  0.14961964074E+02  0.51100000000E-03 0. -1.
        -11    1    4    4    0    0  0.53489581673E+01  0.18523042630E+02  0.70342867401E+01  0.20523051721E+02  0.51100000000E-03 0.  1.
        -12    1    4    4    0    0  0.14107253444E+02 -0.19451173962E+01 -0.12398931258E+02  0.18882043792E+02  0.00000000000E+00 0.  1.
</event>
<event>
 8    1  0.2432279E-006  0.9118800E+02  0.7816164E-02  0.1184000E+00
        -11   -1    0    0    0    0  0.00000000000E+00  0.00000000000E+00  0.45593999997E+02  0.45594000000E+02  0.51100000000E-03 0. -1.
         11   -1    0    0    0    0 -0.00000000000E+00 -0.00000000000E+00 -0.45593999997E+02  0.45594000000E+02  0.51100000000E-03 0.  1.
         23    2    1    2    0    0  0.14432899320E-14  0.00000000000E+00  0.00000000000E+00  0.91188000000E+02  0.91188000000E+02 0.  0.
    9900012    2    3    3    0    0 -0.69094810679E+00  0.45082797091E+01  0.36537356906E+02  0.54367075990E+02  0.39999981335E+02 0.  0.
        -12    1    3    3    0    0  0.69094810679E+00 -0.45082797091E+01 -0.36537356906E+02  0.36820924010E+02  0.00000000000E+00 0.  1.
         11    1    4    4    0    0 -0.99559487231E+01  0.14745719704E+01  0.25029681457E+02  0.26977402239E+02  0.51100000000E-03 0. -1.
        -11    1    4    4    0    0 -0.29547539851E+01 -0.79020936138E+01  0.44308895467E+01  0.95292411571E+01  0.51100000000E-03 0.  1.
         12    1    4    4    0    0  0.12219754601E+02  0.10935801353E+02  0.70767859024E+01  0.17860432594E+02  0.00000000000E+00 0. -1.
</event>
<event>
 8    1  0.2432279E-006  0.9118800E+02  0.7816164E-02  0.1184000E+00
        -11   -1    0    0    0    0  0.00000000000E+00  0.00000000000E+00  0.45593999997E+02  0.45594000000E+02  0.51100000000E-03 0. -1.
         11   -1    0    0    0    0 -0.00000000000E+00 -0.00000000000E+00 -0.45593999997E+02  0.45594000000E+02  0.51100000000E-03 0.  1.
         23    2    1    2    0    0  0.00000000000E+00  0.17763568394E-14 -0.88817841970E-15  0.91188000000E+02  0.91188000000E+02 0.  0.
    9900012    2    3    3    0    0 -0.33927332028E+02 -0.13577930087E+02  0.45116468567E+01  0.54367095593E+02  0.40000026024E+02 0.  0.
        -12    1    3    3    0    0  0.33927332028E+02  0.13577930087E+02 -0.45116468567E+01  0.36820904407E+02  0.00000000000E+00 0.  1.
         11    1    4    4    0    0 -0.11319577360E+02 -0.11216188001E+02  0.10878851728E+02  0.19294691500E+02  0.51100000000E-03 0. -1.
        -11    1    4    4    0    0 -0.13230384938E+02 -0.14080187415E+02 -0.19048504138E+01  0.19414510517E+02  0.51100000000E-03 0.  1.
        -12    1    4    4    0    0 -0.93773697295E+01  0.11718445329E+02 -0.44623544573E+01  0.15657893577E+02  0.00000000000E+00 0.  1.
</event>
<event>
 8    1  0.2432279E-006  0.9118800E+02  0.7816164E-02  0.1184000E+00
        -11   -1    0    0    0    0  0.00000000000E+00  0.00000000000E+00  0.45593999997E+02  0.45594000000E+02  0.51100000000E-03 0.  1.
         11   -1    0    0    0    0 -0.00000000000E+00 -0.00000000000E+00 -0.45593999997E+02  0.45594000000E+02  0.51100000000E-03 0. -1.
         23    2    1    2    0    0  0.00000000000E+00  0.00000000000E+00 -0.17763568394E-14  0.91188000000E+02  0.91188000000E+02 0.  0.
    9900012    2    3    3    0    0 -0.15642959033E+02  0.30518931389E+02 -0.13404251984E+02  0.54367064220E+02  0.39999954503E+02 0.  0.
        -12    1    3    3    0    0  0.15642959033E+02 -0.30518931389E+02  0.13404251984E+02  0.36820935780E+02  0.00000000000E+00 0.  1.
         11    1    4    4    0    0 -0.65919916331E+01  0.17033613047E+02  0.66275472737E+00  0.18276694756E+02  0.51100000000E-03 0. -1.
        -11    1    4    4    0    0  0.28399712053E+01  0.19313513061E+02 -0.53663098412E+01  0.20245357611E+02  0.51100000000E-03 0.  1.
         12    1    4    4    0    0 -0.11890938606E+02 -0.58281947194E+01 -0.87006968706E+01  0.15845011854E+02  0.00000000000E+00 0. -1.
</event>
<event>
 8    1  0.2432279E-006  0.9118800E+02  0.7816164E-02  0.1184000E+00
        -11   -1    0    0    0    0  0.00000000000E+00  0.00000000000E+00  0.45593999997E+02  0.45594000000E+02  0.51100000000E-03 0. -1.
         11   -1    0    0    0    0 -0.00000000000E+00 -0.00000000000E+00 -0.45593999997E+02  0.45594000000E+02  0.51100000000E-03 0.  1.
         23    2    1    2    0    0  0.35527136788E-14  0.17763568394E-14  0.00000000000E+00  0.91188000000E+02  0.91188000000E+02 0.  0.
    9900012    2    3    3    0    0  0.16284060831E+02  0.13749618482E+02 -0.30025934781E+02  0.54367090112E+02  0.40000013528E+02 0.  0.
         12    1    3    3    0    0 -0.16284060831E+02 -0.13749618482E+02  0.30025934781E+02  0.36820909888E+02  0.00000000000E+00 0. -1.
         11    1    4    4    0    0  0.13751648783E+02  0.75330374928E+01 -0.98535765935E+00  0.15710678791E+02  0.51100000000E-03 0. -1.
        -11    1    4    4    0    0  0.63755345832E+01  0.41443025944E+01 -0.32315735862E+02  0.33198335346E+02  0.51100000000E-03 0.  1.
         12    1    4    4    0    0 -0.38431225352E+01  0.20722783947E+01  0.32751587401E+01  0.54580759741E+01  0.00000000000E+00 0. -1.
</event>
<event>
 8    1  0.2432279E-006  0.9118800E+02  0.7816164E-02  0.1184000E+00
        -11   -1    0    0    0    0  0.00000000000E+00  0.00000000000E+00  0.45593999997E+02  0.45594000000E+02  0.51100000000E-03 0. -1.
         11   -1    0    0    0    0 -0.00000000000E+00 -0.00000000000E+00 -0.45593999997E+02  0.45594000000E+02  0.51100000000E-03 0.  1.
         23    2    1    2    0    0 -0.88817841970E-15  0.00000000000E+00  0.00000000000E+00  0.91188000000E+02  0.91188000000E+02 0.  0.
    9900012    2    3    3    0    0 -0.54500022422E+01  0.24547230489E+02 -0.26898156148E+02  0.54367084024E+02  0.39999999649E+02 0.  0.
         12    1    3    3    0    0  0.54500022422E+01 -0.24547230489E+02  0.26898156148E+02  0.36820915976E+02  0.00000000000E+00 0. -1.
         11    1    4    4    0    0  0.40657279752E+01 -0.61055532818E+01 -0.17978725571E+02  0.19417582194E+02  0.51100000000E-03 0. -1.
        -11    1    4    4    0    0 -0.97572727826E+01  0.25534306859E+02 -0.36129464919E+01  0.27572786975E+02  0.51100000000E-03 0.  1.
         12    1    4    4    0    0  0.24154256519E+00  0.51184769119E+01 -0.53064840857E+01  0.73767148555E+01  0.00000000000E+00 0. -1.
</event>
<event>
 8    1  0.2432279E-006  0.9118800E+02  0.7816164E-02  0.1184000E+00
        -11   -1    0    0    0    0  0.00000000000E+00  0.00000000000E+00  0.45593999997E+02  0.45594000000E+02  0.51100000000E-03 0. -1.
         11   -1    0    0    0    0 -0.00000000000E+00 -0.00000000000E+00 -0.45593999997E+02  0.45594000000E+02  0.51100000000E-03 0.  1.
         23    2    1    2    0    0  0.17763568394E-14  0.00000000000E+00  0.71054273576E-14  0.91188000000E+02  0.91188000000E+02 0.  0.
    9900012    2    3    3    0    0 -0.15696723036E+02  0.71222779417E+00 -0.33299943935E+02  0.54367073225E+02  0.39999975030E+02 0.  0.
         12    1    3    3    0    0  0.15696723036E+02 -0.71222779417E+00  0.33299943935E+02  0.36820926775E+02  0.00000000000E+00 0. -1.
         11    1    4    4    0    0 -0.17872974297E+02 -0.10396599425E+02 -0.64703044386E+01  0.21665579375E+02  0.51100000000E-03 0. -1.
        -11    1    4    4    0    0  0.17380445913E+01 -0.28420278884E+01 -0.12435503183E+01  0.35558879587E+01  0.51100000000E-03 0.  1.
        -12    1    4    4    0    0  0.43820666988E+00  0.13950855108E+02 -0.25586089178E+02  0.29145605891E+02  0.00000000000E+00 0.  1.
</event>
<event>
 8    1  0.2432279E-006  0.9118800E+02  0.7816164E-02  0.1184000E+00
        -11   -1    0    0    0    0  0.00000000000E+00  0.00000000000E+00  0.45593999997E+02  0.45594000000E+02  0.51100000000E-03 0.  1.
         11   -1    0    0    0    0 -0.00000000000E+00 -0.00000000000E+00 -0.45593999997E+02  0.45594000000E+02  0.51100000000E-03 0. -1.
         23    2    1    2    0    0  0.00000000000E+00  0.00000000000E+00  0.00000000000E+00  0.91188000000E+02  0.91188000000E+02 0.  0.
    9900012    2    3    3    0    0 -0.23069257802E+02  0.21716226260E+02 -0.18761528281E+02  0.54367080919E+02  0.39999992571E+02 0.  0.
        -12    1    3    3    0    0  0.23069257802E+02 -0.21716226260E+02  0.18761528281E+02  0.36820919081E+02  0.00000000000E+00 0.  1.
         11    1    4    4    0    0 -0.20670737123E+02  0.11374732636E+01 -0.22764499848E+02  0.30770045047E+02  0.51100000000E-03 0. -1.
        -11    1    4    4    0    0 -0.13558602865E+01  0.18863112321E+02 -0.22882520304E+00  0.18913162739E+02  0.51100000000E-03 0.  1.
         12    1    4    4    0    0 -0.10426603926E+01  0.17156406758E+01  0.42317967700E+01  0.46838731329E+01  0.00000000000E+00 0. -1.
</event>
<event>
 8    1  0.2432279E-006  0.9118800E+02  0.7816164E-02  0.1184000E+00
        -11   -1    0    0    0    0  0.00000000000E+00  0.00000000000E+00  0.45593999997E+02  0.45594000000E+02  0.51100000000E-03 0. -1.
         11   -1    0    0    0    0 -0.00000000000E+00 -0.00000000000E+00 -0.45593999997E+02  0.45594000000E+02  0.51100000000E-03 0.  1.
         23    2    1    2    0    0  0.00000000000E+00  0.00000000000E+00  0.88817841970E-15  0.91188000000E+02  0.91188000000E+02 0.  0.
    9900012    2    3    3    0    0  0.73521006403E+01  0.35385146403E+02  0.70439934258E+01  0.54367084569E+02  0.40000000893E+02 0.  0.
        -12    1    3    3    0    0 -0.73521006403E+01 -0.35385146403E+02 -0.70439934258E+01  0.36820915431E+02  0.00000000000E+00 0.  1.
         11    1    4    4    0    0  0.96534041906E+01  0.18819126114E+02 -0.65511435735E+01  0.22141933126E+02  0.51100000000E-03 0. -1.
        -11    1    4    4    0    0 -0.10001160924E+02  0.69584485945E+00  0.11734357043E+00  0.10026025617E+02  0.51100000000E-03 0.  1.
         12    1    4    4    0    0  0.76998573740E+01  0.15870175429E+02  0.13477793429E+02  0.22199125826E+02  0.00000000000E+00 0. -1.
</event>
<event>
 8    1  0.2432279E-006  0.9118800E+02  0.7816164E-02  0.1184000E+00
        -11   -1    0    0    0    0  0.00000000000E+00  0.00000000000E+00  0.45593999997E+02  0.45594000000E+02  0.51100000000E-03 0. -1.
         11   -1    0    0    0    0 -0.00000000000E+00 -0.00000000000E+00 -0.45593999997E+02  0.45594000000E+02  0.51100000000E-03 0.  1.
         23    2    1    2    0    0  0.00000000000E+00 -0.17763568394E-14  0.00000000000E+00  0.91188000000E+02  0.91188000000E+02 0.  0.
    9900012    2    3    3    0    0  0.22776353829E+02 -0.15528371874E+02 -0.24410792953E+02  0.54367089645E+02  0.40000012463E+02 0.  0.
         12    1    3    3    0    0 -0.22776353829E+02  0.15528371874E+02  0.24410792953E+02  0.36820910355E+02  0.00000000000E+00 0. -1.
         11    1    4    4    0    0  0.45217404047E+01 -0.11935612503E+02  0.11058673193E+01  0.12811242129E+02  0.51100000000E-03 0. -1.
        -11    1    4    4    0    0  0.85221107555E+01 -0.44594405367E+01  0.40352072575E+01  0.10430526329E+02  0.51100000000E-03 0.  1.
         12    1    4    4    0    0  0.97325026693E+01  0.86668116568E+00 -0.29551867530E+02  0.31125321186E+02  0.00000000000E+00 0. -1.
</event>
<event>
 8    1  0.2432279E-006  0.9118800E+02  0.7816164E-02  0.1184000E+00
        -11   -1    0    0    0    0  0.00000000000E+00  0.00000000000E+00  0.45593999997E+02  0.45594000000E+02  0.51100000000E-03 0. -1.
         11   -1    0    0    0    0 -0.00000000000E+00 -0.00000000000E+00 -0.45593999997E+02  0.45594000000E+02  0.51100000000E-03 0.  1.
         23    2    1    2    0    0  0.35527136788E-14  0.00000000000E+00  0.00000000000E+00  0.91188000000E+02  0.91188000000E+02 0.  0.
    9900012    2    3    3    0    0  0.28388973241E+02 -0.78053461978E+01  0.22111599113E+02  0.54367081404E+02  0.39999993676E+02 0.  0.
        -12    1    3    3    0    0 -0.28388973241E+02  0.78053461978E+01 -0.22111599113E+02  0.36820918596E+02  0.00000000000E+00 0.  1.
         11    1    4    4    0    0  0.69239792233E+01  0.44742361791E+01  0.11125241996E+02  0.13846706735E+02  0.51100000000E-03 0. -1.
        -11    1    4    4    0    0  0.25463154819E+02 -0.46409725517E+01  0.16114215261E+02  0.30488994954E+02  0.51100000000E-03 0.  1.
         12    1    4    4    0    0 -0.39981608007E+01 -0.76386098252E+01 -0.51278581441E+01  0.10031379715E+02  0.00000000000E+00 0. -1.
</event>
<event>
 8    1  0.2432279E-006  0.9118800E+02  0.7816164E-02  0.1184000E+00
        -11   -1    0    0    0    0  0.00000000000E+00  0.00000000000E+00  0.45593999997E+02  0.45594000000E+02  0.51100000000E-03 0.  1.
         11   -1    0    0    0    0 -0.00000000000E+00 -0.00000000000E+00 -0.45593999997E+02  0.45594000000E+02  0.51100000000E-03 0. -1.
         23    2    1    2    0    0  0.17763568394E-14  0.00000000000E+00  0.00000000000E+00  0.91188000000E+02  0.91188000000E+02 0.  0.
    9900012    2    3    3    0    0  0.14196134952E+02  0.33605478868E+02 -0.49920959624E+01  0.54367089099E+02  0.40000011218E+02 0.  0.
         12    1    3    3    0    0 -0.14196134952E+02 -0.33605478868E+02  0.49920959624E+01  0.36820910901E+02  0.00000000000E+00 0. -1.
         11    1    4    4    0    0  0.12175942527E+02  0.43736814686E+00 -0.34737679659E+01  0.12669330347E+02  0.51100000000E-03 0. -1.
        -11    1    4    4    0    0  0.10888716381E+00  0.14347405057E+02 -0.13173366784E+02  0.19478128272E+02  0.51100000000E-03 0.  1.
        -12    1    4    4    0    0  0.19113052617E+01  0.18820705663E+02  0.11655038788E+02  0.22219630479E+02  0.00000000000E+00 0.  1.
</event>
<event>
 8    1  0.2432279E-006  0.9118800E+02  0.7816164E-02  0.1184000E+00
        -11   -1    0    0    0    0  0.00000000000E+00  0.00000000000E+00  0.45593999997E+02  0.45594000000E+02  0.51100000000E-03 0.  1.
         11   -1    0    0    0    0 -0.00000000000E+00 -0.00000000000E+00 -0.45593999997E+02  0.45594000000E+02  0.51100000000E-03 0. -1.
         23    2    1    2    0    0 -0.35527136788E-14  0.17763568394E-14  0.35527136788E-14  0.91188000000E+02  0.91188000000E+02 0.  0.
    9900012    2    3    3    0    0 -0.20381205522E+02 -0.15754389052E+02  0.26309414981E+02  0.54367087062E+02  0.40000006576E+02 0.  0.
         12    1    3    3    0    0  0.20381205522E+02  0.15754389052E+02 -0.26309414981E+02  0.36820912938E+02  0.00000000000E+00 0. -1.
         11    1    4    4    0    0  0.87292801347E+01  0.42305400269E+00 -0.15418429685E+01  0.88744907662E+01  0.51100000000E-03 0. -1.
        -11    1    4    4    0    0 -0.19485933966E+02 -0.38374947421E+01  0.19139537767E+02  0.27581694919E+02  0.51100000000E-03 0.  1.
         12    1    4    4    0    0 -0.96245516908E+01 -0.12339948312E+02  0.87117201823E+01  0.17910901377E+02  0.00000000000E+00 0. -1.
</event>
<event>
 8    1  0.2432279E-006  0.9118800E+02  0.7816164E-02  0.1184000E+00
        -11   -1    0    0    0    0  0.00000000000E+00  0.00000000000E+00  0.45593999997E+02  0.45594000000E+02  0.51100000000E-03 0. -1.
         11   -1    0    0    0    0 -0.00000000000E+00 -0.00000000000E+00 -0.45593999997E+02  0.45594000000E+02  0.51100000000E-03 0.  1.
         23    2    1    2    0    0  0.00000000000E+00  0.22204460493E-15 -0.71054273576E-14  0.91188000000E+02  0.91188000000E+02 0.  0.
    9900012    2    3    3    0    0  0.75941668598E+01 -0.10868398364E+01 -0.36012805953E+02  0.54367152865E+02  0.40000156586E+02 0.  0.
         12    1    3    3    0    0 -0.75941668598E+01  0.10868398364E+01  0.36012805953E+02  0.36820847135E+02  0.00000000000E+00 0. -1.
         11    1    4    4    0    0 -0.20465275958E+01 -0.16296272113E+01  0.54572624040E+01  0.60519148420E+01  0.51100000000E-03 0. -1.
        -11    1    4    4    0    0  0.98096899908E+01 -0.10072625398E+02 -0.25894758348E+02  0.29465680211E+02  0.51100000000E-03 0.  1.
         12    1    4    4    0    0 -0.16899553524E+00  0.10615412773E+02 -0.15575310009E+02  0.18849557812E+02  0.00000000000E+00 0. -1.
</event>
<event>
 8    1  0.2432279E-006  0.9118800E+02  0.7816164E-02  0.1184000E+00
        -11   -1    0    0    0    0  0.00000000000E+00  0.00000000000E+00  0.45593999997E+02  0.45594000000E+02  0.51100000000E-03 0.  1.
         11   -1    0    0    0    0 -0.00000000000E+00 -0.00000000000E+00 -0.45593999997E+02  0.45594000000E+02  0.51100000000E-03 0. -1.
         23    2    1    2    0    0  0.00000000000E+00  0.00000000000E+00  0.17763568394E-14  0.91188000000E+02  0.91188000000E+02 0.  0.
    9900012    2    3    3    0    0  0.87044560416E+01  0.34585819779E+02  0.91560795923E+01  0.54367078254E+02  0.39999986495E+02 0.  0.
         12    1    3    3    0    0 -0.87044560416E+01 -0.34585819779E+02 -0.91560795923E+01  0.36820921746E+02  0.00000000000E+00 0. -1.
         11    1    4    4    0    0 -0.25665826133E+01  0.12351648439E+02 -0.90434756985E+01  0.15522081640E+02  0.51100000000E-03 0. -1.
        -11    1    4    4    0    0 -0.15968477934E+01  0.19802062963E+02  0.55251833188E+01  0.20620360604E+02  0.51100000000E-03 0.  1.
         12    1    4    4    0    0  0.12867886448E+02  0.24321083769E+01  0.12674371972E+02  0.18224636010E+02  0.00000000000E+00 0. -1.
</event>
<event>
 8    1  0.2432279E-006  0.9118800E+02  0.7816164E-02  0.1184000E+00
        -11   -1    0    0    0    0  0.00000000000E+00  0.00000000000E+00  0.45593999997E+02  0.45594000000E+02  0.51100000000E-03 0. -1.
         11   -1    0    0    0    0 -0.00000000000E+00 -0.00000000000E+00 -0.45593999997E+02  0.45594000000E+02  0.51100000000E-03 0.  1.
         23    2    1    2    0    0  0.00000000000E+00  0.00000000000E+00  0.00000000000E+00  0.91188000000E+02  0.91188000000E+02 0.  0.
    9900012    2    3    3    0    0 -0.13410802911E+02 -0.16147565810E+02 -0.30252034050E+02  0.54367094519E+02  0.40000023575E+02 0.  0.
         12    1    3    3    0    0  0.13410802911E+02  0.16147565810E+02  0.30252034050E+02  0.36820905481E+02  0.00000000000E+00 0. -1.
         11    1    4    4    0    0  0.63409871465E+01 -0.18216398911E+02 -0.16325334468E+02  0.25269781420E+02  0.51100000000E-03 0. -1.
        -11    1    4    4    0    0 -0.89224657237E+00 -0.16781698961E+01  0.29526491949E+01  0.35114805532E+01  0.51100000000E-03 0.  1.
        -12    1    4    4    0    0 -0.18859543485E+02  0.37470029975E+01 -0.16879348777E+02  0.25585832546E+02  0.00000000000E+00 0.  1.
</event>
<event>
 8    1  0.2432279E-006  0.9118800E+02  0.7816164E-02  0.1184000E+00
        -11   -1    0    0    0    0  0.00000000000E+00  0.00000000000E+00  0.45593999997E+02  0.45594000000E+02  0.51100000000E-03 0.  1.
         11   -1    0    0    0    0 -0.00000000000E+00 -0.00000000000E+00 -0.45593999997E+02  0.45594000000E+02  0.51100000000E-03 0. -1.
         23    2    1    2    0    0 -0.88817841970E-15  0.17763568394E-14  0.00000000000E+00  0.91188000000E+02  0.91188000000E+02 0.  0.
    9900012    2    3    3    0    0 -0.33174276476E+01  0.14021432245E+02 -0.33884746907E+02  0.54367055399E+02  0.39999934392E+02 0.  0.
        -12    1    3    3    0    0  0.33174276476E+01 -0.14021432245E+02  0.33884746907E+02  0.36820944601E+02  0.00000000000E+00 0.  1.
         11    1    4    4    0    0 -0.81007340746E+01  0.14722571818E+02 -0.30533370100E+02  0.34852011468E+02  0.51100000000E-03 0. -1.
        -11    1    4    4    0    0 -0.65801324682E+01  0.30398569722E+01 -0.91247879354E+00  0.73055794787E+01  0.51100000000E-03 0.  1.
        -12    1    4    4    0    0  0.11363438895E+02 -0.37409965451E+01 -0.24388980133E+01  0.12209464452E+02  0.00000000000E+00 0.  1.
</event>
<event>
 8    1  0.2432279E-006  0.9118800E+02  0.7816164E-02  0.1184000E+00
        -11   -1    0    0    0    0  0.00000000000E+00  0.00000000000E+00  0.45593999997E+02  0.45594000000E+02  0.51100000000E-03 0. -1.
         11   -1    0    0    0    0 -0.00000000000E+00 -0.00000000000E+00 -0.45593999997E+02  0.45594000000E+02  0.51100000000E-03 0.  1.
         23    2    1    2    0    0  0.00000000000E+00  0.88817841970E-15  0.00000000000E+00  0.91188000000E+02  0.91188000000E+02 0.  0.
    9900012    2    3    3    0    0  0.18056396614E+02  0.57234902585E+01  0.31575119819E+02  0.54367082154E+02  0.39999995387E+02 0.  0.
        -12    1    3    3    0    0 -0.18056396614E+02 -0.57234902585E+01 -0.31575119819E+02  0.36820917846E+02  0.00000000000E+00 0.  1.
         11    1    4    4    0    0 -0.50998030952E+01  0.15211114194E+02  0.11223977395E+02  0.19579674550E+02  0.51100000000E-03 0. -1.
        -11    1    4    4    0    0  0.76150675113E+01  0.46607642571E+00  0.12686139357E+02  0.14803533783E+02  0.51100000000E-03 0.  1.
        -12    1    4    4    0    0  0.15541132198E+02 -0.99537003617E+01  0.76650030670E+01  0.19983873822E+02  0.00000000000E+00 0.  1.
</event>
<event>
 8    1  0.2432279E-006  0.9118800E+02  0.7816164E-02  0.1184000E+00
        -11   -1    0    0    0    0  0.00000000000E+00  0.00000000000E+00  0.45593999997E+02  0.45594000000E+02  0.51100000000E-03 0. -1.
         11   -1    0    0    0    0 -0.00000000000E+00 -0.00000000000E+00 -0.45593999997E+02  0.45594000000E+02  0.51100000000E-03 0.  1.
         23    2    1    2    0    0  0.00000000000E+00  0.00000000000E+00  0.00000000000E+00  0.91188000000E+02  0.91188000000E+02 0.  0.
    9900012    2    3    3    0    0  0.20215018587E+02  0.54053397532E+01 -0.30296954563E+02  0.54367216058E+02  0.40000300646E+02 0.  0.
         12    1    3    3    0    0 -0.20215018587E+02 -0.54053397532E+01  0.30296954563E+02  0.36820783942E+02  0.00000000000E+00 0. -1.
         11    1    4    4    0    0 -0.52993738576E+01  0.35302467248E+01 -0.23038622866E+02  0.23902387936E+02  0.51100000000E-03 0. -1.
        -11    1    4    4    0    0  0.46447323940E+00  0.19375858124E+00 -0.52546761322E+01  0.52787213692E+01  0.51100000000E-03 0.  1.
         12    1    4    4    0    0  0.25049919206E+02  0.16813344472E+01 -0.20036555640E+01  0.25186106753E+02  0.00000000000E+00 0. -1.
</event>
<event>
 8    1  0.2432279E-006  0.9118800E+02  0.7816164E-02  0.1184000E+00
        -11   -1    0    0    0    0  0.00000000000E+00  0.00000000000E+00  0.45593999997E+02  0.45594000000E+02  0.51100000000E-03 0. -1.
         11   -1    0    0    0    0 -0.00000000000E+00 -0.00000000000E+00 -0.45593999997E+02  0.45594000000E+02  0.51100000000E-03 0.  1.
         23    2    1    2    0    0 -0.35527136788E-14  0.00000000000E+00  0.00000000000E+00  0.91188000000E+02  0.91188000000E+02 0.  0.
    9900012    2    3    3    0    0  0.23784140192E+02  0.23368720824E+02  0.15620402317E+02  0.54367090096E+02  0.40000013492E+02 0.  0.
        -12    1    3    3    0    0 -0.23784140192E+02 -0.23368720824E+02 -0.15620402317E+02  0.36820909904E+02  0.00000000000E+00 0.  1.
         11    1    4    4    0    0  0.81392506529E+01  0.17921264803E+02  0.14346872298E+02  0.24356762476E+02  0.51100000000E-03 0. -1.
        -11    1    4    4    0    0 -0.23204079240E+01  0.60429282883E+01  0.84595317897E+01  0.10651992940E+02  0.51100000000E-03 0.  1.
         12    1    4    4    0    0  0.17965297463E+02 -0.59547226706E+00 -0.71860017707E+01  0.19358334680E+02  0.00000000000E+00 0. -1.
</event>
<event>
 8    1  0.2432279E-006  0.9118800E+02  0.7816164E-02  0.1184000E+00
        -11   -1    0    0    0    0  0.00000000000E+00  0.00000000000E+00  0.45593999997E+02  0.45594000000E+02  0.51100000000E-03 0.  1.
         11   -1    0    0    0    0 -0.00000000000E+00 -0.00000000000E+00 -0.45593999997E+02  0.45594000000E+02  0.51100000000E-03 0. -1.
         23    2    1    2    0    0  0.00000000000E+00  0.00000000000E+00  0.00000000000E+00  0.91188000000E+02  0.91188000000E+02 0.  0.
    9900012    2    3    3    0    0  0.18619136814E+02 -0.25395194359E+02 -0.19083818878E+02  0.54367078023E+02  0.39999985970E+02 0.  0.
        -12    1    3    3    0    0 -0.18619136814E+02  0.25395194359E+02  0.19083818878E+02  0.36820921977E+02  0.00000000000E+00 0.  1.
         11    1    4    4    0    0  0.11618853713E+02 -0.60933338161E+01 -0.14370671869E+01  0.13198168091E+02  0.51100000000E-03 0.  1.
        -11    1    4    4    0    0  0.17579859513E+02 -0.31315675089E+01 -0.90543407508E+01  0.20020970562E+02  0.51100000000E-03 0. -1.
        -12    1    4    4    0    0 -0.10579576412E+02 -0.16170293034E+02 -0.85924109405E+01  0.21147939370E+02  0.00000000000E+00 0.  1.
</event>
<event>
 8    1  0.2432279E-006  0.9118800E+02  0.7816164E-02  0.1184000E+00
        -11   -1    0    0    0    0  0.00000000000E+00  0.00000000000E+00  0.45593999997E+02  0.45594000000E+02  0.51100000000E-03 0.  1.
         11   -1    0    0    0    0 -0.00000000000E+00 -0.00000000000E+00 -0.45593999997E+02  0.45594000000E+02  0.51100000000E-03 0. -1.
         23    2    1    2    0    0 -0.35527136788E-14 -0.22204460493E-15  0.00000000000E+00  0.91188000000E+02  0.91188000000E+02 0.  0.
    9900012    2    3    3    0    0 -0.28692907719E+02  0.16988243579E+01  0.23013237921E+02  0.54367108143E+02  0.40000054632E+02 0.  0.
         12    1    3    3    0    0  0.28692907719E+02 -0.16988243579E+01 -0.23013237921E+02  0.36820891857E+02  0.00000000000E+00 0. -1.
         11    1    4    4    0    0  0.78007692591E+00  0.72980257551E+01  0.26818970253E+01  0.78142352056E+01  0.51100000000E-03 0. -1.
        -11    1    4    4    0    0 -0.31662046184E+02  0.14482723529E+01  0.22490421303E+02  0.38863886990E+02  0.51100000000E-03 0.  1.
        -12    1    4    4    0    0  0.21890615386E+01 -0.70474737501E+01 -0.21590804078E+01  0.76889859465E+01  0.00000000000E+00 0.  1.
</event>
<event>
 8    1  0.2432279E-006  0.9118800E+02  0.7816164E-02  0.1184000E+00
        -11   -1    0    0    0    0  0.00000000000E+00  0.00000000000E+00  0.45593999997E+02  0.45594000000E+02  0.51100000000E-03 0. -1.
         11   -1    0    0    0    0 -0.00000000000E+00 -0.00000000000E+00 -0.45593999997E+02  0.45594000000E+02  0.51100000000E-03 0.  1.
         23    2    1    2    0    0  0.00000000000E+00  0.35527136788E-14  0.00000000000E+00  0.91188000000E+02  0.91188000000E+02 0.  0.
    9900012    2    3    3    0    0 -0.10551110034E+02  0.19383268478E+02 -0.29474450468E+02  0.54367078634E+02  0.39999987363E+02 0.  0.
         12    1    3    3    0    0  0.10551110034E+02 -0.19383268478E+02  0.29474450468E+02  0.36820921366E+02  0.00000000000E+00 0. -1.
         11    1    4    4    0    0 -0.64381806079E+01  0.24968009066E+01 -0.29066245252E+02  0.29875253934E+02  0.51100000000E-03 0. -1.
        -11    1    4    4    0    0 -0.62019462896E+01 -0.11149768724E+01 -0.88551242913E+00  0.63632887510E+01  0.51100000000E-03 0.  1.
         12    1    4    4    0    0  0.20890168634E+01  0.18001444443E+02  0.47730721312E+00  0.18128535950E+02  0.00000000000E+00 0. -1.
</event>
<event>
 8    1  0.2432279E-006  0.9118800E+02  0.7816164E-02  0.1184000E+00
        -11   -1    0    0    0    0  0.00000000000E+00  0.00000000000E+00  0.45593999997E+02  0.45594000000E+02  0.51100000000E-03 0.  1.
         11   -1    0    0    0    0 -0.00000000000E+00 -0.00000000000E+00 -0.45593999997E+02  0.45594000000E+02  0.51100000000E-03 0. -1.
         23    2    1    2    0    0  0.88817841970E-15 -0.26645352591E-14  0.00000000000E+00  0.91188000000E+02  0.91188000000E+02 0.  0.
    9900012    2    3    3    0    0  0.78877273515E+01  0.36972914110E+01  0.35775541615E+02  0.54367141993E+02  0.40000131801E+02 0.  0.
         12    1    3    3    0    0 -0.78877273515E+01 -0.36972914110E+01 -0.35775541615E+02  0.36820858007E+02  0.00000000000E+00 0. -1.
         11    1    4    4    0    0 -0.23733871513E+01 -0.80001802535E+01  0.26687148671E+01  0.87611580263E+01  0.51100000000E-03 0. -1.
        -11    1    4    4    0    0  0.17319736692E+02  0.15575270139E+02  0.23885373437E+02  0.33362754435E+02  0.51100000000E-03 0.  1.
        -12    1    4    4    0    0 -0.70586221888E+01 -0.38777984743E+01  0.92214533105E+01  0.12243229532E+02  0.00000000000E+00 0.  1.
</event>
<event>
 8    1  0.2432279E-006  0.9118800E+02  0.7816164E-02  0.1184000E+00
        -11   -1    0    0    0    0  0.00000000000E+00  0.00000000000E+00  0.45593999997E+02  0.45594000000E+02  0.51100000000E-03 0. -1.
         11   -1    0    0    0    0 -0.00000000000E+00 -0.00000000000E+00 -0.45593999997E+02  0.45594000000E+02  0.51100000000E-03 0.  1.
         23    2    1    2    0    0  0.11102230246E-15  0.00000000000E+00  0.35527136788E-14  0.91188000000E+02  0.91188000000E+02 0.  0.
    9900012    2    3    3    0    0 -0.73511697249E+00  0.24746957144E+02 -0.27254877758E+02  0.54367073254E+02  0.39999975096E+02 0.  0.
         12    1    3    3    0    0  0.73511697249E+00 -0.24746957144E+02  0.27254877758E+02  0.36820926746E+02  0.00000000000E+00 0. -1.
         11    1    4    4    0    0  0.59923094489E+01 -0.48218145011E+01 -0.24401293081E+01  0.80691944403E+01  0.51100000000E-03 0. -1.
        -11    1    4    4    0    0 -0.10778898249E+02  0.32449430561E+01 -0.12898909645E+02  0.17120051787E+02  0.51100000000E-03 0.  1.
        -12    1    4    4    0    0  0.40514718274E+01  0.26323828589E+02 -0.11915838805E+02  0.29177827026E+02  0.00000000000E+00 0.  1.
</event>
<event>
 8    1  0.2432279E-006  0.9118800E+02  0.7816164E-02  0.1184000E+00
        -11   -1    0    0    0    0  0.00000000000E+00  0.00000000000E+00  0.45593999997E+02  0.45594000000E+02  0.51100000000E-03 0. -1.
         11   -1    0    0    0    0 -0.00000000000E+00 -0.00000000000E+00 -0.45593999997E+02  0.45594000000E+02  0.51100000000E-03 0.  1.
         23    2    1    2    0    0 -0.35527136788E-14 -0.17763568394E-14  0.00000000000E+00  0.91188000000E+02  0.91188000000E+02 0.  0.
    9900012    2    3    3    0    0  0.27190700692E+02  0.10292445457E+02 -0.22594317774E+02  0.54367192930E+02  0.40000247923E+02 0.  0.
         12    1    3    3    0    0 -0.27190700692E+02 -0.10292445457E+02  0.22594317774E+02  0.36820807070E+02  0.00000000000E+00 0. -1.
         11    1    4    4    0    0  0.82859440962E+01  0.84108592225E+01  0.43742243022E+00  0.11814853409E+02  0.51100000000E-03 0. -1.
        -11    1    4    4    0    0  0.28721956253E+01 -0.11562106244E+02 -0.17033667699E+02  0.20786477432E+02  0.51100000000E-03 0.  1.
        -12    1    4    4    0    0  0.16032560970E+02  0.13443692479E+02 -0.59980725050E+01  0.21765862089E+02  0.00000000000E+00 0.  1.
</event>
<event>
 8    1  0.2432279E-006  0.9118800E+02  0.7816164E-02  0.1184000E+00
        -11   -1    0    0    0    0  0.00000000000E+00  0.00000000000E+00  0.45593999997E+02  0.45594000000E+02  0.51100000000E-03 0.  1.
         11   -1    0    0    0    0 -0.00000000000E+00 -0.00000000000E+00 -0.45593999997E+02  0.45594000000E+02  0.51100000000E-03 0. -1.
         23    2    1    2    0    0  0.00000000000E+00 -0.17763568394E-14 -0.88817841970E-15  0.91188000000E+02  0.91188000000E+02 0.  0.
    9900012    2    3    3    0    0 -0.32833770880E+02  0.15172303679E+02  0.68938256265E+01  0.54367080119E+02  0.39999990747E+02 0.  0.
         12    1    3    3    0    0  0.32833770880E+02 -0.15172303679E+02 -0.68938256265E+01  0.36820919881E+02  0.00000000000E+00 0. -1.
         11    1    4    4    0    0  0.46163017648E+00  0.37260861753E+01 -0.20699775230E+01  0.42873800640E+01  0.51100000000E-03 0. -1.
        -11    1    4    4    0    0  0.33463190473E+01  0.12150650872E+02  0.29093319315E+01  0.12934464825E+02  0.51100000000E-03 0.  1.
         12    1    4    4    0    0 -0.36641720104E+02 -0.70443336791E+00  0.60544712180E+01  0.37145235230E+02  0.00000000000E+00 0. -1.
</event>
<event>
 8    1  0.2432279E-006  0.9118800E+02  0.7816164E-02  0.1184000E+00
        -11   -1    0    0    0    0  0.00000000000E+00  0.00000000000E+00  0.45593999997E+02  0.45594000000E+02  0.51100000000E-03 0.  1.
         11   -1    0    0    0    0 -0.00000000000E+00 -0.00000000000E+00 -0.45593999997E+02  0.45594000000E+02  0.51100000000E-03 0. -1.
         23    2    1    2    0    0  0.35527136788E-14  0.00000000000E+00 -0.35527136788E-14  0.91188000000E+02  0.91188000000E+02 0.  0.
    9900012    2    3    3    0    0  0.20760855565E+02 -0.19925847648E+02 -0.22972322554E+02  0.54367080242E+02  0.39999991029E+02 0.  0.
        -12    1    3    3    0    0 -0.20760855565E+02  0.19925847648E+02  0.22972322554E+02  0.36820919758E+02  0.00000000000E+00 0.  1.
         11    1    4    4    0    0  0.27772128876E+01 -0.43461516545E+01 -0.21818708010E+02  0.22420034905E+02  0.51100000000E-03 0. -1.
        -11    1    4    4    0    0  0.87317821701E+01 -0.18927998624E+02  0.33738610416E+01  0.21116251806E+02  0.51100000000E-03 0.  1.
        -12    1    4    4    0    0  0.92518605070E+01  0.33483026301E+01 -0.45274755849E+01  0.10830793531E+02  0.00000000000E+00 0.  1.
</event>
<event>
 8    1  0.2432279E-006  0.9118800E+02  0.7816164E-02  0.1184000E+00
        -11   -1    0    0    0    0  0.00000000000E+00  0.00000000000E+00  0.45593999997E+02  0.45594000000E+02  0.51100000000E-03 0.  1.
         11   -1    0    0    0    0 -0.00000000000E+00 -0.00000000000E+00 -0.45593999997E+02  0.45594000000E+02  0.51100000000E-03 0. -1.
         23    2    1    2    0    0  0.00000000000E+00 -0.71054273576E-14 -0.17763568394E-14  0.91188000000E+02  0.91188000000E+02 0.  0.
    9900012    2    3    3    0    0  0.34320362413E+01 -0.33827808622E+02 -0.14131032622E+02  0.54367006099E+02  0.39999822003E+02 0.  0.
        -12    1    3    3    0    0 -0.34320362413E+01  0.33827808622E+02  0.14131032622E+02  0.36820993901E+02  0.00000000000E+00 0.  1.
         11    1    4    4    0    0 -0.40648086771E+01 -0.91676990211E+01  0.54113832430E+01  0.11395281646E+02  0.51100000000E-03 0.  1.
        -11    1    4    4    0    0  0.80422253509E+01 -0.32007871563E+01  0.52922871623E+01  0.10145478337E+02  0.51100000000E-03 0. -1.
         12    1    4    4    0    0 -0.54538043250E+00 -0.21459322444E+02 -0.24834703028E+02  0.32826246116E+02  0.00000000000E+00 0. -1.
</event>
<event>
 8    1  0.2432279E-006  0.9118800E+02  0.7816164E-02  0.1184000E+00
        -11   -1    0    0    0    0  0.00000000000E+00  0.00000000000E+00  0.45593999997E+02  0.45594000000E+02  0.51100000000E-03 0. -1.
         11   -1    0    0    0    0 -0.00000000000E+00 -0.00000000000E+00 -0.45593999997E+02  0.45594000000E+02  0.51100000000E-03 0.  1.
         23    2    1    2    0    0  0.00000000000E+00  0.35527136788E-14 -0.35527136788E-14  0.91188000000E+02  0.91188000000E+02 0.  0.
    9900012    2    3    3    0    0 -0.11862953540E+02 -0.28908773916E+02  0.19476498232E+02  0.54367070362E+02  0.39999968504E+02 0.  0.
        -12    1    3    3    0    0  0.11862953540E+02  0.28908773916E+02 -0.19476498232E+02  0.36820929638E+02  0.00000000000E+00 0.  1.
         11    1    4    4    0    0 -0.19241447584E+02 -0.17870865991E+00  0.61157826954E+01  0.20190790974E+02  0.51100000000E-03 0. -1.
        -11    1    4    4    0    0 -0.20057416499E+01 -0.47486917316E+01 -0.20891395968E-01  0.51549499939E+01  0.51100000000E-03 0.  1.
         12    1    4    4    0    0  0.93842356944E+01 -0.23981373525E+02  0.13381606932E+02  0.29021329394E+02  0.00000000000E+00 0. -1.
</event>
<event>
 8    1  0.2432279E-006  0.9118800E+02  0.7816164E-02  0.1184000E+00
        -11   -1    0    0    0    0  0.00000000000E+00  0.00000000000E+00  0.45593999997E+02  0.45594000000E+02  0.51100000000E-03 0.  1.
         11   -1    0    0    0    0 -0.00000000000E+00 -0.00000000000E+00 -0.45593999997E+02  0.45594000000E+02  0.51100000000E-03 0. -1.
         23    2    1    2    0    0  0.71054273576E-14  0.00000000000E+00  0.00000000000E+00  0.91188000000E+02  0.91188000000E+02 0.  0.
    9900012    2    3    3    0    0 -0.27655416116E+02 -0.17456664143E+02 -0.16918104335E+02  0.54367089937E+02  0.40000013130E+02 0.  0.
        -12    1    3    3    0    0  0.27655416116E+02  0.17456664143E+02  0.16918104335E+02  0.36820910063E+02  0.00000000000E+00 0.  1.
         11    1    4    4    0    0 -0.24467307248E+02 -0.11052843419E+02 -0.19073504408E+02  0.32933463867E+02  0.51100000000E-03 0. -1.
        -11    1    4    4    0    0 -0.47408548568E+01 -0.93569154162E+01  0.89986268729E+01  0.13820378314E+02  0.51100000000E-03 0.  1.
        -12    1    4    4    0    0  0.15527459884E+01  0.29530946923E+01 -0.68432268004E+01  0.76132477569E+01  0.00000000000E+00 0.  1.
</event>
<event>
 8    1  0.2432279E-006  0.9118800E+02  0.7816164E-02  0.1184000E+00
        -11   -1    0    0    0    0  0.00000000000E+00  0.00000000000E+00  0.45593999997E+02  0.45594000000E+02  0.51100000000E-03 0. -1.
         11   -1    0    0    0    0 -0.00000000000E+00 -0.00000000000E+00 -0.45593999997E+02  0.45594000000E+02  0.51100000000E-03 0.  1.
         23    2    1    2    0    0  0.94368957093E-15  0.00000000000E+00  0.00000000000E+00  0.91188000000E+02  0.91188000000E+02 0.  0.
    9900012    2    3    3    0    0 -0.29792517071E+00  0.10527572938E+02  0.35282599997E+02  0.54367076412E+02  0.39999982296E+02 0.  0.
        -12    1    3    3    0    0  0.29792517071E+00 -0.10527572938E+02 -0.35282599997E+02  0.36820923588E+02  0.00000000000E+00 0.  1.
         11    1    4    4    0    0 -0.26593446521E+01  0.15115935234E+00  0.20844244925E+02  0.21013745736E+02  0.51100000000E-03 0. -1.
        -11    1    4    4    0    0 -0.11979389822E+02  0.98721825797E+01  0.56116102866E+01  0.16506239416E+02  0.51100000000E-03 0.  1.
         12    1    4    4    0    0  0.14340809304E+02  0.50423100603E+00  0.88267447854E+01  0.16847091259E+02  0.00000000000E+00 0. -1.
</event>
<event>
 8    1  0.2432279E-006  0.9118800E+02  0.7816164E-02  0.1184000E+00
        -11   -1    0    0    0    0  0.00000000000E+00  0.00000000000E+00  0.45593999997E+02  0.45594000000E+02  0.51100000000E-03 0. -1.
         11   -1    0    0    0    0 -0.00000000000E+00 -0.00000000000E+00 -0.45593999997E+02  0.45594000000E+02  0.51100000000E-03 0.  1.
         23    2    1    2    0    0 -0.71054273576E-14 -0.17763568394E-14 -0.17763568394E-14  0.91188000000E+02  0.91188000000E+02 0.  0.
    9900012    2    3    3    0    0  0.31711788472E+02  0.12175617651E+02 -0.14208501015E+02  0.54367289872E+02  0.40000468919E+02 0.  0.
         12    1    3    3    0    0 -0.31711788472E+02 -0.12175617651E+02  0.14208501015E+02  0.36820710128E+02  0.00000000000E+00 0. -1.
         11    1    4    4    0    0  0.19996550847E+02  0.14951228749E+02  0.33313978314E+01  0.25189273484E+02  0.51100000000E-03 0. -1.
        -11    1    4    4    0    0 -0.62643297699E+00 -0.32128640518E+01 -0.16459047628E+02  0.16781393350E+02  0.51100000000E-03 0.  1.
        -12    1    4    4    0    0  0.12341670602E+02  0.43725295390E+00 -0.10808512177E+01  0.12396623038E+02  0.00000000000E+00 0.  1.
</event>
<event>
 8    1  0.2432279E-006  0.9118800E+02  0.7816164E-02  0.1184000E+00
        -11   -1    0    0    0    0  0.00000000000E+00  0.00000000000E+00  0.45593999997E+02  0.45594000000E+02  0.51100000000E-03 0.  1.
         11   -1    0    0    0    0 -0.00000000000E+00 -0.00000000000E+00 -0.45593999997E+02  0.45594000000E+02  0.51100000000E-03 0. -1.
         23    2    1    2    0    0  0.00000000000E+00  0.00000000000E+00  0.00000000000E+00  0.91188000000E+02  0.91188000000E+02 0.  0.
    9900012    2    3    3    0    0 -0.33574304524E+02  0.52709588123E+01  0.14169055036E+02  0.54367094910E+02  0.40000024466E+02 0.  0.
         12    1    3    3    0    0  0.33574304524E+02 -0.52709588123E+01 -0.14169055036E+02  0.36820905090E+02  0.00000000000E+00 0. -1.
         11    1    4    4    0    0 -0.10760128883E+02 -0.29731025719E+01 -0.27782667665E+01  0.11503846268E+02  0.51100000000E-03 0. -1.
        -11    1    4    4    0    0 -0.15681806837E+02 -0.95571523632E+01  0.18517524297E+01  0.18457714222E+02  0.51100000000E-03 0.  1.
        -12    1    4    4    0    0 -0.71323688035E+01  0.17801213747E+02  0.15095569372E+02  0.24405534420E+02  0.00000000000E+00 0.  1.
</event>
<event>
 8    1  0.2432279E-006  0.9118800E+02  0.7816164E-02  0.1184000E+00
        -11   -1    0    0    0    0  0.00000000000E+00  0.00000000000E+00  0.45593999997E+02  0.45594000000E+02  0.51100000000E-03 0. -1.
         11   -1    0    0    0    0 -0.00000000000E+00 -0.00000000000E+00 -0.45593999997E+02  0.45594000000E+02  0.51100000000E-03 0.  1.
         23    2    1    2    0    0  0.00000000000E+00  0.00000000000E+00  0.00000000000E+00  0.91188000000E+02  0.91188000000E+02 0.  0.
    9900012    2    3    3    0    0  0.44532559760E+01 -0.35805046248E+02  0.73448300260E+01  0.54367090808E+02  0.40000015115E+02 0.  0.
        -12    1    3    3    0    0 -0.44532559760E+01  0.35805046248E+02 -0.73448300260E+01  0.36820909192E+02  0.00000000000E+00 0.  1.
         11    1    4    4    0    0  0.20404028562E+02 -0.12446016709E+02  0.30793231890E+01  0.24097924082E+02  0.51100000000E-03 0. -1.
        -11    1    4    4    0    0 -0.57043179624E+00 -0.21864801018E+01 -0.23670399302E+01  0.32724556471E+01  0.51100000000E-03 0.  1.
         12    1    4    4    0    0 -0.15380340790E+02 -0.21172549437E+02  0.66325467672E+01  0.26996711079E+02  0.00000000000E+00 0. -1.
</event>
<event>
 8    1  0.2432279E-006  0.9118800E+02  0.7816164E-02  0.1184000E+00
        -11   -1    0    0    0    0  0.00000000000E+00  0.00000000000E+00  0.45593999997E+02  0.45594000000E+02  0.51100000000E-03 0.  1.
         11   -1    0    0    0    0 -0.00000000000E+00 -0.00000000000E+00 -0.45593999997E+02  0.45594000000E+02  0.51100000000E-03 0. -1.
         23    2    1    2    0    0  0.35527136788E-14 -0.17763568394E-14  0.00000000000E+00  0.91188000000E+02  0.91188000000E+02 0.  0.
    9900012    2    3    3    0    0  0.14110219408E+02 -0.11139221634E+02 -0.32134226546E+02  0.54366958922E+02  0.39999714453E+02 0.  0.
        -12    1    3    3    0    0 -0.14110219408E+02  0.11139221634E+02  0.32134226546E+02  0.36821041078E+02  0.00000000000E+00 0.  1.
         11    1    4    4    0    0  0.91271743759E+01 -0.57294360885E+01 -0.17105372939E+02  0.20216961533E+02  0.51100000000E-03 0. -1.
        -11    1    4    4    0    0 -0.96174606276E+01 -0.53248428781E+01 -0.16116551575E+02  0.19508786112E+02  0.51100000000E-03 0.  1.
        -12    1    4    4    0    0  0.14600505660E+02 -0.84942667491E-01  0.10876979689E+01  0.14641211277E+02  0.00000000000E+00 0.  1.
</event>
<event>
 8    1  0.2432279E-006  0.9118800E+02  0.7816164E-02  0.1184000E+00
        -11   -1    0    0    0    0  0.00000000000E+00  0.00000000000E+00  0.45593999997E+02  0.45594000000E+02  0.51100000000E-03 0.  1.
         11   -1    0    0    0    0 -0.00000000000E+00 -0.00000000000E+00 -0.45593999997E+02  0.45594000000E+02  0.51100000000E-03 0. -1.
         23    2    1    2    0    0  0.00000000000E+00 -0.13322676296E-14  0.00000000000E+00  0.91188000000E+02  0.91188000000E+02 0.  0.
    9900012    2    3    3    0    0 -0.13248748885E+02  0.11479501939E+01 -0.34335655213E+02  0.54367022887E+02  0.39999860274E+02 0.  0.
        -12    1    3    3    0    0  0.13248748885E+02 -0.11479501939E+01  0.34335655213E+02  0.36820977113E+02  0.00000000000E+00 0.  1.
         11    1    4    4    0    0 -0.70169652488E+01  0.14472467941E+02 -0.16322410010E+02  0.22915304894E+02  0.51100000000E-03 0. -1.
        -11    1    4    4    0    0  0.63915698561E+01 -0.10274177812E+02 -0.12331668493E+02  0.17276601026E+02  0.51100000000E-03 0.  1.
         12    1    4    4    0    0 -0.12623353492E+02 -0.30503399349E+01 -0.56815767109E+01  0.14175116967E+02  0.00000000000E+00 0. -1.
</event>
<event>
 8    1  0.2432279E-006  0.9118800E+02  0.7816164E-02  0.1184000E+00
        -11   -1    0    0    0    0  0.00000000000E+00  0.00000000000E+00  0.45593999997E+02  0.45594000000E+02  0.51100000000E-03 0. -1.
         11   -1    0    0    0    0 -0.00000000000E+00 -0.00000000000E+00 -0.45593999997E+02  0.45594000000E+02  0.51100000000E-03 0.  1.
         23    2    1    2    0    0  0.00000000000E+00 -0.35527136788E-14  0.00000000000E+00  0.91188000000E+02  0.91188000000E+02 0.  0.
    9900012    2    3    3    0    0 -0.13937460840E+02 -0.23752283878E+02  0.24440873431E+02  0.54367080699E+02  0.39999992069E+02 0.  0.
        -12    1    3    3    0    0  0.13937460840E+02  0.23752283878E+02 -0.24440873431E+02  0.36820919301E+02  0.00000000000E+00 0.  1.
         11    1    4    4    0    0 -0.10127106391E+02 -0.14586614270E+02  0.30526855795E+02  0.35315952836E+02  0.51100000000E-03 0. -1.
        -11    1    4    4    0    0  0.84102821813E+00  0.11173316951E+00 -0.83797066034E+01  0.84225468704E+01  0.51100000000E-03 0.  1.
        -12    1    4    4    0    0 -0.46513826676E+01 -0.92774027777E+01  0.22937242394E+01  0.10628580992E+02  0.00000000000E+00 0.  1.
</event>
<event>
 8    1  0.2432279E-006  0.9118800E+02  0.7816164E-02  0.1184000E+00
        -11   -1    0    0    0    0  0.00000000000E+00  0.00000000000E+00  0.45593999997E+02  0.45594000000E+02  0.51100000000E-03 0. -1.
         11   -1    0    0    0    0 -0.00000000000E+00 -0.00000000000E+00 -0.45593999997E+02  0.45594000000E+02  0.51100000000E-03 0.  1.
         23    2    1    2    0    0  0.00000000000E+00 -0.13322676296E-14 -0.35527136788E-14  0.91188000000E+02  0.91188000000E+02 0.  0.
    9900012    2    3    3    0    0  0.19012183640E+02  0.36038941940E+01  0.31326145966E+02  0.54367101026E+02  0.40000038410E+02 0.  0.
        -12    1    3    3    0    0 -0.19012183640E+02 -0.36038941940E+01 -0.31326145966E+02  0.36820898974E+02  0.00000000000E+00 0.  1.
         11    1    4    4    0    0 -0.29502664591E+01 -0.43510994329E+01  0.70781007745E+01  0.88167822526E+01  0.51100000000E-03 0. -1.
        -11    1    4    4    0    0  0.17664638617E+02 -0.91088164441E+01  0.74567600055E+01  0.21227653297E+02  0.51100000000E-03 0.  1.
         12    1    4    4    0    0  0.42978114826E+01  0.17063810071E+02  0.16791285186E+02  0.24322665477E+02  0.00000000000E+00 0. -1.
</event>
<event>
 8    1  0.2432279E-006  0.9118800E+02  0.7816164E-02  0.1184000E+00
        -11   -1    0    0    0    0  0.00000000000E+00  0.00000000000E+00  0.45593999997E+02  0.45594000000E+02  0.51100000000E-03 0.  1.
         11   -1    0    0    0    0 -0.00000000000E+00 -0.00000000000E+00 -0.45593999997E+02  0.45594000000E+02  0.51100000000E-03 0. -1.
         23    2    1    2    0    0  0.35527136788E-14 -0.17763568394E-14  0.00000000000E+00  0.91188000000E+02  0.91188000000E+02 0.  0.
    9900012    2    3    3    0    0  0.26022030604E+02  0.11897206867E+02 -0.23175188248E+02  0.54367096177E+02  0.40000027355E+02 0.  0.
        -12    1    3    3    0    0 -0.26022030604E+02 -0.11897206867E+02  0.23175188248E+02  0.36820903823E+02  0.00000000000E+00 0.  1.
         11    1    4    4    0    0  0.16758548362E+02  0.80296904728E+01 -0.27667671547E+02  0.33329040211E+02  0.51100000000E-03 0. -1.
        -11    1    4    4    0    0  0.76585379894E+01 -0.35160577895E+01  0.89274933505E+01  0.12276644668E+02  0.51100000000E-03 0.  1.
        -12    1    4    4    0    0  0.16049442522E+01  0.73835741838E+01 -0.44350100517E+01  0.87614112984E+01  0.00000000000E+00 0.  1.
</event>
<event>
 8    1  0.2432279E-006  0.9118800E+02  0.7816164E-02  0.1184000E+00
        -11   -1    0    0    0    0  0.00000000000E+00  0.00000000000E+00  0.45593999997E+02  0.45594000000E+02  0.51100000000E-03 0.  1.
         11   -1    0    0    0    0 -0.00000000000E+00 -0.00000000000E+00 -0.45593999997E+02  0.45594000000E+02  0.51100000000E-03 0. -1.
         23    2    1    2    0    0  0.00000000000E+00  0.35527136788E-14  0.00000000000E+00  0.91188000000E+02  0.91188000000E+02 0.  0.
    9900012    2    3    3    0    0 -0.31691792284E+02 -0.16819802081E+02  0.82767653987E+01  0.54367078153E+02  0.39999986265E+02 0.  0.
         12    1    3    3    0    0  0.31691792284E+02  0.16819802081E+02 -0.82767653987E+01  0.36820921847E+02  0.00000000000E+00 0. -1.
         11    1    4    4    0    0 -0.22581881680E+02 -0.27568745261E+02  0.42624147439E+00  0.35639286995E+02  0.51100000000E-03 0. -1.
        -11    1    4    4    0    0 -0.11055777531E+02  0.92984686475E+01  0.58620698551E+01  0.15590240513E+02  0.51100000000E-03 0.  1.
         12    1    4    4    0    0  0.19458669263E+01  0.14504745328E+01  0.19884540692E+01  0.31375506451E+01  0.00000000000E+00 0. -1.
</event>
<event>
 8    1  0.2432279E-006  0.9118800E+02  0.7816164E-02  0.1184000E+00
        -11   -1    0    0    0    0  0.00000000000E+00  0.00000000000E+00  0.45593999997E+02  0.45594000000E+02  0.51100000000E-03 0.  1.
         11   -1    0    0    0    0 -0.00000000000E+00 -0.00000000000E+00 -0.45593999997E+02  0.45594000000E+02  0.51100000000E-03 0. -1.
         23    2    1    2    0    0  0.00000000000E+00  0.00000000000E+00 -0.35527136788E-14  0.91188000000E+02  0.91188000000E+02 0.  0.
    9900012    2    3    3    0    0  0.35442867323E+02 -0.33946731084E+01  0.93838183390E+01  0.54367126895E+02  0.40000097382E+02 0.  0.
         12    1    3    3    0    0 -0.35442867323E+02  0.33946731084E+01 -0.93838183390E+01  0.36820873105E+02  0.00000000000E+00 0. -1.
         11    1    4    4    0    0  0.99497770144E+01 -0.76634707279E+01 -0.13852566443E+02  0.18698140109E+02  0.51100000000E-03 0. -1.
        -11    1    4    4    0    0  0.23727373477E+02  0.52279498405E+01  0.18544706302E+02  0.30565108273E+02  0.51100000000E-03 0.  1.
         12    1    4    4    0    0  0.17657168318E+01 -0.95915222103E+00  0.46916784793E+01  0.51038785121E+01  0.00000000000E+00 0. -1.
</event>
<event>
 8    1  0.2432279E-006  0.9118800E+02  0.7816164E-02  0.1184000E+00
        -11   -1    0    0    0    0  0.00000000000E+00  0.00000000000E+00  0.45593999997E+02  0.45594000000E+02  0.51100000000E-03 0.  1.
         11   -1    0    0    0    0 -0.00000000000E+00 -0.00000000000E+00 -0.45593999997E+02  0.45594000000E+02  0.51100000000E-03 0. -1.
         23    2    1    2    0    0  0.00000000000E+00  0.00000000000E+00  0.35527136788E-14  0.91188000000E+02  0.91188000000E+02 0.  0.
    9900012    2    3    3    0    0 -0.30276115978E+01 -0.20721660036E+02  0.30285755962E+02  0.54367073330E+02  0.39999975270E+02 0.  0.
         12    1    3    3    0    0  0.30276115978E+01  0.20721660036E+02 -0.30285755962E+02  0.36820926670E+02  0.00000000000E+00 0. -1.
         11    1    4    4    0    0 -0.31371444238E+01 -0.12320119634E+02  0.12725462489E+02  0.17987896451E+02  0.51100000000E-03 0.  1.
        -11    1    4    4    0    0  0.32360733768E+01 -0.13321611334E+01 -0.85023495612E+01  0.91943880986E+01  0.51100000000E-03 0. -1.
         12    1    4    4    0    0 -0.31265405508E+01 -0.70693792689E+01  0.26062643035E+02  0.27184788780E+02  0.00000000000E+00 0. -1.
</event>
<event>
 8    1  0.2432279E-006  0.9118800E+02  0.7816164E-02  0.1184000E+00
        -11   -1    0    0    0    0  0.00000000000E+00  0.00000000000E+00  0.45593999997E+02  0.45594000000E+02  0.51100000000E-03 0.  1.
         11   -1    0    0    0    0 -0.00000000000E+00 -0.00000000000E+00 -0.45593999997E+02  0.45594000000E+02  0.51100000000E-03 0. -1.
         23    2    1    2    0    0  0.00000000000E+00 -0.35527136788E-14  0.00000000000E+00  0.91188000000E+02  0.91188000000E+02 0.  0.
    9900012    2    3    3    0    0 -0.22555048369E+02 -0.28233294954E+02 -0.70661532471E+01  0.54367086478E+02  0.40000005245E+02 0.  0.
        -12    1    3    3    0    0  0.22555048369E+02  0.28233294954E+02  0.70661532471E+01  0.36820913522E+02  0.00000000000E+00 0.  1.
         11    1    4    4    0    0 -0.25440647267E+02 -0.90590440430E+01 -0.46627865111E+01  0.27405006671E+02  0.51100000000E-03 0. -1.
        -11    1    4    4    0    0  0.69362854864E+01 -0.18132480266E+02 -0.71014796760E+01  0.20671959529E+02  0.51100000000E-03 0.  1.
        -12    1    4    4    0    0 -0.40506865880E+01 -0.10417706452E+01  0.46981129401E+01  0.62901202778E+01  0.00000000000E+00 0.  1.
</event>
<event>
 8    1  0.2432279E-006  0.9118800E+02  0.7816164E-02  0.1184000E+00
        -11   -1    0    0    0    0  0.00000000000E+00  0.00000000000E+00  0.45593999997E+02  0.45594000000E+02  0.51100000000E-03 0. -1.
         11   -1    0    0    0    0 -0.00000000000E+00 -0.00000000000E+00 -0.45593999997E+02  0.45594000000E+02  0.51100000000E-03 0.  1.
         23    2    1    2    0    0  0.00000000000E+00  0.00000000000E+00 -0.71054273576E-14  0.91188000000E+02  0.91188000000E+02 0.  0.
    9900012    2    3    3    0    0  0.21922109305E+02 -0.10852734851E+02  0.27521252941E+02  0.54367080761E+02  0.39999992211E+02 0.  0.
        -12    1    3    3    0    0 -0.21922109305E+02  0.10852734851E+02 -0.27521252941E+02  0.36820919239E+02  0.00000000000E+00 0.  1.
         11    1    4    4    0    0  0.17738475341E+02 -0.17021821659E+02  0.18588654205E+02  0.30820999099E+02  0.51100000000E-03 0. -1.
        -11    1    4    4    0    0  0.11748637453E+02  0.53351370650E+01  0.93328928456E+01  0.15924731038E+02  0.51100000000E-03 0.  1.
        -12    1    4    4    0    0 -0.75650034892E+01  0.83394974354E+00 -0.40029410918E+00  0.76213506244E+01  0.00000000000E+00 0.  1.
</event>
<event>
 8    1  0.2432279E-006  0.9118800E+02  0.7816164E-02  0.1184000E+00
        -11   -1    0    0    0    0  0.00000000000E+00  0.00000000000E+00  0.45593999997E+02  0.45594000000E+02  0.51100000000E-03 0.  1.
         11   -1    0    0    0    0 -0.00000000000E+00 -0.00000000000E+00 -0.45593999997E+02  0.45594000000E+02  0.51100000000E-03 0. -1.
         23    2    1    2    0    0  0.17763568394E-14 -0.17763568394E-14  0.00000000000E+00  0.91188000000E+02  0.91188000000E+02 0.  0.
    9900012    2    3    3    0    0 -0.93576045706E+01 -0.12936731899E+02  0.33179173265E+02  0.54367063917E+02  0.39999953811E+02 0.  0.
         12    1    3    3    0    0  0.93576045706E+01  0.12936731899E+02 -0.33179173265E+02  0.36820936083E+02  0.00000000000E+00 0. -1.
         11    1    4    4    0    0  0.35707336926E+01  0.36986964387E+01  0.94978714118E+01  0.10800002596E+02  0.51100000000E-03 0. -1.
        -11    1    4    4    0    0  0.26857805997E+01  0.70329422100E+01  0.17722178008E+01  0.77341094997E+01  0.51100000000E-03 0.  1.
        -12    1    4    4    0    0 -0.15614118863E+02 -0.23668370547E+02  0.21909084052E+02  0.35832951821E+02  0.00000000000E+00 0.  1.
</event>
<event>
 8    1  0.2432279E-006  0.9118800E+02  0.7816164E-02  0.1184000E+00
        -11   -1    0    0    0    0  0.00000000000E+00  0.00000000000E+00  0.45593999997E+02  0.45594000000E+02  0.51100000000E-03 0. -1.
         11   -1    0    0    0    0 -0.00000000000E+00 -0.00000000000E+00 -0.45593999997E+02  0.45594000000E+02  0.51100000000E-03 0.  1.
         23    2    1    2    0    0  0.35527136788E-14  0.17763568394E-14  0.00000000000E+00  0.91188000000E+02  0.91188000000E+02 0.  0.
    9900012    2    3    3    0    0  0.31264906274E+02  0.14250352482E+02  0.13236826457E+02  0.54367075448E+02  0.39999980099E+02 0.  0.
        -12    1    3    3    0    0 -0.31264906274E+02 -0.14250352482E+02 -0.13236826457E+02  0.36820924552E+02  0.00000000000E+00 0.  1.
         11    1    4    4    0    0 -0.38902850585E+01 -0.53875366079E+01 -0.31684909229E+01  0.73620108345E+01  0.51100000000E-03 0. -1.
        -11    1    4    4    0    0  0.25703242115E+01 -0.19273787865E+01 -0.20294783473E+01  0.38000181792E+01  0.51100000000E-03 0.  1.
        -12    1    4    4    0    0  0.32584867121E+02  0.21565267877E+02  0.18434795727E+02  0.43205046434E+02  0.00000000000E+00 0.  1.
</event>
<event>
 8    1  0.2432279E-006  0.9118800E+02  0.7816164E-02  0.1184000E+00
        -11   -1    0    0    0    0  0.00000000000E+00  0.00000000000E+00  0.45593999997E+02  0.45594000000E+02  0.51100000000E-03 0.  1.
         11   -1    0    0    0    0 -0.00000000000E+00 -0.00000000000E+00 -0.45593999997E+02  0.45594000000E+02  0.51100000000E-03 0. -1.
         23    2    1    2    0    0  0.00000000000E+00  0.00000000000E+00  0.71054273576E-14  0.91188000000E+02  0.91188000000E+02 0.  0.
    9900012    2    3    3    0    0  0.20394333029E+02  0.22978895261E+02 -0.20293351012E+02  0.54367101825E+02  0.40000040230E+02 0.  0.
        -12    1    3    3    0    0 -0.20394333029E+02 -0.22978895261E+02  0.20293351012E+02  0.36820898175E+02  0.00000000000E+00 0.  1.
         11    1    4    4    0    0  0.11033244400E+02  0.23286305323E+02  0.53234595118E+01  0.26312045132E+02  0.51100000000E-03 0. -1.
        -11    1    4    4    0    0  0.55332541582E+01  0.43236997557E+00 -0.22160365048E+02  0.22844816145E+02  0.51100000000E-03 0.  1.
         12    1    4    4    0    0  0.38278344712E+01 -0.73978003744E+00 -0.34564454763E+01  0.52102405485E+01  0.00000000000E+00 0. -1.
</event>
<event>
 8    1  0.2432279E-006  0.9118800E+02  0.7816164E-02  0.1184000E+00
        -11   -1    0    0    0    0  0.00000000000E+00  0.00000000000E+00  0.45593999997E+02  0.45594000000E+02  0.51100000000E-03 0.  1.
         11   -1    0    0    0    0 -0.00000000000E+00 -0.00000000000E+00 -0.45593999997E+02  0.45594000000E+02  0.51100000000E-03 0. -1.
         23    2    1    2    0    0 -0.35527136788E-14 -0.44408920985E-15  0.35527136788E-14  0.91188000000E+02  0.91188000000E+02 0.  0.
    9900012    2    3    3    0    0  0.31937091103E+02 -0.27450588395E+01 -0.18118093973E+02  0.54367102871E+02  0.40000042615E+02 0.  0.
        -12    1    3    3    0    0 -0.31937091103E+02  0.27450588395E+01  0.18118093973E+02  0.36820897129E+02  0.00000000000E+00 0.  1.
         11    1    4    4    0    0  0.67746944706E+00 -0.52891860652E+01  0.37877689457E+01  0.65407681454E+01  0.51100000000E-03 0. -1.
        -11    1    4    4    0    0  0.27567875058E+00  0.69500440835E+01 -0.13868692790E+02  0.15515145874E+02  0.51100000000E-03 0.  1.
        -12    1    4    4    0    0  0.30983942906E+02 -0.44059168578E+01 -0.80371701285E+01  0.32311188852E+02  0.00000000000E+00 0.  1.
</event>
<event>
 8    1  0.2432279E-006  0.9118800E+02  0.7816164E-02  0.1184000E+00
        -11   -1    0    0    0    0  0.00000000000E+00  0.00000000000E+00  0.45593999997E+02  0.45594000000E+02  0.51100000000E-03 0.  1.
         11   -1    0    0    0    0 -0.00000000000E+00 -0.00000000000E+00 -0.45593999997E+02  0.45594000000E+02  0.51100000000E-03 0. -1.
         23    2    1    2    0    0  0.00000000000E+00  0.00000000000E+00  0.44408920985E-15  0.91188000000E+02  0.91188000000E+02 0.  0.
    9900012    2    3    3    0    0 -0.12946401154E+02 -0.34446096183E+02 -0.12794684298E+01  0.54367083599E+02  0.39999998682E+02 0.  0.
         12    1    3    3    0    0  0.12946401154E+02  0.34446096183E+02  0.12794684298E+01  0.36820916401E+02  0.00000000000E+00 0. -1.
         11    1    4    4    0    0 -0.15947001169E+02 -0.32815798818E+01  0.35840365609E+01  0.16670960714E+02  0.51100000000E-03 0. -1.
        -11    1    4    4    0    0  0.78647723029E+01 -0.22639932291E+02  0.42050878987E+01  0.24333186023E+02  0.51100000000E-03 0.  1.
         12    1    4    4    0    0 -0.48641722875E+01 -0.85245840107E+01 -0.90685928893E+01  0.13362936862E+02  0.00000000000E+00 0. -1.
</event>
<event>
 8    1  0.2432279E-006  0.9118800E+02  0.7816164E-02  0.1184000E+00
        -11   -1    0    0    0    0  0.00000000000E+00  0.00000000000E+00  0.45593999997E+02  0.45594000000E+02  0.51100000000E-03 0. -1.
         11   -1    0    0    0    0 -0.00000000000E+00 -0.00000000000E+00 -0.45593999997E+02  0.45594000000E+02  0.51100000000E-03 0.  1.
         23    2    1    2    0    0  0.00000000000E+00  0.71054273576E-14  0.88470897275E-15  0.91188000000E+02  0.91188000000E+02 0.  0.
    9900012    2    3    3    0    0  0.32044743662E+02  0.18135979363E+02  0.19568137037E-01  0.54367085743E+02  0.40000003569E+02 0.  0.
        -12    1    3    3    0    0 -0.32044743662E+02 -0.18135979363E+02 -0.19568137037E-01  0.36820914257E+02  0.00000000000E+00 0.  1.
         11    1    4    4    0    0  0.13002085261E+02  0.71272974933E+01 -0.13231857815E+02  0.19872962844E+02  0.51100000000E-03 0. -1.
        -11    1    4    4    0    0  0.98667541289E+01 -0.45674294605E+01  0.12263411556E+02  0.16389188881E+02  0.51100000000E-03 0.  1.
         12    1    4    4    0    0  0.91759042723E+01  0.15576111330E+02  0.98801439631E+00  0.18104934019E+02  0.00000000000E+00 0. -1.
</event>
<event>
 8    1  0.2432279E-006  0.9118800E+02  0.7816164E-02  0.1184000E+00
        -11   -1    0    0    0    0  0.00000000000E+00  0.00000000000E+00  0.45593999997E+02  0.45594000000E+02  0.51100000000E-03 0.  1.
         11   -1    0    0    0    0 -0.00000000000E+00 -0.00000000000E+00 -0.45593999997E+02  0.45594000000E+02  0.51100000000E-03 0. -1.
         23    2    1    2    0    0  0.00000000000E+00  0.88817841970E-15  0.00000000000E+00  0.91188000000E+02  0.91188000000E+02 0.  0.
    9900012    2    3    3    0    0 -0.27617910335E+02 -0.59659918391E+01 -0.23610139399E+02  0.54367072360E+02  0.39999973058E+02 0.  0.
        -12    1    3    3    0    0  0.27617910335E+02  0.59659918391E+01  0.23610139399E+02  0.36820927640E+02  0.00000000000E+00 0.  1.
         11    1    4    4    0    0 -0.11386602576E+02 -0.71187565099E+01 -0.15519834260E+02  0.20523076480E+02  0.51100000000E-03 0. -1.
        -11    1    4    4    0    0  0.33642887372E+01 -0.84454903460E+01  0.27251693350E+01  0.94905897634E+01  0.51100000000E-03 0.  1.
        -12    1    4    4    0    0 -0.19595596495E+02  0.95982550168E+01 -0.10815474474E+02  0.24353406116E+02  0.00000000000E+00 0.  1.
</event>
<event>
 8    1  0.2432279E-006  0.9118800E+02  0.7816164E-02  0.1184000E+00
        -11   -1    0    0    0    0  0.00000000000E+00  0.00000000000E+00  0.45593999997E+02  0.45594000000E+02  0.51100000000E-03 0.  1.
         11   -1    0    0    0    0 -0.00000000000E+00 -0.00000000000E+00 -0.45593999997E+02  0.45594000000E+02  0.51100000000E-03 0. -1.
         23    2    1    2    0    0  0.16653345369E-14  0.00000000000E+00  0.00000000000E+00  0.91188000000E+02  0.91188000000E+02 0.  0.
    9900012    2    3    3    0    0  0.44565796002E+00  0.17538470696E+02 -0.32372534299E+02  0.54367115405E+02  0.40000071189E+02 0.  0.
        -12    1    3    3    0    0 -0.44565796002E+00 -0.17538470696E+02  0.32372534299E+02  0.36820884595E+02  0.00000000000E+00 0.  1.
         11    1    4    4    0    0 -0.69418532270E+01 -0.63556434819E+01  0.32205487134E+00  0.94173908221E+01  0.51100000000E-03 0. -1.
        -11    1    4    4    0    0  0.11840072450E+02  0.19808066680E+02 -0.18687603718E+02  0.29694668784E+02  0.51100000000E-03 0.  1.
         12    1    4    4    0    0 -0.44525612628E+01  0.40860474984E+01 -0.14006985453E+02  0.15255055799E+02  0.00000000000E+00 0. -1.
</event>
<event>
 8    1  0.2432279E-006  0.9118800E+02  0.7816164E-02  0.1184000E+00
        -11   -1    0    0    0    0  0.00000000000E+00  0.00000000000E+00  0.45593999997E+02  0.45594000000E+02  0.51100000000E-03 0.  1.
         11   -1    0    0    0    0 -0.00000000000E+00 -0.00000000000E+00 -0.45593999997E+02  0.45594000000E+02  0.51100000000E-03 0. -1.
         23    2    1    2    0    0  0.00000000000E+00  0.00000000000E+00 -0.35527136788E-14  0.91188000000E+02  0.91188000000E+02 0.  0.
    9900012    2    3    3    0    0 -0.69692488770E+01 -0.27750332480E+02  0.23176081276E+02  0.54367053163E+02  0.39999929296E+02 0.  0.
         12    1    3    3    0    0  0.69692488770E+01  0.27750332480E+02 -0.23176081276E+02  0.36820946837E+02  0.00000000000E+00 0. -1.
         11    1    4    4    0    0  0.49583864165E+01 -0.19783932523E+01  0.21275150269E+02  0.21934713468E+02  0.51100000000E-03 0. -1.
        -11    1    4    4    0    0  0.19643723569E+01 -0.13933845114E+02  0.17489570422E+01  0.14179903011E+02  0.51100000000E-03 0.  1.
         12    1    4    4    0    0 -0.13892007650E+02 -0.11838094114E+02  0.15197396516E+00  0.18252436684E+02  0.00000000000E+00 0. -1.
</event>
<event>
 8    1  0.2432279E-006  0.9118800E+02  0.7816164E-02  0.1184000E+00
        -11   -1    0    0    0    0  0.00000000000E+00  0.00000000000E+00  0.45593999997E+02  0.45594000000E+02  0.51100000000E-03 0.  1.
         11   -1    0    0    0    0 -0.00000000000E+00 -0.00000000000E+00 -0.45593999997E+02  0.45594000000E+02  0.51100000000E-03 0. -1.
         23    2    1    2    0    0  0.00000000000E+00  0.00000000000E+00 -0.35527136788E-14  0.91188000000E+02  0.91188000000E+02 0.  0.
    9900012    2    3    3    0    0 -0.29113130498E+02  0.15271508482E+02 -0.16582760834E+02  0.54367064439E+02  0.39999955001E+02 0.  0.
         12    1    3    3    0    0  0.29113130498E+02 -0.15271508482E+02  0.16582760834E+02  0.36820935561E+02  0.00000000000E+00 0. -1.
         11    1    4    4    0    0 -0.11879424810E+02 -0.65529217343E+01 -0.18809509731E+02  0.23191791083E+02  0.51100000000E-03 0. -1.
        -11    1    4    4    0    0 -0.47657936938E+01  0.90834192017E+01  0.73593662737E+01  0.12624641228E+02  0.51100000000E-03 0.  1.
        -12    1    4    4    0    0 -0.12467911995E+02  0.12741011015E+02 -0.51326173762E+01  0.18550632127E+02  0.00000000000E+00 0.  1.
</event>
<event>
 8    1  0.2432279E-006  0.9118800E+02  0.7816164E-02  0.1184000E+00
        -11   -1    0    0    0    0  0.00000000000E+00  0.00000000000E+00  0.45593999997E+02  0.45594000000E+02  0.51100000000E-03 0.  1.
         11   -1    0    0    0    0 -0.00000000000E+00 -0.00000000000E+00 -0.45593999997E+02  0.45594000000E+02  0.51100000000E-03 0. -1.
         23    2    1    2    0    0  0.00000000000E+00  0.00000000000E+00  0.00000000000E+00  0.91188000000E+02  0.91188000000E+02 0.  0.
    9900012    2    3    3    0    0 -0.11182190494E+02  0.30154798769E+02 -0.17928411456E+02  0.54367065596E+02  0.39999957639E+02 0.  0.
        -12    1    3    3    0    0  0.11182190494E+02 -0.30154798769E+02  0.17928411456E+02  0.36820934404E+02  0.00000000000E+00 0.  1.
         11    1    4    4    0    0  0.12388566835E+02  0.79243199955E+01 -0.81826829229E+01  0.16829371221E+02  0.51100000000E-03 0.  1.
        -11    1    4    4    0    0  0.82415887320E+00  0.11237659129E+01 -0.46810836745E+01  0.48841204227E+01  0.51100000000E-03 0. -1.
        -12    1    4    4    0    0 -0.24394916202E+02  0.21106712861E+02 -0.50646448586E+01  0.32653573952E+02  0.00000000000E+00 0.  1.
</event>
<event>
 8    1  0.2432279E-006  0.9118800E+02  0.7816164E-02  0.1184000E+00
        -11   -1    0    0    0    0  0.00000000000E+00  0.00000000000E+00  0.45593999997E+02  0.45594000000E+02  0.51100000000E-03 0. -1.
         11   -1    0    0    0    0 -0.00000000000E+00 -0.00000000000E+00 -0.45593999997E+02  0.45594000000E+02  0.51100000000E-03 0.  1.
         23    2    1    2    0    0 -0.55511151231E-15 -0.35527136788E-14  0.00000000000E+00  0.91188000000E+02  0.91188000000E+02 0.  0.
    9900012    2    3    3    0    0  0.53475803636E+00  0.30540715264E+02  0.20561197953E+02  0.54367026137E+02  0.39999867684E+02 0.  0.
        -12    1    3    3    0    0 -0.53475803636E+00 -0.30540715264E+02 -0.20561197953E+02  0.36820973863E+02  0.00000000000E+00 0.  1.
         11    1    4    4    0    0 -0.16110990338E+01  0.21693457045E+01  0.18974624937E+02  0.19166066175E+02  0.51100000000E-03 0. -1.
        -11    1    4    4    0    0 -0.26305831335E+01 -0.20663283069E+01 -0.24237226012E+01  0.41308730074E+01  0.51100000000E-03 0.  1.
         12    1    4    4    0    0  0.47764402036E+01  0.30437697866E+02  0.40102956176E+01  0.31070086954E+02  0.00000000000E+00 0. -1.
</event>
<event>
 8    1  0.2432279E-006  0.9118800E+02  0.7816164E-02  0.1184000E+00
        -11   -1    0    0    0    0  0.00000000000E+00  0.00000000000E+00  0.45593999997E+02  0.45594000000E+02  0.51100000000E-03 0.  1.
         11   -1    0    0    0    0 -0.00000000000E+00 -0.00000000000E+00 -0.45593999997E+02  0.45594000000E+02  0.51100000000E-03 0. -1.
         23    2    1    2    0    0 -0.44408920985E-15  0.00000000000E+00  0.00000000000E+00  0.91188000000E+02  0.91188000000E+02 0.  0.
    9900012    2    3    3    0    0 -0.27785561586E+01  0.23178589760E+02 -0.28474746209E+02  0.54367101461E+02  0.40000039401E+02 0.  0.
        -12    1    3    3    0    0  0.27785561586E+01 -0.23178589760E+02  0.28474746209E+02  0.36820898539E+02  0.00000000000E+00 0.  1.
         11    1    4    4    0    0  0.81183844059E+01  0.48152752024E+01 -0.20763592151E+02  0.22808371268E+02  0.51100000000E-03 0. -1.
        -11    1    4    4    0    0 -0.96642526080E+01  0.23333220859E+02 -0.78157965789E+01  0.26437164192E+02  0.51100000000E-03 0.  1.
        -12    1    4    4    0    0 -0.12326879565E+01 -0.49699063014E+01  0.10464252091E+00  0.51215660008E+01  0.00000000000E+00 0.  1.
</event>
<event>
 8    1  0.2432279E-006  0.9118800E+02  0.7816164E-02  0.1184000E+00
        -11   -1    0    0    0    0  0.00000000000E+00  0.00000000000E+00  0.45593999997E+02  0.45594000000E+02  0.51100000000E-03 0. -1.
         11   -1    0    0    0    0 -0.00000000000E+00 -0.00000000000E+00 -0.45593999997E+02  0.45594000000E+02  0.51100000000E-03 0.  1.
         23    2    1    2    0    0 -0.55511151231E-15  0.00000000000E+00  0.00000000000E+00  0.91188000000E+02  0.91188000000E+02 0.  0.
    9900012    2    3    3    0    0 -0.70592026414E+00 -0.14401037431E+02 -0.33880567725E+02  0.54367067477E+02  0.39999961928E+02 0.  0.
         12    1    3    3    0    0  0.70592026414E+00  0.14401037431E+02  0.33880567725E+02  0.36820932523E+02  0.00000000000E+00 0. -1.
         11    1    4    4    0    0  0.15458239692E+02 -0.66235804895E+01 -0.18519481049E+02  0.25015998310E+02  0.51100000000E-03 0.  1.
        -11    1    4    4    0    0 -0.54288020524E+01  0.52258978885E+01 -0.18906252231E+01  0.77689358641E+01  0.51100000000E-03 0. -1.
         12    1    4    4    0    0 -0.10735357904E+02 -0.13003354830E+02 -0.13470461453E+02  0.21582133303E+02  0.00000000000E+00 0. -1.
</event>
<event>
 8    1  0.2432279E-006  0.9118800E+02  0.7816164E-02  0.1184000E+00
        -11   -1    0    0    0    0  0.00000000000E+00  0.00000000000E+00  0.45593999997E+02  0.45594000000E+02  0.51100000000E-03 0.  1.
         11   -1    0    0    0    0 -0.00000000000E+00 -0.00000000000E+00 -0.45593999997E+02  0.45594000000E+02  0.51100000000E-03 0. -1.
         23    2    1    2    0    0 -0.22204460493E-15  0.00000000000E+00  0.00000000000E+00  0.91188000000E+02  0.91188000000E+02 0.  0.
    9900012    2    3    3    0    0 -0.13371356219E+01  0.19945648734E+02 -0.30921924491E+02  0.54367051488E+02  0.39999925477E+02 0.  0.
        -12    1    3    3    0    0  0.13371356219E+01 -0.19945648734E+02  0.30921924491E+02  0.36820948512E+02  0.00000000000E+00 0.  1.
         11    1    4    4    0    0 -0.90485389189E+00  0.11653919695E+02 -0.16141822447E+02  0.19929652205E+02  0.51100000000E-03 0. -1.
        -11    1    4    4    0    0  0.85584523397E+01  0.10018382634E+02 -0.19961273268E+02  0.23917933184E+02  0.51100000000E-03 0.  1.
         12    1    4    4    0    0 -0.89907340697E+01 -0.17266535951E+01  0.51811712247E+01  0.10519466099E+02  0.00000000000E+00 0. -1.
</event>
<event>
 8    1  0.2432279E-006  0.9118800E+02  0.7816164E-02  0.1184000E+00
        -11   -1    0    0    0    0  0.00000000000E+00  0.00000000000E+00  0.45593999997E+02  0.45594000000E+02  0.51100000000E-03 0.  1.
         11   -1    0    0    0    0 -0.00000000000E+00 -0.00000000000E+00 -0.45593999997E+02  0.45594000000E+02  0.51100000000E-03 0. -1.
         23    2    1    2    0    0  0.00000000000E+00  0.00000000000E+00  0.00000000000E+00  0.91188000000E+02  0.91188000000E+02 0.  0.
    9900012    2    3    3    0    0 -0.26338461682E+02 -0.14909033973E+01  0.25687409261E+02  0.54367077262E+02  0.39999984235E+02 0.  0.
         12    1    3    3    0    0  0.26338461682E+02  0.14909033973E+01 -0.25687409261E+02  0.36820922738E+02  0.00000000000E+00 0. -1.
         11    1    4    4    0    0  0.16375395760E+01 -0.46870666769E+01 -0.79821581850E+01  0.94002648605E+01  0.51100000000E-03 0. -1.
        -11    1    4    4    0    0 -0.20105240562E+02 -0.23287773484E+00  0.28714476743E+02  0.35054188123E+02  0.51100000000E-03 0.  1.
         12    1    4    4    0    0 -0.78707606961E+01  0.34290410144E+01  0.49550907031E+01  0.99126242787E+01  0.00000000000E+00 0. -1.
</event>
<event>
 8    1  0.2432279E-006  0.9118800E+02  0.7816164E-02  0.1184000E+00
        -11   -1    0    0    0    0  0.00000000000E+00  0.00000000000E+00  0.45593999997E+02  0.45594000000E+02  0.51100000000E-03 0.  1.
         11   -1    0    0    0    0 -0.00000000000E+00 -0.00000000000E+00 -0.45593999997E+02  0.45594000000E+02  0.51100000000E-03 0. -1.
         23    2    1    2    0    0  0.35527136788E-14  0.00000000000E+00  0.00000000000E+00  0.91188000000E+02  0.91188000000E+02 0.  0.
    9900012    2    3    3    0    0 -0.18003962279E+02 -0.64912371298E+01 -0.31456336933E+02  0.54367082705E+02  0.39999996642E+02 0.  0.
        -12    1    3    3    0    0  0.18003962279E+02  0.64912371298E+01  0.31456336933E+02  0.36820917295E+02  0.00000000000E+00 0.  1.
         11    1    4    4    0    0  0.68588543709E+00  0.43211800339E+01  0.55714188074E+01  0.70840485252E+01  0.51100000000E-03 0. -1.
        -11    1    4    4    0    0  0.26227034491E+00 -0.10437563404E+02 -0.12628939648E+02  0.16386019420E+02  0.51100000000E-03 0.  1.
         12    1    4    4    0    0 -0.18952118061E+02 -0.37485376007E+00 -0.24398816092E+02  0.30897014760E+02  0.00000000000E+00 0. -1.
</event>
<event>
 8    1  0.2432279E-006  0.9118800E+02  0.7816164E-02  0.1184000E+00
        -11   -1    0    0    0    0  0.00000000000E+00  0.00000000000E+00  0.45593999997E+02  0.45594000000E+02  0.51100000000E-03 0.  1.
         11   -1    0    0    0    0 -0.00000000000E+00 -0.00000000000E+00 -0.45593999997E+02  0.45594000000E+02  0.51100000000E-03 0. -1.
         23    2    1    2    0    0  0.17763568394E-14  0.00000000000E+00  0.00000000000E+00  0.91188000000E+02  0.91188000000E+02 0.  0.
    9900012    2    3    3    0    0 -0.14008158018E+02  0.33597052079E+02  0.55487673065E+01  0.54367092650E+02  0.40000019314E+02 0.  0.
         12    1    3    3    0    0  0.14008158018E+02 -0.33597052079E+02 -0.55487673065E+01  0.36820907350E+02  0.00000000000E+00 0. -1.
         11    1    4    4    0    0 -0.20295482683E+02  0.20205033127E+02 -0.10259481661E+02  0.30420502054E+02  0.51100000000E-03 0. -1.
        -11    1    4    4    0    0 -0.15688924758E+01  0.83608019680E+01  0.59977553701E+01  0.10408530294E+02  0.51100000000E-03 0.  1.
         12    1    4    4    0    0  0.78562171410E+01  0.50312169847E+01  0.98104935972E+01  0.13538060302E+02  0.00000000000E+00 0. -1.
</event>
<event>
 8    1  0.2432279E-006  0.9118800E+02  0.7816164E-02  0.1184000E+00
        -11   -1    0    0    0    0  0.00000000000E+00  0.00000000000E+00  0.45593999997E+02  0.45594000000E+02  0.51100000000E-03 0. -1.
         11   -1    0    0    0    0 -0.00000000000E+00 -0.00000000000E+00 -0.45593999997E+02  0.45594000000E+02  0.51100000000E-03 0.  1.
         23    2    1    2    0    0  0.00000000000E+00  0.88817841970E-15  0.00000000000E+00  0.91188000000E+02  0.91188000000E+02 0.  0.
    9900012    2    3    3    0    0 -0.32318836082E+02  0.73868861577E+01  0.16022084900E+02  0.54367075821E+02  0.39999980950E+02 0.  0.
        -12    1    3    3    0    0  0.32318836082E+02 -0.73868861577E+01 -0.16022084900E+02  0.36820924179E+02  0.00000000000E+00 0.  1.
         11    1    4    4    0    0 -0.22152723547E+02  0.37385581669E+00  0.83618357879E+01  0.23681284314E+02  0.51100000000E-03 0. -1.
        -11    1    4    4    0    0 -0.16095960716E+02  0.60032229106E+01 -0.39342987486E+01  0.17623772116E+02  0.51100000000E-03 0.  1.
        -12    1    4    4    0    0  0.59298481813E+01  0.10098074305E+01  0.11594547861E+02  0.13062019392E+02  0.00000000000E+00 0.  1.
</event>
<event>
 8    1  0.2432279E-006  0.9118800E+02  0.7816164E-02  0.1184000E+00
        -11   -1    0    0    0    0  0.00000000000E+00  0.00000000000E+00  0.45593999997E+02  0.45594000000E+02  0.51100000000E-03 0. -1.
         11   -1    0    0    0    0 -0.00000000000E+00 -0.00000000000E+00 -0.45593999997E+02  0.45594000000E+02  0.51100000000E-03 0.  1.
         23    2    1    2    0    0  0.00000000000E+00  0.00000000000E+00  0.00000000000E+00  0.91188000000E+02  0.91188000000E+02 0.  0.
    9900012    2    3    3    0    0  0.19854962234E+02 -0.23345265324E+02 -0.20409766355E+02  0.54367088808E+02  0.40000010555E+02 0.  0.
         12    1    3    3    0    0 -0.19854962234E+02  0.23345265324E+02  0.20409766355E+02  0.36820911192E+02  0.00000000000E+00 0. -1.
         11    1    4    4    0    0  0.20691298876E+02 -0.27891231163E+02 -0.93198241469E+01  0.35957054208E+02  0.51100000000E-03 0. -1.
        -11    1    4    4    0    0  0.65413502842E+01  0.26733140776E+01 -0.57793841688E+01  0.91289185192E+01  0.51100000000E-03 0.  1.
         12    1    4    4    0    0 -0.73776869264E+01  0.18726517615E+01 -0.53105580397E+01  0.92811160803E+01  0.00000000000E+00 0. -1.
</event>
<event>
 8    1  0.2432279E-006  0.9118800E+02  0.7816164E-02  0.1184000E+00
        -11   -1    0    0    0    0  0.00000000000E+00  0.00000000000E+00  0.45593999997E+02  0.45594000000E+02  0.51100000000E-03 0. -1.
         11   -1    0    0    0    0 -0.00000000000E+00 -0.00000000000E+00 -0.45593999997E+02  0.45594000000E+02  0.51100000000E-03 0.  1.
         23    2    1    2    0    0  0.00000000000E+00  0.00000000000E+00  0.17763568394E-14  0.91188000000E+02  0.91188000000E+02 0.  0.
    9900012    2    3    3    0    0  0.24199079736E+02  0.25542896348E+02 -0.10851028962E+02  0.54367084158E+02  0.39999999955E+02 0.  0.
        -12    1    3    3    0    0 -0.24199079736E+02 -0.25542896348E+02  0.10851028962E+02  0.36820915842E+02  0.00000000000E+00 0.  1.
         11    1    4    4    0    0  0.19310944333E+02  0.84324864630E+01 -0.12793080314E+02  0.24651213016E+02  0.51100000000E-03 0. -1.
        -11    1    4    4    0    0  0.51425455800E+01  0.16450040755E+02  0.11119745915E+02  0.20510932825E+02  0.51100000000E-03 0.  1.
        -12    1    4    4    0    0 -0.25441017685E+00  0.66036912978E+00 -0.91776945630E+01  0.92049383169E+01  0.00000000000E+00 0.  1.
</event>
<event>
 8    1  0.2432279E-006  0.9118800E+02  0.7816164E-02  0.1184000E+00
        -11   -1    0    0    0    0  0.00000000000E+00  0.00000000000E+00  0.45593999997E+02  0.45594000000E+02  0.51100000000E-03 0. -1.
         11   -1    0    0    0    0 -0.00000000000E+00 -0.00000000000E+00 -0.45593999997E+02  0.45594000000E+02  0.51100000000E-03 0.  1.
         23    2    1    2    0    0  0.00000000000E+00 -0.44408920985E-15  0.00000000000E+00  0.91188000000E+02  0.91188000000E+02 0.  0.
    9900012    2    3    3    0    0 -0.35733439259E+02  0.33304560433E+01  0.82340224734E+01  0.54367221290E+02  0.40000312574E+02 0.  0.
        -12    1    3    3    0    0  0.35733439259E+02 -0.33304560433E+01 -0.82340224734E+01  0.36820778710E+02  0.00000000000E+00 0.  1.
         11    1    4    4    0    0 -0.73801816023E+01  0.11388913422E+02  0.18286815822E+01  0.13693739665E+02  0.51100000000E-03 0. -1.
        -11    1    4    4    0    0  0.18465655500E+01  0.56274789439E+01 -0.23642192805E+01  0.63771354590E+01  0.51100000000E-03 0.  1.
         12    1    4    4    0    0 -0.30199823206E+02 -0.13685936323E+02  0.87695601717E+01  0.34296346166E+02  0.00000000000E+00 0. -1.
</event>
<event>
 8    1  0.2432279E-006  0.9118800E+02  0.7816164E-02  0.1184000E+00
        -11   -1    0    0    0    0  0.00000000000E+00  0.00000000000E+00  0.45593999997E+02  0.45594000000E+02  0.51100000000E-03 0. -1.
         11   -1    0    0    0    0 -0.00000000000E+00 -0.00000000000E+00 -0.45593999997E+02  0.45594000000E+02  0.51100000000E-03 0.  1.
         23    2    1    2    0    0 -0.17763568394E-14 -0.17763568394E-14 -0.71054273576E-14  0.91188000000E+02  0.91188000000E+02 0.  0.
    9900012    2    3    3    0    0 -0.13259220480E+02  0.56094719912E+01  0.33889630484E+02  0.54367079885E+02  0.39999990214E+02 0.  0.
        -12    1    3    3    0    0  0.13259220480E+02 -0.56094719912E+01 -0.33889630484E+02  0.36820920115E+02  0.00000000000E+00 0.  1.
         11    1    4    4    0    0  0.10694580640E+02  0.83551865249E+01  0.22921738305E+02  0.26638117128E+02  0.51100000000E-03 0. -1.
        -11    1    4    4    0    0 -0.60339457116E+01  0.28765660875E+01  0.27282068934E+01  0.72198508586E+01  0.51100000000E-03 0.  1.
        -12    1    4    4    0    0 -0.17919855409E+02 -0.56222806213E+01  0.82396852852E+01  0.20509111898E+02  0.00000000000E+00 0.  1.
</event>
<event>
 8    1  0.2432279E-006  0.9118800E+02  0.7816164E-02  0.1184000E+00
        -11   -1    0    0    0    0  0.00000000000E+00  0.00000000000E+00  0.45593999997E+02  0.45594000000E+02  0.51100000000E-03 0.  1.
         11   -1    0    0    0    0 -0.00000000000E+00 -0.00000000000E+00 -0.45593999997E+02  0.45594000000E+02  0.51100000000E-03 0. -1.
         23    2    1    2    0    0  0.00000000000E+00  0.35527136788E-14  0.00000000000E+00  0.91188000000E+02  0.91188000000E+02 0.  0.
    9900012    2    3    3    0    0 -0.82976114580E+01  0.26979562574E+02  0.23643894243E+02  0.54367069980E+02  0.39999967633E+02 0.  0.
         12    1    3    3    0    0  0.82976114580E+01 -0.26979562574E+02 -0.23643894243E+02  0.36820930020E+02  0.00000000000E+00 0. -1.
         11    1    4    4    0    0 -0.55734167859E+01 -0.27749407954E+01  0.21182379400E+01  0.65764886771E+01  0.51100000000E-03 0. -1.
        -11    1    4    4    0    0 -0.43604040834E+01  0.31901892381E+02  0.69151027109E+01  0.32932696626E+02  0.51100000000E-03 0.  1.
        -12    1    4    4    0    0  0.16362094114E+01 -0.21473890120E+01  0.14610553592E+02  0.14857884677E+02  0.00000000000E+00 0.  1.
</event>
<event>
 8    1  0.2432279E-006  0.9118800E+02  0.7816164E-02  0.1184000E+00
        -11   -1    0    0    0    0  0.00000000000E+00  0.00000000000E+00  0.45593999997E+02  0.45594000000E+02  0.51100000000E-03 0. -1.
         11   -1    0    0    0    0 -0.00000000000E+00 -0.00000000000E+00 -0.45593999997E+02  0.45594000000E+02  0.51100000000E-03 0.  1.
         23    2    1    2    0    0  0.00000000000E+00  0.35527136788E-14 -0.71054273576E-14  0.91188000000E+02  0.91188000000E+02 0.  0.
    9900012    2    3    3    0    0  0.10914794968E+02  0.92334697476E+01  0.33932115500E+02  0.54367106813E+02  0.40000051601E+02 0.  0.
        -12    1    3    3    0    0 -0.10914794968E+02 -0.92334697476E+01 -0.33932115500E+02  0.36820893187E+02  0.00000000000E+00 0.  1.
         11    1    4    4    0    0  0.16715409922E+01  0.14244315877E+02  0.21134741414E+02  0.25541571584E+02  0.51100000000E-03 0. -1.
        -11    1    4    4    0    0  0.11209451016E+02 -0.13221593663E+02  0.94574601731E+01  0.19746034647E+02  0.51100000000E-03 0.  1.
        -12    1    4    4    0    0 -0.19661970403E+01  0.82107475341E+01  0.33399139128E+01  0.90795005818E+01  0.00000000000E+00 0.  1.
</event>
<event>
 8    1  0.2432279E-006  0.9118800E+02  0.7816164E-02  0.1184000E+00
        -11   -1    0    0    0    0  0.00000000000E+00  0.00000000000E+00  0.45593999997E+02  0.45594000000E+02  0.51100000000E-03 0. -1.
         11   -1    0    0    0    0 -0.00000000000E+00 -0.00000000000E+00 -0.45593999997E+02  0.45594000000E+02  0.51100000000E-03 0.  1.
         23    2    1    2    0    0  0.00000000000E+00  0.00000000000E+00  0.00000000000E+00  0.91188000000E+02  0.91188000000E+02 0.  0.
    9900012    2    3    3    0    0  0.10553430050E+02 -0.17742614701E+02  0.30489414125E+02  0.54367086976E+02  0.40000006379E+02 0.  0.
        -12    1    3    3    0    0 -0.10553430050E+02  0.17742614701E+02 -0.30489414125E+02  0.36820913024E+02  0.00000000000E+00 0.  1.
         11    1    4    4    0    0 -0.16644037541E+01 -0.11159489250E+02  0.95172351715E+00  0.11322995102E+02  0.51100000000E-03 0. -1.
        -11    1    4    4    0    0  0.21011783139E+02 -0.16776720140E+01  0.17889442034E+02  0.27646731282E+02  0.51100000000E-03 0.  1.
        -12    1    4    4    0    0 -0.87939493348E+01 -0.49054534374E+01  0.11648248574E+02  0.15397360591E+02  0.00000000000E+00 0.  1.
</event>
<event>
 8    1  0.2432279E-006  0.9118800E+02  0.7816164E-02  0.1184000E+00
        -11   -1    0    0    0    0  0.00000000000E+00  0.00000000000E+00  0.45593999997E+02  0.45594000000E+02  0.51100000000E-03 0. -1.
         11   -1    0    0    0    0 -0.00000000000E+00 -0.00000000000E+00 -0.45593999997E+02  0.45594000000E+02  0.51100000000E-03 0.  1.
         23    2    1    2    0    0  0.00000000000E+00  0.44408920985E-15  0.88817841970E-15  0.91188000000E+02  0.91188000000E+02 0.  0.
    9900012    2    3    3    0    0 -0.35943605673E+02 -0.22472886321E+01  0.76671827032E+01  0.54367098523E+02  0.40000032703E+02 0.  0.
         12    1    3    3    0    0  0.35943605673E+02  0.22472886321E+01 -0.76671827032E+01  0.36820901477E+02  0.00000000000E+00 0. -1.
         11    1    4    4    0    0 -0.24743257069E+01 -0.38029621115E+01  0.62002335428E+01  0.76829489633E+01  0.51100000000E-03 0. -1.
        -11    1    4    4    0    0  0.45547919954E+01 -0.85405470375E+00 -0.62794435185E+01  0.78042905328E+01  0.51100000000E-03 0.  1.
        -12    1    4    4    0    0 -0.38024071961E+02  0.24097281832E+01  0.77463926789E+01  0.38879859027E+02  0.00000000000E+00 0.  1.
</event>
<event>
 8    1  0.2432279E-006  0.9118800E+02  0.7816164E-02  0.1184000E+00
        -11   -1    0    0    0    0  0.00000000000E+00  0.00000000000E+00  0.45593999997E+02  0.45594000000E+02  0.51100000000E-03 0. -1.
         11   -1    0    0    0    0 -0.00000000000E+00 -0.00000000000E+00 -0.45593999997E+02  0.45594000000E+02  0.51100000000E-03 0.  1.
         23    2    1    2    0    0  0.17763568394E-14  0.00000000000E+00  0.00000000000E+00  0.91188000000E+02  0.91188000000E+02 0.  0.
    9900012    2    3    3    0    0  0.74861986790E+01  0.32241361238E+02  0.16131694817E+02  0.54367080364E+02  0.39999991306E+02 0.  0.
        -12    1    3    3    0    0 -0.74861986790E+01 -0.32241361238E+02 -0.16131694817E+02  0.36820919636E+02  0.00000000000E+00 0.  1.
         11    1    4    4    0    0  0.18710297399E+01  0.73865003422E+01 -0.84161525164E+01  0.11353094866E+02  0.51100000000E-03 0. -1.
        -11    1    4    4    0    0 -0.38934380303E+01 -0.36077994178E+01  0.39371996623E+01  0.66088287750E+01  0.51100000000E-03 0.  1.
         12    1    4    4    0    0  0.95086069693E+01  0.28462660314E+02  0.20610647671E+02  0.36405156723E+02  0.00000000000E+00 0. -1.
</event>
<event>
 8    1  0.2432279E-006  0.9118800E+02  0.7816164E-02  0.1184000E+00
        -11   -1    0    0    0    0  0.00000000000E+00  0.00000000000E+00  0.45593999997E+02  0.45594000000E+02  0.51100000000E-03 0. -1.
         11   -1    0    0    0    0 -0.00000000000E+00 -0.00000000000E+00 -0.45593999997E+02  0.45594000000E+02  0.51100000000E-03 0.  1.
         23    2    1    2    0    0 -0.17763568394E-14  0.35527136788E-14 -0.35527136788E-14  0.91188000000E+02  0.91188000000E+02 0.  0.
    9900012    2    3    3    0    0 -0.90043068815E+01  0.21355089303E+02 -0.28612281455E+02  0.54367081602E+02  0.39999994129E+02 0.  0.
         12    1    3    3    0    0  0.90043068815E+01 -0.21355089303E+02  0.28612281455E+02  0.36820918398E+02  0.00000000000E+00 0. -1.
         11    1    4    4    0    0 -0.22018193244E+01  0.11154821812E+02 -0.25036290414E+02  0.27497161598E+02  0.51100000000E-03 0.  1.
        -11    1    4    4    0    0 -0.11182793541E+02  0.51804549945E+01 -0.11264325916E+02  0.16696617141E+02  0.51100000000E-03 0. -1.
         12    1    4    4    0    0  0.43803059843E+01  0.50198124968E+01  0.76883348745E+01  0.10173302864E+02  0.00000000000E+00 0. -1.
</event>
<event>
 8    1  0.2432279E-006  0.9118800E+02  0.7816164E-02  0.1184000E+00
        -11   -1    0    0    0    0  0.00000000000E+00  0.00000000000E+00  0.45593999997E+02  0.45594000000E+02  0.51100000000E-03 0. -1.
         11   -1    0    0    0    0 -0.00000000000E+00 -0.00000000000E+00 -0.45593999997E+02  0.45594000000E+02  0.51100000000E-03 0.  1.
         23    2    1    2    0    0  0.17763568394E-14  0.00000000000E+00  0.33306690739E-15  0.91188000000E+02  0.91188000000E+02 0.  0.
    9900012    2    3    3    0    0 -0.84023613731E+01 -0.35847443912E+02 -0.37337918844E+00  0.54367104795E+02  0.40000047002E+02 0.  0.
        -12    1    3    3    0    0  0.84023613731E+01  0.35847443912E+02  0.37337918844E+00  0.36820895205E+02  0.00000000000E+00 0.  1.
         11    1    4    4    0    0 -0.10824966028E+02 -0.27131798661E+02 -0.10192539095E+02  0.30938685194E+02  0.51100000000E-03 0. -1.
        -11    1    4    4    0    0 -0.73164962875E+01 -0.20734536677E+01  0.87481038260E+01  0.11591360958E+02  0.51100000000E-03 0.  1.
        -12    1    4    4    0    0  0.97391009425E+01 -0.66421915831E+01  0.10710560803E+01  0.11837058643E+02  0.00000000000E+00 0.  1.
</event>
<event>
 8    1  0.2432279E-006  0.9118800E+02  0.7816164E-02  0.1184000E+00
        -11   -1    0    0    0    0  0.00000000000E+00  0.00000000000E+00  0.45593999997E+02  0.45594000000E+02  0.51100000000E-03 0.  1.
         11   -1    0    0    0    0 -0.00000000000E+00 -0.00000000000E+00 -0.45593999997E+02  0.45594000000E+02  0.51100000000E-03 0. -1.
         23    2    1    2    0    0  0.00000000000E+00  0.00000000000E+00  0.00000000000E+00  0.91188000000E+02  0.91188000000E+02 0.  0.
    9900012    2    3    3    0    0  0.12517205235E+02 -0.19491565070E+02 -0.28621297919E+02  0.54367078904E+02  0.39999987977E+02 0.  0.
        -12    1    3    3    0    0 -0.12517205235E+02  0.19491565070E+02  0.28621297919E+02  0.36820921096E+02  0.00000000000E+00 0.  1.
         11    1    4    4    0    0  0.15803630630E+02 -0.33884685884E+01 -0.49566074098E+01  0.16905751025E+02  0.51100000000E-03 0. -1.
        -11    1    4    4    0    0 -0.99002663478E+01 -0.35224359843E+01 -0.79948599976E+00  0.10538596071E+02  0.51100000000E-03 0.  1.
         12    1    4    4    0    0  0.66138409531E+01 -0.12580660497E+02 -0.22865204510E+02  0.26922731808E+02  0.00000000000E+00 0. -1.
</event>
<event>
 8    1  0.2432279E-006  0.9118800E+02  0.7816164E-02  0.1184000E+00
        -11   -1    0    0    0    0  0.00000000000E+00  0.00000000000E+00  0.45593999997E+02  0.45594000000E+02  0.51100000000E-03 0. -1.
         11   -1    0    0    0    0 -0.00000000000E+00 -0.00000000000E+00 -0.45593999997E+02  0.45594000000E+02  0.51100000000E-03 0.  1.
         23    2    1    2    0    0 -0.44408920985E-15 -0.35527136788E-14 -0.35527136788E-14  0.91188000000E+02  0.91188000000E+02 0.  0.
    9900012    2    3    3    0    0 -0.36079611586E+01  0.24703788746E+02  0.27064470599E+02  0.54367080255E+02  0.39999991056E+02 0.  0.
        -12    1    3    3    0    0  0.36079611586E+01 -0.24703788746E+02 -0.27064470599E+02  0.36820919745E+02  0.00000000000E+00 0.  1.
         11    1    4    4    0    0  0.14666393214E+01  0.15994180561E+02  0.18924862631E+02  0.24821669335E+02  0.51100000000E-03 0. -1.
        -11    1    4    4    0    0  0.66378757506E+01  0.13283436089E+02  0.55261918402E+00  0.14859894247E+02  0.51100000000E-03 0.  1.
         12    1    4    4    0    0 -0.11712476231E+02 -0.45738279037E+01  0.75869887837E+01  0.14685516673E+02  0.00000000000E+00 0. -1.
</event>
<event>
 8    1  0.2432279E-006  0.9118800E+02  0.7816164E-02  0.1184000E+00
        -11   -1    0    0    0    0  0.00000000000E+00  0.00000000000E+00  0.45593999997E+02  0.45594000000E+02  0.51100000000E-03 0.  1.
         11   -1    0    0    0    0 -0.00000000000E+00 -0.00000000000E+00 -0.45593999997E+02  0.45594000000E+02  0.51100000000E-03 0. -1.
         23    2    1    2    0    0 -0.17763568394E-14 -0.17763568394E-14  0.71054273576E-14  0.91188000000E+02  0.91188000000E+02 0.  0.
    9900012    2    3    3    0    0  0.89125755010E+01 -0.12147749882E+02 -0.33597288540E+02  0.54367087104E+02  0.40000006671E+02 0.  0.
        -12    1    3    3    0    0 -0.89125755010E+01  0.12147749882E+02  0.33597288540E+02  0.36820912896E+02  0.00000000000E+00 0.  1.
         11    1    4    4    0    0  0.37185588776E+01  0.79028552231E+01 -0.15349310751E+02  0.17660241833E+02  0.51100000000E-03 0. -1.
        -11    1    4    4    0    0  0.76438344849E+01  0.92371030082E+00  0.14432407962E+01  0.78335426602E+01  0.51100000000E-03 0.  1.
         12    1    4    4    0    0 -0.24498178615E+01 -0.20974315406E+02 -0.19691218584E+02  0.28873302611E+02  0.00000000000E+00 0. -1.
</event>
<event>
 8    1  0.2432279E-006  0.9118800E+02  0.7816164E-02  0.1184000E+00
        -11   -1    0    0    0    0  0.00000000000E+00  0.00000000000E+00  0.45593999997E+02  0.45594000000E+02  0.51100000000E-03 0. -1.
         11   -1    0    0    0    0 -0.00000000000E+00 -0.00000000000E+00 -0.45593999997E+02  0.45594000000E+02  0.51100000000E-03 0.  1.
         23    2    1    2    0    0  0.44408920985E-15  0.00000000000E+00 -0.35527136788E-14  0.91188000000E+02  0.91188000000E+02 0.  0.
    9900012    2    3    3    0    0  0.92383537514E+00  0.22589935198E+02 -0.29062381185E+02  0.54367073284E+02  0.39999975166E+02 0.  0.
         12    1    3    3    0    0 -0.92383537514E+00 -0.22589935198E+02  0.29062381185E+02  0.36820926716E+02  0.00000000000E+00 0. -1.
         11    1    4    4    0    0 -0.68051599001E+01  0.99905373173E+01 -0.22744456722E+02  0.25757161121E+02  0.51100000000E-03 0.  1.
        -11    1    4    4    0    0 -0.74846441106E+01  0.93783523841E+01 -0.50143004377E+01  0.13004483844E+02  0.51100000000E-03 0. -1.
        -12    1    4    4    0    0  0.15213639386E+02  0.32210454966E+01 -0.13036240255E+01  0.15605428320E+02  0.00000000000E+00 0.  1.
</event>
<event>
 8    1  0.2432279E-006  0.9118800E+02  0.7816164E-02  0.1184000E+00
        -11   -1    0    0    0    0  0.00000000000E+00  0.00000000000E+00  0.45593999997E+02  0.45594000000E+02  0.51100000000E-03 0.  1.
         11   -1    0    0    0    0 -0.00000000000E+00 -0.00000000000E+00 -0.45593999997E+02  0.45594000000E+02  0.51100000000E-03 0. -1.
         23    2    1    2    0    0  0.35527136788E-14  0.00000000000E+00  0.35527136788E-14  0.91188000000E+02  0.91188000000E+02 0.  0.
    9900012    2    3    3    0    0  0.17198953417E+02  0.27819624511E+02  0.16912849092E+02  0.54367082426E+02  0.39999996008E+02 0.  0.
         12    1    3    3    0    0 -0.17198953417E+02 -0.27819624511E+02 -0.16912849092E+02  0.36820917574E+02  0.00000000000E+00 0. -1.
         11    1    4    4    0    0  0.39983343366E+01  0.21982904720E+01  0.64139355405E+01  0.78713231318E+01  0.51100000000E-03 0. -1.
        -11    1    4    4    0    0 -0.21257368944E+01 -0.48257267010E+01  0.11224107587E+02  0.12401088134E+02  0.51100000000E-03 0.  1.
        -12    1    4    4    0    0  0.15326355975E+02  0.30447060740E+02 -0.72519403501E+00  0.34094671160E+02  0.00000000000E+00 0.  1.
</event>
<event>
 8    1  0.2432279E-006  0.9118800E+02  0.7816164E-02  0.1184000E+00
        -11   -1    0    0    0    0  0.00000000000E+00  0.00000000000E+00  0.45593999997E+02  0.45594000000E+02  0.51100000000E-03 0. -1.
         11   -1    0    0    0    0 -0.00000000000E+00 -0.00000000000E+00 -0.45593999997E+02  0.45594000000E+02  0.51100000000E-03 0.  1.
         23    2    1    2    0    0 -0.88817841970E-15 -0.35527136788E-14  0.00000000000E+00  0.91188000000E+02  0.91188000000E+02 0.  0.
    9900012    2    3    3    0    0  0.25742654087E+01  0.28125985280E+02 -0.23623779422E+02  0.54367070564E+02  0.39999968964E+02 0.  0.
         12    1    3    3    0    0 -0.25742654087E+01 -0.28125985280E+02  0.23623779422E+02  0.36820929436E+02  0.00000000000E+00 0. -1.
         11    1    4    4    0    0 -0.12399626425E+02  0.60910797896E+01 -0.38982431199E+01  0.14354382194E+02  0.51100000000E-03 0. -1.
        -11    1    4    4    0    0 -0.19160302729E+01  0.27808028650E+01  0.39063228910E+01  0.51636610434E+01  0.51100000000E-03 0.  1.
        -12    1    4    4    0    0  0.16889922107E+02  0.19254102626E+02 -0.23631859193E+02  0.34849027326E+02  0.00000000000E+00 0.  1.
</event>
<event>
 8    1  0.2432279E-006  0.9118800E+02  0.7816164E-02  0.1184000E+00
        -11   -1    0    0    0    0  0.00000000000E+00  0.00000000000E+00  0.45593999997E+02  0.45594000000E+02  0.51100000000E-03 0.  1.
         11   -1    0    0    0    0 -0.00000000000E+00 -0.00000000000E+00 -0.45593999997E+02  0.45594000000E+02  0.51100000000E-03 0. -1.
         23    2    1    2    0    0  0.00000000000E+00  0.00000000000E+00  0.00000000000E+00  0.91188000000E+02  0.91188000000E+02 0.  0.
    9900012    2    3    3    0    0  0.21403218044E+02  0.10048273275E+02 -0.28226126423E+02  0.54367085409E+02  0.40000002808E+02 0.  0.
        -12    1    3    3    0    0 -0.21403218044E+02 -0.10048273275E+02  0.28226126423E+02  0.36820914591E+02  0.00000000000E+00 0.  1.
         11    1    4    4    0    0  0.85475485718E+01 -0.86633437433E+01 -0.77922716731E+01  0.14451076413E+02  0.51100000000E-03 0. -1.
        -11    1    4    4    0    0  0.94320405751E+01  0.70418490269E+01  0.41561265882E+01  0.12482965017E+02  0.51100000000E-03 0.  1.
         12    1    4    4    0    0  0.34236288967E+01  0.11669767992E+02 -0.24589981338E+02  0.27433043980E+02  0.00000000000E+00 0. -1.
</event>
<event>
 8    1  0.2432279E-006  0.9118800E+02  0.7816164E-02  0.1184000E+00
        -11   -1    0    0    0    0  0.00000000000E+00  0.00000000000E+00  0.45593999997E+02  0.45594000000E+02  0.51100000000E-03 0.  1.
         11   -1    0    0    0    0 -0.00000000000E+00 -0.00000000000E+00 -0.45593999997E+02  0.45594000000E+02  0.51100000000E-03 0. -1.
         23    2    1    2    0    0 -0.35527136788E-14 -0.88817841970E-15  0.35527136788E-14  0.91188000000E+02  0.91188000000E+02 0.  0.
    9900012    2    3    3    0    0 -0.29639376412E+02 -0.10499688530E+01 -0.21821671552E+02  0.54367076356E+02  0.39999982168E+02 0.  0.
        -12    1    3    3    0    0  0.29639376412E+02  0.10499688530E+01  0.21821671552E+02  0.36820923644E+02  0.00000000000E+00 0.  1.
         11    1    4    4    0    0 -0.13851121252E+02 -0.16190305205E+01 -0.25551435104E+02  0.29109288138E+02  0.51100000000E-03 0. -1.
        -11    1    4    4    0    0 -0.10293587001E+02  0.91131801085E+01  0.57472600686E+01  0.14900972572E+02  0.51100000000E-03 0.  1.
        -12    1    4    4    0    0 -0.54946681584E+01 -0.85441184409E+01 -0.20174965164E+01  0.10356815645E+02  0.00000000000E+00 0.  1.
</event>
<event>
 8    1  0.2432279E-006  0.9118800E+02  0.7816164E-02  0.1184000E+00
        -11   -1    0    0    0    0  0.00000000000E+00  0.00000000000E+00  0.45593999997E+02  0.45594000000E+02  0.51100000000E-03 0.  1.
         11   -1    0    0    0    0 -0.00000000000E+00 -0.00000000000E+00 -0.45593999997E+02  0.45594000000E+02  0.51100000000E-03 0. -1.
         23    2    1    2    0    0  0.00000000000E+00  0.00000000000E+00 -0.17763568394E-14  0.91188000000E+02  0.91188000000E+02 0.  0.
    9900012    2    3    3    0    0 -0.22568781670E+02 -0.28622869823E+02  0.52115195528E+01  0.54367102143E+02  0.40000040955E+02 0.  0.
         12    1    3    3    0    0  0.22568781670E+02  0.28622869823E+02 -0.52115195528E+01  0.36820897857E+02  0.00000000000E+00 0. -1.
         11    1    4    4    0    0  0.63684782861E+01 -0.44240183923E+00 -0.87736014568E+00  0.64438339639E+01  0.51100000000E-03 0. -1.
        -11    1    4    4    0    0 -0.90944075195E+01 -0.10660072564E+02  0.14484403873E+02  0.20152998561E+02  0.51100000000E-03 0.  1.
        -12    1    4    4    0    0 -0.19842852437E+02 -0.17520395419E+02 -0.83955241746E+01  0.27770269618E+02  0.00000000000E+00 0.  1.
</event>
<event>
 8    1  0.2432279E-006  0.9118800E+02  0.7816164E-02  0.1184000E+00
        -11   -1    0    0    0    0  0.00000000000E+00  0.00000000000E+00  0.45593999997E+02  0.45594000000E+02  0.51100000000E-03 0.  1.
         11   -1    0    0    0    0 -0.00000000000E+00 -0.00000000000E+00 -0.45593999997E+02  0.45594000000E+02  0.51100000000E-03 0. -1.
         23    2    1    2    0    0 -0.88817841970E-15  0.00000000000E+00  0.35527136788E-14  0.91188000000E+02  0.91188000000E+02 0.  0.
    9900012    2    3    3    0    0 -0.39676093281E+01  0.18054844855E+02 -0.31844331544E+02  0.54367071196E+02  0.39999970405E+02 0.  0.
        -12    1    3    3    0    0  0.39676093281E+01 -0.18054844855E+02  0.31844331544E+02  0.36820928804E+02  0.00000000000E+00 0.  1.
         11    1    4    4    0    0 -0.10720267749E+02  0.22902870694E+02 -0.14307652065E+02  0.29054681801E+02  0.51100000000E-03 0. -1.
        -11    1    4    4    0    0  0.91046031609E+01  0.33650756649E+01 -0.90805954278E+01  0.13291905301E+02  0.51100000000E-03 0.  1.
         12    1    4    4    0    0 -0.23519447396E+01 -0.82131015041E+01 -0.84560840510E+01  0.12020484094E+02  0.00000000000E+00 0. -1.
</event>
<event>
 8    1  0.2432279E-006  0.9118800E+02  0.7816164E-02  0.1184000E+00
        -11   -1    0    0    0    0  0.00000000000E+00  0.00000000000E+00  0.45593999997E+02  0.45594000000E+02  0.51100000000E-03 0.  1.
         11   -1    0    0    0    0 -0.00000000000E+00 -0.00000000000E+00 -0.45593999997E+02  0.45594000000E+02  0.51100000000E-03 0. -1.
         23    2    1    2    0    0 -0.88817841970E-15 -0.26645352591E-14  0.00000000000E+00  0.91188000000E+02  0.91188000000E+02 0.  0.
    9900012    2    3    3    0    0  0.75909107080E+01  0.56710098988E+01  0.35580864528E+02  0.54367079327E+02  0.39999988942E+02 0.  0.
         12    1    3    3    0    0 -0.75909107080E+01 -0.56710098988E+01 -0.35580864528E+02  0.36820920673E+02  0.00000000000E+00 0. -1.
         11    1    4    4    0    0  0.49366850633E+01 -0.41663313766E+01 -0.34115716610E+01  0.73053403763E+01  0.51100000000E-03 0. -1.
        -11    1    4    4    0    0 -0.13493707519E+01  0.17283617884E+02  0.21381210430E+02  0.27526358428E+02  0.51100000000E-03 0.  1.
        -12    1    4    4    0    0  0.40035963965E+01 -0.74462766087E+01  0.17611225759E+02  0.19535380522E+02  0.00000000000E+00 0.  1.
</event>
<event>
 8    1  0.2432279E-006  0.9118800E+02  0.7816164E-02  0.1184000E+00
        -11   -1    0    0    0    0  0.00000000000E+00  0.00000000000E+00  0.45593999997E+02  0.45594000000E+02  0.51100000000E-03 0.  1.
         11   -1    0    0    0    0 -0.00000000000E+00 -0.00000000000E+00 -0.45593999997E+02  0.45594000000E+02  0.51100000000E-03 0. -1.
         23    2    1    2    0    0 -0.35527136788E-14 -0.35527136788E-14  0.00000000000E+00  0.91188000000E+02  0.91188000000E+02 0.  0.
    9900012    2    3    3    0    0 -0.28296237640E+02  0.21339594277E+02  0.99861421013E+01  0.54367103995E+02  0.40000045178E+02 0.  0.
         12    1    3    3    0    0  0.28296237640E+02 -0.21339594277E+02 -0.99861421013E+01  0.36820896005E+02  0.00000000000E+00 0. -1.
         11    1    4    4    0    0  0.65300772818E+01  0.13762959814E+02  0.36369553726E+01  0.15661686269E+02  0.51100000000E-03 0. -1.
        -11    1    4    4    0    0 -0.18193395100E+02  0.10205103248E+02  0.65520099872E+01  0.21864871202E+02  0.51100000000E-03 0.  1.
         12    1    4    4    0    0 -0.16632919822E+02 -0.26284687840E+01 -0.20282325849E+00  0.16840546524E+02  0.00000000000E+00 0. -1.
</event>
<event>
 8    1  0.2432279E-006  0.9118800E+02  0.7816164E-02  0.1184000E+00
        -11   -1    0    0    0    0  0.00000000000E+00  0.00000000000E+00  0.45593999997E+02  0.45594000000E+02  0.51100000000E-03 0. -1.
         11   -1    0    0    0    0 -0.00000000000E+00 -0.00000000000E+00 -0.45593999997E+02  0.45594000000E+02  0.51100000000E-03 0.  1.
         23    2    1    2    0    0  0.00000000000E+00  0.35527136788E-14  0.00000000000E+00  0.91188000000E+02  0.91188000000E+02 0.  0.
    9900012    2    3    3    0    0 -0.28092033564E+02 -0.23708578080E+02 -0.21262160139E+01  0.54367084492E+02  0.40000000716E+02 0.  0.
         12    1    3    3    0    0  0.28092033564E+02  0.23708578080E+02  0.21262160139E+01  0.36820915508E+02  0.00000000000E+00 0. -1.
         11    1    4    4    0    0 -0.23642111196E+02 -0.42724316349E+01  0.81577956363E+01  0.25372282590E+02  0.51100000000E-03 0. -1.
        -11    1    4    4    0    0  0.84188578458E+00  0.34736415262E+01 -0.17635356101E+01  0.39856009881E+01  0.51100000000E-03 0.  1.
         12    1    4    4    0    0 -0.52918081517E+01 -0.22909787972E+02 -0.85204760401E+01  0.25009200914E+02  0.00000000000E+00 0. -1.
</event>
<event>
 8    1  0.2432279E-006  0.9118800E+02  0.7816164E-02  0.1184000E+00
        -11   -1    0    0    0    0  0.00000000000E+00  0.00000000000E+00  0.45593999997E+02  0.45594000000E+02  0.51100000000E-03 0.  1.
         11   -1    0    0    0    0 -0.00000000000E+00 -0.00000000000E+00 -0.45593999997E+02  0.45594000000E+02  0.51100000000E-03 0. -1.
         23    2    1    2    0    0  0.35527136788E-14 -0.35527136788E-14  0.00000000000E+00  0.91188000000E+02  0.91188000000E+02 0.  0.
    9900012    2    3    3    0    0  0.26648942731E+02 -0.21451586312E+02  0.13617749749E+02  0.54367084583E+02  0.40000000923E+02 0.  0.
         12    1    3    3    0    0 -0.26648942731E+02  0.21451586312E+02 -0.13617749749E+02  0.36820915417E+02  0.00000000000E+00 0. -1.
         11    1    4    4    0    0 -0.19967433080E+01 -0.60556616843E+01  0.10540507127E+00  0.63772355110E+01  0.51100000000E-03 0. -1.
        -11    1    4    4    0    0  0.80692086953E+01  0.44199286702E+01 -0.80292739035E+01  0.12211352836E+02  0.51100000000E-03 0.  1.
        -12    1    4    4    0    0  0.20576477343E+02 -0.19815853298E+02  0.21541618581E+02  0.35778496235E+02  0.00000000000E+00 0.  1.
</event>
<event>
 8    1  0.2432279E-006  0.9118800E+02  0.7816164E-02  0.1184000E+00
        -11   -1    0    0    0    0  0.00000000000E+00  0.00000000000E+00  0.45593999997E+02  0.45594000000E+02  0.51100000000E-03 0. -1.
         11   -1    0    0    0    0 -0.00000000000E+00 -0.00000000000E+00 -0.45593999997E+02  0.45594000000E+02  0.51100000000E-03 0.  1.
         23    2    1    2    0    0  0.17763568394E-14  0.00000000000E+00 -0.88817841970E-15  0.91188000000E+02  0.91188000000E+02 0.  0.
    9900012    2    3    3    0    0 -0.11628351555E+02  0.34137691475E+02  0.74282736036E+01  0.54367084912E+02  0.40000001675E+02 0.  0.
        -12    1    3    3    0    0  0.11628351555E+02 -0.34137691475E+02 -0.74282736036E+01  0.36820915088E+02  0.00000000000E+00 0.  1.
         11    1    4    4    0    0  0.67883443706E+00  0.15761248617E+02 -0.39800508618E+01  0.16270174532E+02  0.51100000000E-03 0. -1.
        -11    1    4    4    0    0 -0.13383119982E+02 -0.25606805462E+01  0.10339946356E+02  0.17104954727E+02  0.51100000000E-03 0.  1.
        -12    1    4    4    0    0  0.10759339895E+01  0.20937123404E+02  0.10683781097E+01  0.20991955654E+02  0.00000000000E+00 0.  1.
</event>
<event>
 8    1  0.2432279E-006  0.9118800E+02  0.7816164E-02  0.1184000E+00
        -11   -1    0    0    0    0  0.00000000000E+00  0.00000000000E+00  0.45593999997E+02  0.45594000000E+02  0.51100000000E-03 0.  1.
         11   -1    0    0    0    0 -0.00000000000E+00 -0.00000000000E+00 -0.45593999997E+02  0.45594000000E+02  0.51100000000E-03 0. -1.
         23    2    1    2    0    0 -0.88817841970E-15  0.00000000000E+00  0.00000000000E+00  0.91188000000E+02  0.91188000000E+02 0.  0.
    9900012    2    3    3    0    0 -0.69532120507E+01 -0.17392295088E+02 -0.31700805304E+02  0.54367080088E+02  0.39999990676E+02 0.  0.
         12    1    3    3    0    0  0.69532120507E+01  0.17392295088E+02  0.31700805304E+02  0.36820919912E+02  0.00000000000E+00 0. -1.
         11    1    4    4    0    0  0.62909726941E+01 -0.22767512702E+01 -0.21434824328E+01  0.70252723068E+01  0.51100000000E-03 0. -1.
        -11    1    4    4    0    0 -0.10332994822E+02 -0.20654376483E+02 -0.72992558592E+01  0.24220924554E+02  0.51100000000E-03 0.  1.
         12    1    4    4    0    0 -0.29111899233E+01  0.55388326655E+01 -0.22258067012E+02  0.23120883227E+02  0.00000000000E+00 0. -1.
</event>
<event>
 8    1  0.2432279E-006  0.9118800E+02  0.7816164E-02  0.1184000E+00
        -11   -1    0    0    0    0  0.00000000000E+00  0.00000000000E+00  0.45593999997E+02  0.45594000000E+02  0.51100000000E-03 0. -1.
         11   -1    0    0    0    0 -0.00000000000E+00 -0.00000000000E+00 -0.45593999997E+02  0.45594000000E+02  0.51100000000E-03 0.  1.
         23    2    1    2    0    0  0.00000000000E+00  0.00000000000E+00  0.00000000000E+00  0.91188000000E+02  0.91188000000E+02 0.  0.
    9900012    2    3    3    0    0 -0.31479575774E+02  0.18963684095E+02 -0.22794758129E+01  0.54367068245E+02  0.39999963677E+02 0.  0.
        -12    1    3    3    0    0  0.31479575774E+02 -0.18963684095E+02  0.22794758129E+01  0.36820931755E+02  0.00000000000E+00 0.  1.
         11    1    4    4    0    0 -0.85277945592E+01 -0.72564670405E+01  0.10257128605E+00  0.11197772773E+02  0.51100000000E-03 0. -1.
        -11    1    4    4    0    0 -0.71082781112E+01  0.25683847024E+02 -0.49642950531E+01  0.27107781932E+02  0.51100000000E-03 0.  1.
        -12    1    4    4    0    0 -0.15843503103E+02  0.53630411208E+00  0.25822479541E+01  0.16061513539E+02  0.00000000000E+00 0.  1.
</event>
<event>
 8    1  0.2432279E-006  0.9118800E+02  0.7816164E-02  0.1184000E+00
        -11   -1    0    0    0    0  0.00000000000E+00  0.00000000000E+00  0.45593999997E+02  0.45594000000E+02  0.51100000000E-03 0.  1.
         11   -1    0    0    0    0 -0.00000000000E+00 -0.00000000000E+00 -0.45593999997E+02  0.45594000000E+02  0.51100000000E-03 0. -1.
         23    2    1    2    0    0  0.00000000000E+00  0.17763568394E-14 -0.71054273576E-14  0.91188000000E+02  0.91188000000E+02 0.  0.
    9900012    2    3    3    0    0  0.10930598181E+02  0.14581961393E+02 -0.31994823926E+02  0.54367077514E+02  0.39999984808E+02 0.  0.
        -12    1    3    3    0    0 -0.10930598181E+02 -0.14581961393E+02  0.31994823926E+02  0.36820922486E+02  0.00000000000E+00 0.  1.
         11    1    4    4    0    0  0.47375399565E+01  0.83404464926E+01  0.15659353347E+01  0.97190270228E+01  0.51100000000E-03 0. -1.
        -11    1    4    4    0    0  0.54179667875E+01  0.58798726367E+01  0.26530604124E+01  0.84241317741E+01  0.51100000000E-03 0.  1.
         12    1    4    4    0    0  0.77509143698E+00  0.36164226387E+00 -0.36213819673E+02  0.36223918717E+02  0.00000000000E+00 0. -1.
</event>
<event>
 8    1  0.2432279E-006  0.9118800E+02  0.7816164E-02  0.1184000E+00
        -11   -1    0    0    0    0  0.00000000000E+00  0.00000000000E+00  0.45593999997E+02  0.45594000000E+02  0.51100000000E-03 0.  1.
         11   -1    0    0    0    0 -0.00000000000E+00 -0.00000000000E+00 -0.45593999997E+02  0.45594000000E+02  0.51100000000E-03 0. -1.
         23    2    1    2    0    0  0.00000000000E+00  0.17763568394E-14  0.35527136788E-14  0.91188000000E+02  0.91188000000E+02 0.  0.
    9900012    2    3    3    0    0 -0.23575884720E+02 -0.12081180597E+02 -0.25573470700E+02  0.54367086533E+02  0.40000005369E+02 0.  0.
        -12    1    3    3    0    0  0.23575884720E+02  0.12081180597E+02  0.25573470700E+02  0.36820913467E+02  0.00000000000E+00 0.  1.
         11    1    4    4    0    0 -0.57672146826E+01  0.72939448681E+01 -0.10170909046E+02  0.13780776031E+02  0.51100000000E-03 0. -1.
        -11    1    4    4    0    0 -0.17358767718E+01 -0.87227373984E+01 -0.18993322078E+02  0.20972498652E+02  0.51100000000E-03 0.  1.
        -12    1    4    4    0    0 -0.16072793266E+02 -0.10652388066E+02  0.35907604238E+01  0.19613811850E+02  0.00000000000E+00 0.  1.
</event>
<event>
 8    1  0.2432279E-006  0.9118800E+02  0.7816164E-02  0.1184000E+00
        -11   -1    0    0    0    0  0.00000000000E+00  0.00000000000E+00  0.45593999997E+02  0.45594000000E+02  0.51100000000E-03 0.  1.
         11   -1    0    0    0    0 -0.00000000000E+00 -0.00000000000E+00 -0.45593999997E+02  0.45594000000E+02  0.51100000000E-03 0. -1.
         23    2    1    2    0    0  0.00000000000E+00  0.00000000000E+00  0.88817841970E-15  0.91188000000E+02  0.91188000000E+02 0.  0.
    9900012    2    3    3    0    0  0.32517463672E+02  0.16735140640E+02  0.42813181013E+01  0.54367081209E+02  0.39999993233E+02 0.  0.
        -12    1    3    3    0    0 -0.32517463672E+02 -0.16735140640E+02 -0.42813181013E+01  0.36820918791E+02  0.00000000000E+00 0.  1.
         11    1    4    4    0    0  0.16095119704E+02 -0.50506938144E+01 -0.27476680005E+01  0.17091286259E+02  0.51100000000E-03 0. -1.
        -11    1    4    4    0    0  0.12975812853E+02 -0.14766262402E+01  0.32478394051E+01  0.13457362494E+02  0.51100000000E-03 0.  1.
         12    1    4    4    0    0  0.34465311156E+01  0.23262460695E+02  0.37811466967E+01  0.23818432456E+02  0.00000000000E+00 0. -1.
</event>
<event>
 8    1  0.2432279E-006  0.9118800E+02  0.7816164E-02  0.1184000E+00
        -11   -1    0    0    0    0  0.00000000000E+00  0.00000000000E+00  0.45593999997E+02  0.45594000000E+02  0.51100000000E-03 0. -1.
         11   -1    0    0    0    0 -0.00000000000E+00 -0.00000000000E+00 -0.45593999997E+02  0.45594000000E+02  0.51100000000E-03 0.  1.
         23    2    1    2    0    0  0.00000000000E+00  0.00000000000E+00  0.00000000000E+00  0.91188000000E+02  0.91188000000E+02 0.  0.
    9900012    2    3    3    0    0 -0.11692072601E+02 -0.84621238356E+01  0.33874301205E+02  0.54367076822E+02  0.39999983232E+02 0.  0.
        -12    1    3    3    0    0  0.11692072601E+02  0.84621238356E+01 -0.33874301205E+02  0.36820923178E+02  0.00000000000E+00 0.  1.
         11    1    4    4    0    0 -0.46279737178E+01  0.68669647987E+01 -0.86254182376E+00  0.83257026693E+01  0.51100000000E-03 0. -1.
        -11    1    4    4    0    0 -0.16049275861E+02 -0.79628342559E+01  0.25668351358E+02  0.31302559747E+02  0.51100000000E-03 0.  1.
        -12    1    4    4    0    0  0.89851769779E+01 -0.73662543784E+01  0.90684916714E+01  0.14738814406E+02  0.00000000000E+00 0.  1.
</event>
<event>
 8    1  0.2432279E-006  0.9118800E+02  0.7816164E-02  0.1184000E+00
        -11   -1    0    0    0    0  0.00000000000E+00  0.00000000000E+00  0.45593999997E+02  0.45594000000E+02  0.51100000000E-03 0.  1.
         11   -1    0    0    0    0 -0.00000000000E+00 -0.00000000000E+00 -0.45593999997E+02  0.45594000000E+02  0.51100000000E-03 0. -1.
         23    2    1    2    0    0  0.17763568394E-14  0.00000000000E+00  0.00000000000E+00  0.91188000000E+02  0.91188000000E+02 0.  0.
    9900012    2    3    3    0    0 -0.13504239704E+02 -0.28277498820E+02  0.19333841950E+02  0.54367097321E+02  0.40000029964E+02 0.  0.
         12    1    3    3    0    0  0.13504239704E+02  0.28277498820E+02 -0.19333841950E+02  0.36820902679E+02  0.00000000000E+00 0. -1.
         11    1    4    4    0    0 -0.30201141243E+01  0.74275915517E-02 -0.24350991614E+01  0.38795428442E+01  0.51100000000E-03 0. -1.
        -11    1    4    4    0    0  0.56492910040E+01 -0.12244440725E+02  0.24101878796E+02  0.27617772888E+02  0.51100000000E-03 0.  1.
        -12    1    4    4    0    0 -0.16133416584E+02 -0.16040485687E+02 -0.23329376845E+01  0.22869781590E+02  0.00000000000E+00 0.  1.
</event>
<event>
 8    1  0.2432279E-006  0.9118800E+02  0.7816164E-02  0.1184000E+00
        -11   -1    0    0    0    0  0.00000000000E+00  0.00000000000E+00  0.45593999997E+02  0.45594000000E+02  0.51100000000E-03 0. -1.
         11   -1    0    0    0    0 -0.00000000000E+00 -0.00000000000E+00 -0.45593999997E+02  0.45594000000E+02  0.51100000000E-03 0.  1.
         23    2    1    2    0    0  0.00000000000E+00  0.00000000000E+00  0.00000000000E+00  0.91188000000E+02  0.91188000000E+02 0.  0.
    9900012    2    3    3    0    0  0.12920029759E+02  0.12018556021E+02 -0.32317278750E+02  0.54367090674E+02  0.40000014810E+02 0.  0.
         12    1    3    3    0    0 -0.12920029759E+02 -0.12018556021E+02  0.32317278750E+02  0.36820909326E+02  0.00000000000E+00 0. -1.
         11    1    4    4    0    0  0.69508231010E+01  0.18925337187E+02 -0.17591130359E+02  0.26756871958E+02  0.51100000000E-03 0. -1.
        -11    1    4    4    0    0  0.10843013195E+01 -0.41739556400E+01 -0.19673014596E+02  0.20140137005E+02  0.51100000000E-03 0.  1.
         12    1    4    4    0    0  0.48849053381E+01 -0.27328255258E+01  0.49468662055E+01  0.74700817111E+01  0.00000000000E+00 0. -1.
</event>
<event>
 8    1  0.2432279E-006  0.9118800E+02  0.7816164E-02  0.1184000E+00
        -11   -1    0    0    0    0  0.00000000000E+00  0.00000000000E+00  0.45593999997E+02  0.45594000000E+02  0.51100000000E-03 0.  1.
         11   -1    0    0    0    0 -0.00000000000E+00 -0.00000000000E+00 -0.45593999997E+02  0.45594000000E+02  0.51100000000E-03 0. -1.
         23    2    1    2    0    0  0.00000000000E+00 -0.17763568394E-14  0.00000000000E+00  0.91188000000E+02  0.91188000000E+02 0.  0.
    9900012    2    3    3    0    0 -0.35935168675E+02  0.47682289212E+01 -0.64571694518E+01  0.54367253238E+02  0.40000385405E+02 0.  0.
        -12    1    3    3    0    0  0.35935168675E+02 -0.47682289212E+01  0.64571694518E+01  0.36820746762E+02  0.00000000000E+00 0.  1.
         11    1    4    4    0    0 -0.17801798943E+02 -0.10682930498E+02 -0.34012330799E+01  0.21037999818E+02  0.51100000000E-03 0. -1.
        -11    1    4    4    0    0  0.13156592632E-01 -0.54647763991E+01 -0.10608785205E+01  0.55668139617E+01  0.51100000000E-03 0.  1.
         12    1    4    4    0    0 -0.18146526325E+02  0.20915935818E+02 -0.19950578514E+01  0.27762439458E+02  0.00000000000E+00 0. -1.
</event>
<event>
 8    1  0.2432279E-006  0.9118800E+02  0.7816164E-02  0.1184000E+00
        -11   -1    0    0    0    0  0.00000000000E+00  0.00000000000E+00  0.45593999997E+02  0.45594000000E+02  0.51100000000E-03 0. -1.
         11   -1    0    0    0    0 -0.00000000000E+00 -0.00000000000E+00 -0.45593999997E+02  0.45594000000E+02  0.51100000000E-03 0.  1.
         23    2    1    2    0    0  0.17763568394E-14  0.00000000000E+00  0.00000000000E+00  0.91188000000E+02  0.91188000000E+02 0.  0.
    9900012    2    3    3    0    0 -0.14523689662E+02 -0.15299275473E+02  0.30179023432E+02  0.54367097693E+02  0.40000030810E+02 0.  0.
        -12    1    3    3    0    0  0.14523689662E+02  0.15299275473E+02 -0.30179023432E+02  0.36820902307E+02  0.00000000000E+00 0.  1.
         11    1    4    4    0    0  0.85714448137E+01 -0.64979468810E+01 -0.44274035352E+00  0.10765175296E+02  0.51100000000E-03 0. -1.
        -11    1    4    4    0    0 -0.58690955706E+01 -0.19285915354E+01 -0.16376014135E+01  0.63912038598E+01  0.51100000000E-03 0.  1.
         12    1    4    4    0    0 -0.17226038905E+02 -0.68727370571E+01  0.32259365199E+02  0.37210718537E+02  0.00000000000E+00 0. -1.
</event>
<event>
 8    1  0.2432279E-006  0.9118800E+02  0.7816164E-02  0.1184000E+00
        -11   -1    0    0    0    0  0.00000000000E+00  0.00000000000E+00  0.45593999997E+02  0.45594000000E+02  0.51100000000E-03 0. -1.
         11   -1    0    0    0    0 -0.00000000000E+00 -0.00000000000E+00 -0.45593999997E+02  0.45594000000E+02  0.51100000000E-03 0.  1.
         23    2    1    2    0    0  0.00000000000E+00 -0.33306690739E-15 -0.71054273576E-14  0.91188000000E+02  0.91188000000E+02 0.  0.
    9900012    2    3    3    0    0  0.15975676963E+02  0.67442516524E+00 -0.33167725717E+02  0.54367148123E+02  0.40000145775E+02 0.  0.
         12    1    3    3    0    0 -0.15975676963E+02 -0.67442516524E+00  0.33167725717E+02  0.36820851877E+02  0.00000000000E+00 0. -1.
         11    1    4    4    0    0 -0.51596723635E+01 -0.99195131686E+00 -0.30463366921E+01  0.60734136873E+01  0.51100000000E-03 0. -1.
        -11    1    4    4    0    0  0.23387806962E+02 -0.97105927603E+01 -0.15732525995E+02  0.29812707034E+02  0.51100000000E-03 0.  1.
        -12    1    4    4    0    0 -0.22524576352E+01  0.11376969242E+02 -0.14388863030E+02  0.18481027402E+02  0.00000000000E+00 0.  1.
</event>
<event>
 8    1  0.2432279E-006  0.9118800E+02  0.7816164E-02  0.1184000E+00
        -11   -1    0    0    0    0  0.00000000000E+00  0.00000000000E+00  0.45593999997E+02  0.45594000000E+02  0.51100000000E-03 0.  1.
         11   -1    0    0    0    0 -0.00000000000E+00 -0.00000000000E+00 -0.45593999997E+02  0.45594000000E+02  0.51100000000E-03 0. -1.
         23    2    1    2    0    0  0.17763568394E-14 -0.17763568394E-14  0.35527136788E-14  0.91188000000E+02  0.91188000000E+02 0.  0.
    9900012    2    3    3    0    0  0.15432728630E+02  0.11681965332E+02 -0.31323179915E+02  0.54367095245E+02  0.40000025230E+02 0.  0.
        -12    1    3    3    0    0 -0.15432728630E+02 -0.11681965332E+02  0.31323179915E+02  0.36820904755E+02  0.00000000000E+00 0.  1.
         11    1    4    4    0    0  0.62061218695E+01  0.61439419547E+01 -0.60384628648E+01  0.10617297464E+02  0.51100000000E-03 0. -1.
        -11    1    4    4    0    0  0.16911364392E+02 -0.88757205490E+01 -0.10937116505E+02  0.22008934063E+02  0.51100000000E-03 0.  1.
         12    1    4    4    0    0 -0.76847576313E+01  0.14413743927E+02 -0.14347600545E+02  0.21740863718E+02  0.00000000000E+00 0. -1.
</event>
<event>
 8    1  0.2432279E-006  0.9118800E+02  0.7816164E-02  0.1184000E+00
        -11   -1    0    0    0    0  0.00000000000E+00  0.00000000000E+00  0.45593999997E+02  0.45594000000E+02  0.51100000000E-03 0. -1.
         11   -1    0    0    0    0 -0.00000000000E+00 -0.00000000000E+00 -0.45593999997E+02  0.45594000000E+02  0.51100000000E-03 0.  1.
         23    2    1    2    0    0  0.44408920985E-15  0.00000000000E+00  0.00000000000E+00  0.91188000000E+02  0.91188000000E+02 0.  0.
    9900012    2    3    3    0    0  0.39917950916E+01 -0.30161591729E+02  0.20739432826E+02  0.54367080435E+02  0.39999991468E+02 0.  0.
        -12    1    3    3    0    0 -0.39917950916E+01  0.30161591729E+02 -0.20739432826E+02  0.36820919565E+02  0.00000000000E+00 0.  1.
         11    1    4    4    0    0 -0.81533624378E+01 -0.64056844969E+01  0.11765003696E+02  0.15682009601E+02  0.51100000000E-03 0. -1.
        -11    1    4    4    0    0 -0.44676597142E+01 -0.13999874484E+02  0.12263987467E+02  0.19140581437E+02  0.51100000000E-03 0.  1.
        -12    1    4    4    0    0  0.16612817244E+02 -0.97560327476E+01 -0.32895583367E+01  0.19544489397E+02  0.00000000000E+00 0.  1.
</event>
<event>
 8    1  0.2432279E-006  0.9118800E+02  0.7816164E-02  0.1184000E+00
        -11   -1    0    0    0    0  0.00000000000E+00  0.00000000000E+00  0.45593999997E+02  0.45594000000E+02  0.51100000000E-03 0. -1.
         11   -1    0    0    0    0 -0.00000000000E+00 -0.00000000000E+00 -0.45593999997E+02  0.45594000000E+02  0.51100000000E-03 0.  1.
         23    2    1    2    0    0  0.00000000000E+00 -0.13322676296E-14  0.00000000000E+00  0.91188000000E+02  0.91188000000E+02 0.  0.
    9900012    2    3    3    0    0  0.17335688686E+02 -0.37623335031E+01 -0.32266035852E+02  0.54367104774E+02  0.40000046954E+02 0.  0.
         12    1    3    3    0    0 -0.17335688686E+02  0.37623335031E+01  0.32266035852E+02  0.36820895226E+02  0.00000000000E+00 0. -1.
         11    1    4    4    0    0 -0.13175457728E+01 -0.83477992996E+01 -0.18066928927E+01  0.86420957805E+01  0.51100000000E-03 0. -1.
        -11    1    4    4    0    0  0.16172996859E+02 -0.77160577297E+00 -0.34810193062E+02  0.38391545217E+02  0.51100000000E-03 0.  1.
        -12    1    4    4    0    0  0.24802375994E+01  0.53570715695E+01  0.43508501026E+01  0.73334637768E+01  0.00000000000E+00 0.  1.
</event>
<event>
 8    1  0.2432279E-006  0.9118800E+02  0.7816164E-02  0.1184000E+00
        -11   -1    0    0    0    0  0.00000000000E+00  0.00000000000E+00  0.45593999997E+02  0.45594000000E+02  0.51100000000E-03 0. -1.
         11   -1    0    0    0    0 -0.00000000000E+00 -0.00000000000E+00 -0.45593999997E+02  0.45594000000E+02  0.51100000000E-03 0.  1.
         23    2    1    2    0    0 -0.17763568394E-14  0.00000000000E+00  0.17763568394E-14  0.91188000000E+02  0.91188000000E+02 0.  0.
    9900012    2    3    3    0    0  0.13155951096E+02 -0.32025146677E+02  0.12533544200E+02  0.54367098339E+02  0.40000032283E+02 0.  0.
         12    1    3    3    0    0 -0.13155951096E+02  0.32025146677E+02 -0.12533544200E+02  0.36820901661E+02  0.00000000000E+00 0. -1.
         11    1    4    4    0    0  0.13922181694E+02 -0.10775635714E+02  0.12265423411E+02  0.21456516023E+02  0.51100000000E-03 0. -1.
        -11    1    4    4    0    0  0.95512101155E+01 -0.73881861704E+01 -0.72300184292E+01  0.14074234484E+02  0.51100000000E-03 0.  1.
        -12    1    4    4    0    0 -0.10317440714E+02 -0.13861324793E+02  0.74981392187E+01  0.18836347832E+02  0.00000000000E+00 0.  1.
</event>
<event>
 8    1  0.2432279E-006  0.9118800E+02  0.7816164E-02  0.1184000E+00
        -11   -1    0    0    0    0  0.00000000000E+00  0.00000000000E+00  0.45593999997E+02  0.45594000000E+02  0.51100000000E-03 0.  1.
         11   -1    0    0    0    0 -0.00000000000E+00 -0.00000000000E+00 -0.45593999997E+02  0.45594000000E+02  0.51100000000E-03 0. -1.
         23    2    1    2    0    0  0.35527136788E-14  0.35527136788E-14  0.00000000000E+00  0.91188000000E+02  0.91188000000E+02 0.  0.
    9900012    2    3    3    0    0 -0.90150364709E+01 -0.24536401100E+02  0.25932124268E+02  0.54367069396E+02  0.39999966302E+02 0.  0.
         12    1    3    3    0    0  0.90150364709E+01  0.24536401100E+02 -0.25932124268E+02  0.36820930604E+02  0.00000000000E+00 0. -1.
         11    1    4    4    0    0  0.12069035285E+01  0.27690995770E+01 -0.17461034183E+01  0.34890408428E+01  0.51100000000E-03 0. -1.
        -11    1    4    4    0    0  0.10232274038E+02 -0.30152027119E+01  0.95210721057E+01  0.14298310869E+02  0.51100000000E-03 0.  1.
        -12    1    4    4    0    0 -0.20454214038E+02 -0.24290297965E+02  0.18157155580E+02  0.36579717685E+02  0.00000000000E+00 0.  1.
</event>
<event>
 8    1  0.2432279E-006  0.9118800E+02  0.7816164E-02  0.1184000E+00
        -11   -1    0    0    0    0  0.00000000000E+00  0.00000000000E+00  0.45593999997E+02  0.45594000000E+02  0.51100000000E-03 0.  1.
         11   -1    0    0    0    0 -0.00000000000E+00 -0.00000000000E+00 -0.45593999997E+02  0.45594000000E+02  0.51100000000E-03 0. -1.
         23    2    1    2    0    0  0.35527136788E-14  0.00000000000E+00 -0.35527136788E-14  0.91188000000E+02  0.91188000000E+02 0.  0.
    9900012    2    3    3    0    0 -0.29689731342E+02  0.67881422624E+01 -0.20693500709E+02  0.54367082112E+02  0.39999995291E+02 0.  0.
        -12    1    3    3    0    0  0.29689731342E+02 -0.67881422624E+01  0.20693500709E+02  0.36820917888E+02  0.00000000000E+00 0.  1.
         11    1    4    4    0    0  0.29260573326E+01 -0.12267532531E+01 -0.16523912612E+02  0.16825766649E+02  0.51100000000E-03 0. -1.
        -11    1    4    4    0    0 -0.24050699996E+01  0.29803357245E+01 -0.57098584983E+01  0.68752634179E+01  0.51100000000E-03 0.  1.
         12    1    4    4    0    0 -0.30210718675E+02  0.50345597910E+01  0.15402704010E+01  0.30666052045E+02  0.00000000000E+00 0. -1.
</event>
<event>
 8    1  0.2432279E-006  0.9118800E+02  0.7816164E-02  0.1184000E+00
        -11   -1    0    0    0    0  0.00000000000E+00  0.00000000000E+00  0.45593999997E+02  0.45594000000E+02  0.51100000000E-03 0.  1.
         11   -1    0    0    0    0 -0.00000000000E+00 -0.00000000000E+00 -0.45593999997E+02  0.45594000000E+02  0.51100000000E-03 0. -1.
         23    2    1    2    0    0  0.00000000000E+00  0.00000000000E+00  0.00000000000E+00  0.91188000000E+02  0.91188000000E+02 0.  0.
    9900012    2    3    3    0    0 -0.30057051300E+02  0.18128633042E+02 -0.11122344602E+02  0.54367079068E+02  0.39999988352E+02 0.  0.
        -12    1    3    3    0    0  0.30057051300E+02 -0.18128633042E+02  0.11122344602E+02  0.36820920932E+02  0.00000000000E+00 0.  1.
         11    1    4    4    0    0 -0.18175568822E+02  0.69009424083E+01  0.51060566673E+01  0.20100898564E+02  0.51100000000E-03 0. -1.
        -11    1    4    4    0    0  0.28118130922E+01  0.33271377060E+01  0.54084937427E+01  0.69446341161E+01  0.51100000000E-03 0.  1.
        -12    1    4    4    0    0 -0.14693295570E+02  0.79005529281E+01 -0.21636895012E+02  0.27321546388E+02  0.00000000000E+00 0.  1.
</event>
<event>
 8    1  0.2432279E-006  0.9118800E+02  0.7816164E-02  0.1184000E+00
        -11   -1    0    0    0    0  0.00000000000E+00  0.00000000000E+00  0.45593999997E+02  0.45594000000E+02  0.51100000000E-03 0.  1.
         11   -1    0    0    0    0 -0.00000000000E+00 -0.00000000000E+00 -0.45593999997E+02  0.45594000000E+02  0.51100000000E-03 0. -1.
         23    2    1    2    0    0  0.19984014443E-14  0.00000000000E+00  0.00000000000E+00  0.91188000000E+02  0.91188000000E+02 0.  0.
    9900012    2    3    3    0    0  0.15093600974E+01 -0.17042444566E+01  0.36750523450E+02  0.54367033270E+02  0.39999883945E+02 0.  0.
         12    1    3    3    0    0 -0.15093600974E+01  0.17042444566E+01 -0.36750523450E+02  0.36820966730E+02  0.00000000000E+00 0. -1.
         11    1    4    4    0    0 -0.18026889990E+01  0.45760664820E+01  0.10619445395E+02  0.11703106119E+02  0.51100000000E-03 0. -1.
        -11    1    4    4    0    0 -0.12732177137E+02 -0.50775378012E+01  0.22217268029E+02  0.26105492213E+02  0.51100000000E-03 0.  1.
         12    1    4    4    0    0  0.16044226234E+02 -0.12027731374E+01  0.39138100264E+01  0.16558434937E+02  0.00000000000E+00 0. -1.
</event>
<event>
 8    1  0.2432279E-006  0.9118800E+02  0.7816164E-02  0.1184000E+00
        -11   -1    0    0    0    0  0.00000000000E+00  0.00000000000E+00  0.45593999997E+02  0.45594000000E+02  0.51100000000E-03 0.  1.
         11   -1    0    0    0    0 -0.00000000000E+00 -0.00000000000E+00 -0.45593999997E+02  0.45594000000E+02  0.51100000000E-03 0. -1.
         23    2    1    2    0    0 -0.71054273576E-14  0.00000000000E+00 -0.77715611724E-15  0.91188000000E+02  0.91188000000E+02 0.  0.
    9900012    2    3    3    0    0 -0.32109190360E+02  0.18002006198E+02  0.83844179270E+00  0.54367145619E+02  0.40000140066E+02 0.  0.
         12    1    3    3    0    0  0.32109190360E+02 -0.18002006198E+02 -0.83844179270E+00  0.36820854381E+02  0.00000000000E+00 0. -1.
         11    1    4    4    0    0 -0.23674140270E+02  0.11425158914E+02  0.11853331834E+02  0.28835752974E+02  0.51100000000E-03 0. -1.
        -11    1    4    4    0    0 -0.11741279622E+02  0.11756085689E+02 -0.62346406020E+01  0.17746378267E+02  0.51100000000E-03 0.  1.
         12    1    4    4    0    0  0.33062295321E+01 -0.51792384044E+01 -0.47802494390E+01  0.77850143781E+01  0.00000000000E+00 0. -1.
</event>
<event>
 8    1  0.2432279E-006  0.9118800E+02  0.7816164E-02  0.1184000E+00
        -11   -1    0    0    0    0  0.00000000000E+00  0.00000000000E+00  0.45593999997E+02  0.45594000000E+02  0.51100000000E-03 0.  1.
         11   -1    0    0    0    0 -0.00000000000E+00 -0.00000000000E+00 -0.45593999997E+02  0.45594000000E+02  0.51100000000E-03 0. -1.
         23    2    1    2    0    0  0.00000000000E+00 -0.17763568394E-14 -0.35527136788E-14  0.91188000000E+02  0.91188000000E+02 0.  0.
    9900012    2    3    3    0    0 -0.17498227669E+02  0.99304749353E+01 -0.30837918904E+02  0.54367088193E+02  0.40000009153E+02 0.  0.
        -12    1    3    3    0    0  0.17498227669E+02 -0.99304749353E+01  0.30837918904E+02  0.36820911807E+02  0.00000000000E+00 0.  1.
         11    1    4    4    0    0 -0.12727313245E+02  0.16879611622E+02 -0.27445180168E+02  0.34643090302E+02  0.51100000000E-03 0. -1.
        -11    1    4    4    0    0 -0.10899491514E+02 -0.75554331752E+01 -0.26019355250E+01  0.13514938197E+02  0.51100000000E-03 0.  1.
         12    1    4    4    0    0  0.61285770893E+01  0.60629648847E+00 -0.79080321049E+00  0.62090596944E+01  0.00000000000E+00 0. -1.
</event>
<event>
 8    1  0.2432279E-006  0.9118800E+02  0.7816164E-02  0.1184000E+00
        -11   -1    0    0    0    0  0.00000000000E+00  0.00000000000E+00  0.45593999997E+02  0.45594000000E+02  0.51100000000E-03 0. -1.
         11   -1    0    0    0    0 -0.00000000000E+00 -0.00000000000E+00 -0.45593999997E+02  0.45594000000E+02  0.51100000000E-03 0.  1.
         23    2    1    2    0    0  0.00000000000E+00  0.00000000000E+00  0.88817841970E-15  0.91188000000E+02  0.91188000000E+02 0.  0.
    9900012    2    3    3    0    0  0.30957030555E+02  0.18839209271E+02 -0.65212551535E+01  0.54367077748E+02  0.39999985342E+02 0.  0.
         12    1    3    3    0    0 -0.30957030555E+02 -0.18839209271E+02  0.65212551535E+01  0.36820922252E+02  0.00000000000E+00 0. -1.
         11    1    4    4    0    0  0.48071200825E+01  0.14402084602E+02  0.80506910438E+01  0.17185519221E+02  0.51100000000E-03 0. -1.
        -11    1    4    4    0    0  0.15142052203E+02  0.12990337845E+02 -0.11036883635E+02  0.22800075063E+02  0.51100000000E-03 0.  1.
         12    1    4    4    0    0  0.11007858269E+02 -0.85532131755E+01 -0.35350625627E+01  0.14381483464E+02  0.00000000000E+00 0. -1.
</event>
<event>
 8    1  0.2432279E-006  0.9118800E+02  0.7816164E-02  0.1184000E+00
        -11   -1    0    0    0    0  0.00000000000E+00  0.00000000000E+00  0.45593999997E+02  0.45594000000E+02  0.51100000000E-03 0. -1.
         11   -1    0    0    0    0 -0.00000000000E+00 -0.00000000000E+00 -0.45593999997E+02  0.45594000000E+02  0.51100000000E-03 0.  1.
         23    2    1    2    0    0  0.00000000000E+00  0.00000000000E+00  0.00000000000E+00  0.91188000000E+02  0.91188000000E+02 0.  0.
    9900012    2    3    3    0    0  0.30344674829E+02 -0.80442995909E+01 -0.19242490607E+02  0.54367034625E+02  0.39999887035E+02 0.  0.
         12    1    3    3    0    0 -0.30344674829E+02  0.80442995909E+01  0.19242490607E+02  0.36820965375E+02  0.00000000000E+00 0. -1.
         11    1    4    4    0    0  0.18402037910E+02 -0.18480104621E+01 -0.35421784372E+01  0.18830750655E+02  0.51100000000E-03 0. -1.
        -11    1    4    4    0    0 -0.32697786057E+01  0.42881429565E+01 -0.16179665265E+02  0.17054653045E+02  0.51100000000E-03 0.  1.
        -12    1    4    4    0    0  0.15212415525E+02 -0.10484432085E+02  0.47935309564E+00  0.18481630925E+02  0.00000000000E+00 0.  1.
</event>
<event>
 8    1  0.2432279E-006  0.9118800E+02  0.7816164E-02  0.1184000E+00
        -11   -1    0    0    0    0  0.00000000000E+00  0.00000000000E+00  0.45593999997E+02  0.45594000000E+02  0.51100000000E-03 0.  1.
         11   -1    0    0    0    0 -0.00000000000E+00 -0.00000000000E+00 -0.45593999997E+02  0.45594000000E+02  0.51100000000E-03 0. -1.
         23    2    1    2    0    0  0.00000000000E+00 -0.35527136788E-14  0.17763568394E-14  0.91188000000E+02  0.91188000000E+02 0.  0.
    9900012    2    3    3    0    0 -0.21584850805E+02  0.29077645960E+02 -0.66606914841E+01  0.54367080811E+02  0.39999992325E+02 0.  0.
        -12    1    3    3    0    0  0.21584850805E+02 -0.29077645960E+02  0.66606914841E+01  0.36820919189E+02  0.00000000000E+00 0.  1.
         11    1    4    4    0    0 -0.21591803743E+02  0.23036802857E+02 -0.15169268203E+02  0.35028659307E+02  0.51100000000E-03 0. -1.
        -11    1    4    4    0    0 -0.45197735478E+01  0.43263160535E+01  0.11888692186E+02  0.13434521416E+02  0.51100000000E-03 0.  1.
         12    1    4    4    0    0  0.45267264856E+01  0.17145270497E+01 -0.33801154676E+01  0.59039000884E+01  0.00000000000E+00 0. -1.
</event>
<event>
 8    1  0.2432279E-006  0.9118800E+02  0.7816164E-02  0.1184000E+00
        -11   -1    0    0    0    0  0.00000000000E+00  0.00000000000E+00  0.45593999997E+02  0.45594000000E+02  0.51100000000E-03 0. -1.
         11   -1    0    0    0    0 -0.00000000000E+00 -0.00000000000E+00 -0.45593999997E+02  0.45594000000E+02  0.51100000000E-03 0.  1.
         23    2    1    2    0    0  0.00000000000E+00 -0.49960036108E-15 -0.88817841970E-15  0.91188000000E+02  0.91188000000E+02 0.  0.
    9900012    2    3    3    0    0  0.36419799000E+02 -0.45234659002E+00  0.54012891021E+01  0.54367077950E+02  0.39999985802E+02 0.  0.
        -12    1    3    3    0    0 -0.36419799000E+02  0.45234659002E+00 -0.54012891021E+01  0.36820922050E+02  0.00000000000E+00 0.  1.
         11    1    4    4    0    0  0.35553222030E+02 -0.61316922704E+01 -0.89455724301E+01  0.37170586667E+02  0.51100000000E-03 0. -1.
        -11    1    4    4    0    0 -0.27769866176E+01  0.41792701245E+01  0.10741325013E+02  0.11855547931E+02  0.51100000000E-03 0.  1.
        -12    1    4    4    0    0  0.36435635879E+01  0.15000755560E+01  0.36055365197E+01  0.53409433518E+01  0.00000000000E+00 0.  1.
</event>
<event>
 8    1  0.2432279E-006  0.9118800E+02  0.7816164E-02  0.1184000E+00
        -11   -1    0    0    0    0  0.00000000000E+00  0.00000000000E+00  0.45593999997E+02  0.45594000000E+02  0.51100000000E-03 0.  1.
         11   -1    0    0    0    0 -0.00000000000E+00 -0.00000000000E+00 -0.45593999997E+02  0.45594000000E+02  0.51100000000E-03 0. -1.
         23    2    1    2    0    0  0.44408920985E-15  0.00000000000E+00  0.71054273576E-14  0.91188000000E+02  0.91188000000E+02 0.  0.
    9900012    2    3    3    0    0  0.23973283292E+01 -0.84888267240E+01  0.35748952101E+02  0.54366879178E+02  0.39999532660E+02 0.  0.
         12    1    3    3    0    0 -0.23973283292E+01  0.84888267240E+01 -0.35748952101E+02  0.36821120822E+02  0.00000000000E+00 0. -1.
         11    1    4    4    0    0  0.68032772897E+00  0.23028318828E+01 -0.34909303348E+01  0.42370361531E+01  0.51100000000E-03 0. -1.
        -11    1    4    4    0    0 -0.23405185826E+00  0.10035024089E+02  0.99155595990E+01  0.14109387342E+02  0.51100000000E-03 0.  1.
        -12    1    4    4    0    0  0.19510524585E+01 -0.20826682696E+02  0.29324322837E+02  0.36020455683E+02  0.00000000000E+00 0.  1.
</event>
<event>
 8    1  0.2432279E-006  0.9118800E+02  0.7816164E-02  0.1184000E+00
        -11   -1    0    0    0    0  0.00000000000E+00  0.00000000000E+00  0.45593999997E+02  0.45594000000E+02  0.51100000000E-03 0.  1.
         11   -1    0    0    0    0 -0.00000000000E+00 -0.00000000000E+00 -0.45593999997E+02  0.45594000000E+02  0.51100000000E-03 0. -1.
         23    2    1    2    0    0  0.35527136788E-14 -0.71054273576E-14  0.00000000000E+00  0.91188000000E+02  0.91188000000E+02 0.  0.
    9900012    2    3    3    0    0  0.16000949316E+02 -0.32779350001E+02 -0.50262347213E+01  0.54367092883E+02  0.40000019845E+02 0.  0.
         12    1    3    3    0    0 -0.16000949316E+02  0.32779350001E+02  0.50262347213E+01  0.36820907117E+02  0.00000000000E+00 0. -1.
         11    1    4    4    0    0  0.31883514300E+00 -0.12511291182E+02  0.34485033877E+01  0.12981765625E+02  0.51100000000E-03 0. -1.
        -11    1    4    4    0    0  0.11973519659E+02 -0.70609939208E+00  0.89193010911E+01  0.14947162995E+02  0.51100000000E-03 0.  1.
         12    1    4    4    0    0  0.37085945138E+01 -0.19561959427E+02 -0.17394039200E+02  0.26438164263E+02  0.00000000000E+00 0. -1.
</event>
<event>
 8    1  0.2432279E-006  0.9118800E+02  0.7816164E-02  0.1184000E+00
        -11   -1    0    0    0    0  0.00000000000E+00  0.00000000000E+00  0.45593999997E+02  0.45594000000E+02  0.51100000000E-03 0.  1.
         11   -1    0    0    0    0 -0.00000000000E+00 -0.00000000000E+00 -0.45593999997E+02  0.45594000000E+02  0.51100000000E-03 0. -1.
         23    2    1    2    0    0  0.00000000000E+00  0.17763568394E-14  0.00000000000E+00  0.91188000000E+02  0.91188000000E+02 0.  0.
    9900012    2    3    3    0    0  0.84785711730E+01 -0.13541313311E+02  0.33174352375E+02  0.54366932785E+02  0.39999654868E+02 0.  0.
         12    1    3    3    0    0 -0.84785711730E+01  0.13541313311E+02 -0.33174352375E+02  0.36821067215E+02  0.00000000000E+00 0. -1.
         11    1    4    4    0    0 -0.24436396263E+01  0.51325717245E+01 -0.33200822270E+01  0.65831309713E+01  0.51100000000E-03 0. -1.
        -11    1    4    4    0    0  0.16818805007E+02 -0.14915157875E+02  0.33097359258E+02  0.40009615424E+02  0.51100000000E-03 0.  1.
         12    1    4    4    0    0 -0.58965942077E+01 -0.37587271613E+01  0.33970753446E+01  0.77741863895E+01  0.00000000000E+00 0. -1.
</event>
<event>
 8    1  0.2432279E-006  0.9118800E+02  0.7816164E-02  0.1184000E+00
        -11   -1    0    0    0    0  0.00000000000E+00  0.00000000000E+00  0.45593999997E+02  0.45594000000E+02  0.51100000000E-03 0. -1.
         11   -1    0    0    0    0 -0.00000000000E+00 -0.00000000000E+00 -0.45593999997E+02  0.45594000000E+02  0.51100000000E-03 0.  1.
         23    2    1    2    0    0 -0.61062266354E-15  0.71054273576E-14  0.00000000000E+00  0.91188000000E+02  0.91188000000E+02 0.  0.
    9900012    2    3    3    0    0 -0.27859682668E+00  0.35370691308E+02 -0.10228220676E+02  0.54367083145E+02  0.39999997646E+02 0.  0.
        -12    1    3    3    0    0  0.27859682668E+00 -0.35370691308E+02  0.10228220676E+02  0.36820916855E+02  0.00000000000E+00 0.  1.
         11    1    4    4    0    0 -0.16584583514E+02  0.15246876073E+02  0.19649580837E+01  0.22613639708E+02  0.51100000000E-03 0. -1.
        -11    1    4    4    0    0  0.12579880644E+02  0.15100135196E+02 -0.15169191027E+02  0.24826837024E+02  0.51100000000E-03 0.  1.
        -12    1    4    4    0    0  0.37261060434E+01  0.50236800395E+01  0.29760122675E+01  0.69266064131E+01  0.00000000000E+00 0.  1.
</event>
<event>
 8    1  0.2432279E-006  0.9118800E+02  0.7816164E-02  0.1184000E+00
        -11   -1    0    0    0    0  0.00000000000E+00  0.00000000000E+00  0.45593999997E+02  0.45594000000E+02  0.51100000000E-03 0.  1.
         11   -1    0    0    0    0 -0.00000000000E+00 -0.00000000000E+00 -0.45593999997E+02  0.45594000000E+02  0.51100000000E-03 0. -1.
         23    2    1    2    0    0  0.00000000000E+00 -0.17763568394E-14 -0.35527136788E-14  0.91188000000E+02  0.91188000000E+02 0.  0.
    9900012    2    3    3    0    0  0.25524523574E+02 -0.14548695549E+02  0.22194907462E+02  0.54367085248E+02  0.40000002441E+02 0.  0.
         12    1    3    3    0    0 -0.25524523574E+02  0.14548695549E+02 -0.22194907462E+02  0.36820914752E+02  0.00000000000E+00 0. -1.
         11    1    4    4    0    0  0.10934134306E+02 -0.36945841967E+01 -0.85370247408E+00  0.11572988100E+02  0.51100000000E-03 0. -1.
        -11    1    4    4    0    0  0.87682311351E+01  0.61834180145E+01  0.22331181105E+02  0.24774950764E+02  0.51100000000E-03 0.  1.
        -12    1    4    4    0    0  0.58221581338E+01 -0.17037529367E+02  0.71742883189E+00  0.18019146384E+02  0.00000000000E+00 0.  1.
</event>
<event>
 8    1  0.2432279E-006  0.9118800E+02  0.7816164E-02  0.1184000E+00
        -11   -1    0    0    0    0  0.00000000000E+00  0.00000000000E+00  0.45593999997E+02  0.45594000000E+02  0.51100000000E-03 0.  1.
         11   -1    0    0    0    0 -0.00000000000E+00 -0.00000000000E+00 -0.45593999997E+02  0.45594000000E+02  0.51100000000E-03 0. -1.
         23    2    1    2    0    0  0.00000000000E+00  0.35527136788E-14 -0.35527136788E-14  0.91188000000E+02  0.91188000000E+02 0.  0.
    9900012    2    3    3    0    0  0.16551534797E+02 -0.23410844884E+02  0.23103214795E+02  0.54367088874E+02  0.40000010706E+02 0.  0.
         12    1    3    3    0    0 -0.16551534797E+02  0.23410844884E+02 -0.23103214795E+02  0.36820911126E+02  0.00000000000E+00 0. -1.
         11    1    4    4    0    0 -0.38395352131E+01 -0.12356918717E+02  0.33945502716E+01  0.13377534998E+02  0.51100000000E-03 0. -1.
        -11    1    4    4    0    0 -0.41350365110E+01 -0.10580555589E+02  0.52440977047E+01  0.12511884131E+02  0.51100000000E-03 0.  1.
        -12    1    4    4    0    0  0.24526106521E+02 -0.47337057790E+00  0.14464566819E+02  0.28477669744E+02  0.00000000000E+00 0.  1.
</event>
<event>
 8    1  0.2432279E-006  0.9118800E+02  0.7816164E-02  0.1184000E+00
        -11   -1    0    0    0    0  0.00000000000E+00  0.00000000000E+00  0.45593999997E+02  0.45594000000E+02  0.51100000000E-03 0. -1.
         11   -1    0    0    0    0 -0.00000000000E+00 -0.00000000000E+00 -0.45593999997E+02  0.45594000000E+02  0.51100000000E-03 0.  1.
         23    2    1    2    0    0 -0.35527136788E-14  0.44408920985E-15  0.35527136788E-14  0.91188000000E+02  0.91188000000E+02 0.  0.
    9900012    2    3    3    0    0 -0.22458589056E+02 -0.22080082704E+01  0.29094957151E+02  0.54367081292E+02  0.39999993421E+02 0.  0.
        -12    1    3    3    0    0  0.22458589056E+02  0.22080082704E+01 -0.29094957151E+02  0.36820918708E+02  0.00000000000E+00 0.  1.
         11    1    4    4    0    0 -0.58314160957E+01  0.36575366232E+01  0.22273209852E+02  0.23312633168E+02  0.51100000000E-03 0. -1.
        -11    1    4    4    0    0 -0.15119068296E+01  0.73342467109E+01 -0.37474111624E+01  0.83737761947E+01  0.51100000000E-03 0.  1.
        -12    1    4    4    0    0 -0.15115266131E+02 -0.13199791604E+02  0.10569158461E+02  0.22680671929E+02  0.00000000000E+00 0.  1.
</event>
<event>
 8    1  0.2432279E-006  0.9118800E+02  0.7816164E-02  0.1184000E+00
        -11   -1    0    0    0    0  0.00000000000E+00  0.00000000000E+00  0.45593999997E+02  0.45594000000E+02  0.51100000000E-03 0.  1.
         11   -1    0    0    0    0 -0.00000000000E+00 -0.00000000000E+00 -0.45593999997E+02  0.45594000000E+02  0.51100000000E-03 0. -1.
         23    2    1    2    0    0 -0.35527136788E-14 -0.17763568394E-14 -0.35527136788E-14  0.91188000000E+02  0.91188000000E+02 0.  0.
    9900012    2    3    3    0    0 -0.15402014587E+02 -0.14269100048E+02 -0.30248153988E+02  0.54367080821E+02  0.39999992347E+02 0.  0.
        -12    1    3    3    0    0  0.15402014587E+02  0.14269100048E+02  0.30248153988E+02  0.36820919179E+02  0.00000000000E+00 0.  1.
         11    1    4    4    0    0  0.23331418521E+01 -0.51154806131E+01 -0.11985400275E+02  0.13238637121E+02  0.51100000000E-03 0. -1.
        -11    1    4    4    0    0  0.84616403806E+01 -0.35439367908E+01 -0.93245874228E+00  0.92210804939E+01  0.51100000000E-03 0.  1.
        -12    1    4    4    0    0 -0.26196796819E+02 -0.56096826439E+01 -0.17330294971E+02  0.31907363206E+02  0.00000000000E+00 0.  1.
</event>
<event>
 8    1  0.2432279E-006  0.9118800E+02  0.7816164E-02  0.1184000E+00
        -11   -1    0    0    0    0  0.00000000000E+00  0.00000000000E+00  0.45593999997E+02  0.45594000000E+02  0.51100000000E-03 0.  1.
         11   -1    0    0    0    0 -0.00000000000E+00 -0.00000000000E+00 -0.45593999997E+02  0.45594000000E+02  0.51100000000E-03 0. -1.
         23    2    1    2    0    0 -0.17763568394E-14  0.00000000000E+00  0.00000000000E+00  0.91188000000E+02  0.91188000000E+02 0.  0.
    9900012    2    3    3    0    0 -0.12119587984E+02 -0.34345340432E+02 -0.54129081251E+01  0.54366995170E+02  0.39999797089E+02 0.  0.
         12    1    3    3    0    0  0.12119587984E+02  0.34345340432E+02  0.54129081251E+01  0.36821004830E+02  0.00000000000E+00 0. -1.
         11    1    4    4    0    0 -0.58808957895E+00 -0.50613602200E+01 -0.57549287454E+01  0.76865090747E+01  0.51100000000E-03 0. -1.
        -11    1    4    4    0    0 -0.62309125294E+01 -0.16834727296E+02 -0.16973794334E+02  0.24705100858E+02  0.51100000000E-03 0.  1.
         12    1    4    4    0    0 -0.53005858754E+01 -0.12449252917E+02  0.17315814954E+02  0.21975385237E+02  0.00000000000E+00 0. -1.
</event>
<event>
 8    1  0.2432279E-006  0.9118800E+02  0.7816164E-02  0.1184000E+00
        -11   -1    0    0    0    0  0.00000000000E+00  0.00000000000E+00  0.45593999997E+02  0.45594000000E+02  0.51100000000E-03 0.  1.
         11   -1    0    0    0    0 -0.00000000000E+00 -0.00000000000E+00 -0.45593999997E+02  0.45594000000E+02  0.51100000000E-03 0. -1.
         23    2    1    2    0    0  0.35527136788E-14 -0.35527136788E-14  0.71054273576E-14  0.91188000000E+02  0.91188000000E+02 0.  0.
    9900012    2    3    3    0    0  0.21259563947E+02 -0.22651142827E+02  0.19767083500E+02  0.54367069530E+02  0.39999966607E+02 0.  0.
         12    1    3    3    0    0 -0.21259563947E+02  0.22651142827E+02 -0.19767083500E+02  0.36820930470E+02  0.00000000000E+00 0. -1.
         11    1    4    4    0    0  0.25611728907E+02 -0.57918118173E+01  0.61379331478E+01  0.26966274591E+02  0.51100000000E-03 0. -1.
        -11    1    4    4    0    0 -0.42583626062E+01 -0.93430599044E+01 -0.16246315184E+01  0.10395472490E+02  0.51100000000E-03 0.  1.
        -12    1    4    4    0    0 -0.93802353712E-01 -0.75162711056E+01  0.15253781870E+02  0.17005322448E+02  0.00000000000E+00 0.  1.
</event>
<event>
 8    1  0.2432279E-006  0.9118800E+02  0.7816164E-02  0.1184000E+00
        -11   -1    0    0    0    0  0.00000000000E+00  0.00000000000E+00  0.45593999997E+02  0.45594000000E+02  0.51100000000E-03 0.  1.
         11   -1    0    0    0    0 -0.00000000000E+00 -0.00000000000E+00 -0.45593999997E+02  0.45594000000E+02  0.51100000000E-03 0. -1.
         23    2    1    2    0    0  0.66613381478E-15 -0.17763568394E-14  0.00000000000E+00  0.91188000000E+02  0.91188000000E+02 0.  0.
    9900012    2    3    3    0    0 -0.14703880098E+01 -0.10752968252E+02  0.35185080454E+02  0.54367105746E+02  0.40000049169E+02 0.  0.
         12    1    3    3    0    0  0.14703880098E+01  0.10752968252E+02 -0.35185080454E+02  0.36820894254E+02  0.00000000000E+00 0. -1.
         11    1    4    4    0    0 -0.60422394265E+01 -0.10079151021E+02 -0.15959299936E+01  0.11859381746E+02  0.51100000000E-03 0. -1.
        -11    1    4    4    0    0  0.63854153193E+01 -0.56775516818E+01  0.42479307079E+01  0.95421715275E+01  0.51100000000E-03 0.  1.
        -12    1    4    4    0    0 -0.18135639026E+01  0.50037344509E+01  0.32533079739E+02  0.32965552472E+02  0.00000000000E+00 0.  1.
</event>
<event>
 8    1  0.2432279E-006  0.9118800E+02  0.7816164E-02  0.1184000E+00
        -11   -1    0    0    0    0  0.00000000000E+00  0.00000000000E+00  0.45593999997E+02  0.45594000000E+02  0.51100000000E-03 0.  1.
         11   -1    0    0    0    0 -0.00000000000E+00 -0.00000000000E+00 -0.45593999997E+02  0.45594000000E+02  0.51100000000E-03 0. -1.
         23    2    1    2    0    0  0.00000000000E+00  0.00000000000E+00  0.00000000000E+00  0.91188000000E+02  0.91188000000E+02 0.  0.
    9900012    2    3    3    0    0 -0.55577365519E+01 -0.19547585796E+02  0.30704753104E+02  0.54367103634E+02  0.40000044355E+02 0.  0.
         12    1    3    3    0    0  0.55577365519E+01  0.19547585796E+02 -0.30704753104E+02  0.36820896366E+02  0.00000000000E+00 0. -1.
         11    1    4    4    0    0 -0.23533480578E+01 -0.16044485192E+02  0.10396926100E+02  0.19262913194E+02  0.51100000000E-03 0. -1.
        -11    1    4    4    0    0  0.11381523662E+02  0.45412139439E+00  0.23453253844E+01  0.11629525292E+02  0.51100000000E-03 0.  1.
         12    1    4    4    0    0 -0.14585912156E+02 -0.39572219984E+01  0.17962501620E+02  0.23474665148E+02  0.00000000000E+00 0. -1.
</event>
<event>
 8    1  0.2432279E-006  0.9118800E+02  0.7816164E-02  0.1184000E+00
        -11   -1    0    0    0    0  0.00000000000E+00  0.00000000000E+00  0.45593999997E+02  0.45594000000E+02  0.51100000000E-03 0.  1.
         11   -1    0    0    0    0 -0.00000000000E+00 -0.00000000000E+00 -0.45593999997E+02  0.45594000000E+02  0.51100000000E-03 0. -1.
         23    2    1    2    0    0  0.88817841970E-15  0.35527136788E-14  0.00000000000E+00  0.91188000000E+02  0.91188000000E+02 0.  0.
    9900012    2    3    3    0    0 -0.42708089985E+01  0.27250009015E+02  0.24392123325E+02  0.54367102657E+02  0.40000042128E+02 0.  0.
         12    1    3    3    0    0  0.42708089985E+01 -0.27250009015E+02 -0.24392123325E+02  0.36820897343E+02  0.00000000000E+00 0. -1.
         11    1    4    4    0    0 -0.15365904179E+02  0.23137950302E+02  0.85713283641E+01  0.29067910583E+02  0.51100000000E-03 0. -1.
        -11    1    4    4    0    0  0.62220292336E+01  0.65920459331E+01  0.17389929152E+02  0.19610669380E+02  0.51100000000E-03 0.  1.
        -12    1    4    4    0    0  0.48730659473E+01 -0.24799872210E+01 -0.15691341906E+01  0.56885226949E+01  0.00000000000E+00 0.  1.
</event>
<event>
 8    1  0.2432279E-006  0.9118800E+02  0.7816164E-02  0.1184000E+00
        -11   -1    0    0    0    0  0.00000000000E+00  0.00000000000E+00  0.45593999997E+02  0.45594000000E+02  0.51100000000E-03 0. -1.
         11   -1    0    0    0    0 -0.00000000000E+00 -0.00000000000E+00 -0.45593999997E+02  0.45594000000E+02  0.51100000000E-03 0.  1.
         23    2    1    2    0    0  0.00000000000E+00 -0.17763568394E-14  0.00000000000E+00  0.91188000000E+02  0.91188000000E+02 0.  0.
    9900012    2    3    3    0    0  0.26508486690E+02 -0.13612627084E+02  0.21628130219E+02  0.54367088828E+02  0.40000010602E+02 0.  0.
        -12    1    3    3    0    0 -0.26508486690E+02  0.13612627084E+02 -0.21628130219E+02  0.36820911172E+02  0.00000000000E+00 0.  1.
         11    1    4    4    0    0  0.40490413191E+01  0.77780428167E+01  0.31308126303E+01  0.93109974573E+01  0.51100000000E-03 0. -1.
        -11    1    4    4    0    0  0.26643817664E+02 -0.24225426998E+02  0.15760630963E+02  0.39308546419E+02  0.51100000000E-03 0.  1.
        -12    1    4    4    0    0 -0.41843722935E+01  0.28347570971E+01  0.27366866260E+01  0.57475449523E+01  0.00000000000E+00 0.  1.
</event>
<event>
 8    1  0.2432279E-006  0.9118800E+02  0.7816164E-02  0.1184000E+00
        -11   -1    0    0    0    0  0.00000000000E+00  0.00000000000E+00  0.45593999997E+02  0.45594000000E+02  0.51100000000E-03 0. -1.
         11   -1    0    0    0    0 -0.00000000000E+00 -0.00000000000E+00 -0.45593999997E+02  0.45594000000E+02  0.51100000000E-03 0.  1.
         23    2    1    2    0    0 -0.88817841970E-15  0.35527136788E-14 -0.35527136788E-14  0.91188000000E+02  0.91188000000E+02 0.  0.
    9900012    2    3    3    0    0  0.77698844679E+01 -0.18960690053E+02  0.30592483520E+02  0.54367096699E+02  0.40000028546E+02 0.  0.
        -12    1    3    3    0    0 -0.77698844679E+01  0.18960690053E+02 -0.30592483520E+02  0.36820903301E+02  0.00000000000E+00 0.  1.
         11    1    4    4    0    0  0.98790015290E+01 -0.28609712525E+02  0.23616143198E+02  0.38390526719E+02  0.51100000000E-03 0. -1.
        -11    1    4    4    0    0 -0.47765694870E+01  0.39136733923E+01  0.73988205705E+01  0.96371677157E+01  0.51100000000E-03 0.  1.
        -12    1    4    4    0    0  0.26674524259E+01  0.57353490797E+01 -0.42248024819E+00  0.63394022645E+01  0.00000000000E+00 0.  1.
</event>
<event>
 8    1  0.2432279E-006  0.9118800E+02  0.7816164E-02  0.1184000E+00
        -11   -1    0    0    0    0  0.00000000000E+00  0.00000000000E+00  0.45593999997E+02  0.45594000000E+02  0.51100000000E-03 0.  1.
         11   -1    0    0    0    0 -0.00000000000E+00 -0.00000000000E+00 -0.45593999997E+02  0.45594000000E+02  0.51100000000E-03 0. -1.
         23    2    1    2    0    0  0.35527136788E-14  0.35527136788E-14 -0.35527136788E-14  0.91188000000E+02  0.91188000000E+02 0.  0.
    9900012    2    3    3    0    0  0.19804299230E+02 -0.22040410145E+02 -0.21858387446E+02  0.54367094945E+02  0.40000024545E+02 0.  0.
        -12    1    3    3    0    0 -0.19804299230E+02  0.22040410145E+02  0.21858387446E+02  0.36820905055E+02  0.00000000000E+00 0.  1.
         11    1    4    4    0    0  0.11282122765E+02 -0.19388079887E+02 -0.20213866018E+02  0.30195766515E+02  0.51100000000E-03 0. -1.
        -11    1    4    4    0    0 -0.52088359645E+01  0.82120189504E+00 -0.72278945590E+01  0.89469997583E+01  0.51100000000E-03 0.  1.
         12    1    4    4    0    0  0.13731012429E+02 -0.34735321536E+01  0.55833731313E+01  0.15224328671E+02  0.00000000000E+00 0. -1.
</event>
<event>
 8    1  0.2432279E-006  0.9118800E+02  0.7816164E-02  0.1184000E+00
        -11   -1    0    0    0    0  0.00000000000E+00  0.00000000000E+00  0.45593999997E+02  0.45594000000E+02  0.51100000000E-03 0. -1.
         11   -1    0    0    0    0 -0.00000000000E+00 -0.00000000000E+00 -0.45593999997E+02  0.45594000000E+02  0.51100000000E-03 0.  1.
         23    2    1    2    0    0  0.71054273576E-14  0.00000000000E+00  0.00000000000E+00  0.91188000000E+02  0.91188000000E+02 0.  0.
    9900012    2    3    3    0    0 -0.32100922649E+02  0.51599857625E+01 -0.17282495576E+02  0.54367090976E+02  0.40000015499E+02 0.  0.
         12    1    3    3    0    0  0.32100922649E+02 -0.51599857625E+01  0.17282495576E+02  0.36820909024E+02  0.00000000000E+00 0. -1.
         11    1    4    4    0    0  0.31928757150E+01  0.42451112477E+01 -0.24637020666E+01  0.58553610453E+01  0.51100000000E-03 0. -1.
        -11    1    4    4    0    0 -0.11644867532E+02 -0.12071635583E+02  0.17283394188E+01  0.16861627528E+02  0.51100000000E-03 0.  1.
        -12    1    4    4    0    0 -0.23648930832E+02  0.12986510097E+02 -0.16547132928E+02  0.31650102404E+02  0.00000000000E+00 0.  1.
</event>
<event>
 8    1  0.2432279E-006  0.9118800E+02  0.7816164E-02  0.1184000E+00
        -11   -1    0    0    0    0  0.00000000000E+00  0.00000000000E+00  0.45593999997E+02  0.45594000000E+02  0.51100000000E-03 0.  1.
         11   -1    0    0    0    0 -0.00000000000E+00 -0.00000000000E+00 -0.45593999997E+02  0.45594000000E+02  0.51100000000E-03 0. -1.
         23    2    1    2    0    0 -0.44408920985E-15 -0.71054273576E-14  0.00000000000E+00  0.91188000000E+02  0.91188000000E+02 0.  0.
    9900012    2    3    3    0    0  0.11563932928E+01  0.21157687625E+02 -0.30112955298E+02  0.54367149007E+02  0.40000147792E+02 0.  0.
        -12    1    3    3    0    0 -0.11563932928E+01 -0.21157687625E+02  0.30112955298E+02  0.36820850993E+02  0.00000000000E+00 0.  1.
         11    1    4    4    0    0  0.61414851886E+01  0.13807040787E+02 -0.23671973749E+00  0.15113181403E+02  0.51100000000E-03 0. -1.
        -11    1    4    4    0    0  0.18061884898E+01  0.46943136795E+01  0.28118064238E+01  0.57623912925E+01  0.51100000000E-03 0.  1.
        -12    1    4    4    0    0 -0.67912803855E+01  0.26563331579E+01 -0.32688041984E+02  0.33491576312E+02  0.00000000000E+00 0.  1.
</event>
<event>
 8    1  0.2432279E-006  0.9118800E+02  0.7816164E-02  0.1184000E+00
        -11   -1    0    0    0    0  0.00000000000E+00  0.00000000000E+00  0.45593999997E+02  0.45594000000E+02  0.51100000000E-03 0. -1.
         11   -1    0    0    0    0 -0.00000000000E+00 -0.00000000000E+00 -0.45593999997E+02  0.45594000000E+02  0.51100000000E-03 0.  1.
         23    2    1    2    0    0 -0.88817841970E-15  0.00000000000E+00  0.00000000000E+00  0.91188000000E+02  0.91188000000E+02 0.  0.
    9900012    2    3    3    0    0 -0.62195600368E+01 -0.47406908165E+01  0.35980868558E+02  0.54367082321E+02  0.39999995768E+02 0.  0.
         12    1    3    3    0    0  0.62195600368E+01  0.47406908165E+01 -0.35980868558E+02  0.36820917679E+02  0.00000000000E+00 0. -1.
         11    1    4    4    0    0 -0.13451759777E+02 -0.53758784673E+01  0.17318252846E+02  0.22578126413E+02  0.51100000000E-03 0. -1.
        -11    1    4    4    0    0  0.13718976215E+02 -0.70100952885E+01  0.13631475614E+02  0.20571068811E+02  0.51100000000E-03 0.  1.
        -12    1    4    4    0    0 -0.64867764746E+01  0.76452829393E+01  0.50311400986E+01  0.11217887098E+02  0.00000000000E+00 0.  1.
</event>
<event>
 8    1  0.2432279E-006  0.9118800E+02  0.7816164E-02  0.1184000E+00
        -11   -1    0    0    0    0  0.00000000000E+00  0.00000000000E+00  0.45593999997E+02  0.45594000000E+02  0.51100000000E-03 0.  1.
         11   -1    0    0    0    0 -0.00000000000E+00 -0.00000000000E+00 -0.45593999997E+02  0.45594000000E+02  0.51100000000E-03 0. -1.
         23    2    1    2    0    0  0.00000000000E+00  0.00000000000E+00  0.00000000000E+00  0.91188000000E+02  0.91188000000E+02 0.  0.
    9900012    2    3    3    0    0 -0.15131242839E+02  0.31421327800E+02  0.11812087477E+02  0.54367085276E+02  0.40000002503E+02 0.  0.
        -12    1    3    3    0    0  0.15131242839E+02 -0.31421327800E+02 -0.11812087477E+02  0.36820914724E+02  0.00000000000E+00 0.  1.
         11    1    4    4    0    0 -0.38611459746E+01  0.14291513559E+02 -0.56324343253E+01  0.15839195836E+02  0.51100000000E-03 0. -1.
        -11    1    4    4    0    0 -0.18768872854E+00  0.22158871202E+02  0.11925955188E+02  0.25165039388E+02  0.51100000000E-03 0.  1.
        -12    1    4    4    0    0 -0.11082408136E+02 -0.50290569614E+01  0.55185666145E+01  0.13362850051E+02  0.00000000000E+00 0.  1.
</event>
<event>
 8    1  0.2432279E-006  0.9118800E+02  0.7816164E-02  0.1184000E+00
        -11   -1    0    0    0    0  0.00000000000E+00  0.00000000000E+00  0.45593999997E+02  0.45594000000E+02  0.51100000000E-03 0.  1.
         11   -1    0    0    0    0 -0.00000000000E+00 -0.00000000000E+00 -0.45593999997E+02  0.45594000000E+02  0.51100000000E-03 0. -1.
         23    2    1    2    0    0  0.00000000000E+00  0.00000000000E+00  0.00000000000E+00  0.91188000000E+02  0.91188000000E+02 0.  0.
    9900012    2    3    3    0    0 -0.28088986378E+01 -0.22610931417E+02  0.28924659005E+02  0.54367081629E+02  0.39999994189E+02 0.  0.
         12    1    3    3    0    0  0.28088986378E+01  0.22610931417E+02 -0.28924659005E+02  0.36820918371E+02  0.00000000000E+00 0. -1.
         11    1    4    4    0    0  0.71293157696E+01 -0.38130471732E+01  0.98541267978E+01  0.12746383302E+02  0.51100000000E-03 0.  1.
        -11    1    4    4    0    0 -0.28603616077E+01  0.40603406939E+01  0.16875592964E+02  0.17591295382E+02  0.51100000000E-03 0. -1.
        -12    1    4    4    0    0 -0.70778527997E+01 -0.22858224938E+02  0.21949392436E+01  0.24029402944E+02  0.00000000000E+00 0.  1.
</event>
<event>
 8    1  0.2432279E-006  0.9118800E+02  0.7816164E-02  0.1184000E+00
        -11   -1    0    0    0    0  0.00000000000E+00  0.00000000000E+00  0.45593999997E+02  0.45594000000E+02  0.51100000000E-03 0.  1.
         11   -1    0    0    0    0 -0.00000000000E+00 -0.00000000000E+00 -0.45593999997E+02  0.45594000000E+02  0.51100000000E-03 0. -1.
         23    2    1    2    0    0  0.35527136788E-14  0.00000000000E+00  0.35527136788E-14  0.91188000000E+02  0.91188000000E+02 0.  0.
    9900012    2    3    3    0    0  0.29581536088E+02 -0.37080597314E+01  0.21609346380E+02  0.54367070690E+02  0.39999969251E+02 0.  0.
         12    1    3    3    0    0 -0.29581536088E+02  0.37080597314E+01 -0.21609346380E+02  0.36820929310E+02  0.00000000000E+00 0. -1.
         11    1    4    4    0    0 -0.81297178053E+01  0.60997069468E+01  0.46590016802E+01  0.11180564983E+02  0.51100000000E-03 0. -1.
        -11    1    4    4    0    0  0.23263611997E+01  0.93993775214E+00  0.23175775943E+01  0.34156413125E+01  0.51100000000E-03 0.  1.
         12    1    4    4    0    0  0.35384892694E+02 -0.10747704430E+02  0.14632767105E+02  0.39770864394E+02  0.00000000000E+00 0. -1.
</event>
<event>
 8    1  0.2432279E-006  0.9118800E+02  0.7816164E-02  0.1184000E+00
        -11   -1    0    0    0    0  0.00000000000E+00  0.00000000000E+00  0.45593999997E+02  0.45594000000E+02  0.51100000000E-03 0.  1.
         11   -1    0    0    0    0 -0.00000000000E+00 -0.00000000000E+00 -0.45593999997E+02  0.45594000000E+02  0.51100000000E-03 0. -1.
         23    2    1    2    0    0  0.17763568394E-14  0.11102230246E-15  0.00000000000E+00  0.91188000000E+02  0.91188000000E+02 0.  0.
    9900012    2    3    3    0    0  0.33599451197E+01  0.97631659409E+00  0.36654331855E+02  0.54367048504E+02  0.39999918675E+02 0.  0.
         12    1    3    3    0    0 -0.33599451197E+01 -0.97631659409E+00 -0.36654331855E+02  0.36820951496E+02  0.00000000000E+00 0. -1.
         11    1    4    4    0    0 -0.17568587290E+00 -0.51651418441E+01 -0.36130193225E+01  0.63058278347E+01  0.51100000000E-03 0. -1.
        -11    1    4    4    0    0 -0.98739634471E+01 -0.13834448683E+01  0.22201056069E+02  0.24337131398E+02  0.51100000000E-03 0.  1.
         12    1    4    4    0    0  0.13409594440E+02  0.75249033065E+01  0.18066295109E+02  0.23724089272E+02  0.00000000000E+00 0. -1.
</event>
<event>
 8    1  0.2432279E-006  0.9118800E+02  0.7816164E-02  0.1184000E+00
        -11   -1    0    0    0    0  0.00000000000E+00  0.00000000000E+00  0.45593999997E+02  0.45594000000E+02  0.51100000000E-03 0. -1.
         11   -1    0    0    0    0 -0.00000000000E+00 -0.00000000000E+00 -0.45593999997E+02  0.45594000000E+02  0.51100000000E-03 0.  1.
         23    2    1    2    0    0  0.00000000000E+00 -0.17763568394E-14 -0.33306690739E-15  0.91188000000E+02  0.91188000000E+02 0.  0.
    9900012    2    3    3    0    0 -0.35794015770E+02  0.86305433496E+01  0.28485758848E+00  0.54367095784E+02  0.40000026458E+02 0.  0.
         12    1    3    3    0    0  0.35794015770E+02 -0.86305433496E+01 -0.28485758848E+00  0.36820904216E+02  0.00000000000E+00 0. -1.
         11    1    4    4    0    0  0.89369827171E-01  0.21003851903E+01 -0.11020808668E+02  0.11219528906E+02  0.51100000000E-03 0. -1.
        -11    1    4    4    0    0 -0.28287013425E+02  0.13384013838E+02  0.71210658109E+01  0.32093559065E+02  0.51100000000E-03 0.  1.
        -12    1    4    4    0    0 -0.75963721726E+01 -0.68538556783E+01  0.41846004455E+01  0.11054007813E+02  0.00000000000E+00 0.  1.
</event>
<event>
 8    1  0.2432279E-006  0.9118800E+02  0.7816164E-02  0.1184000E+00
        -11   -1    0    0    0    0  0.00000000000E+00  0.00000000000E+00  0.45593999997E+02  0.45594000000E+02  0.51100000000E-03 0. -1.
         11   -1    0    0    0    0 -0.00000000000E+00 -0.00000000000E+00 -0.45593999997E+02  0.45594000000E+02  0.51100000000E-03 0.  1.
         23    2    1    2    0    0  0.26645352591E-14  0.13322676296E-14  0.00000000000E+00  0.91188000000E+02  0.91188000000E+02 0.  0.
    9900012    2    3    3    0    0  0.68235199955E+01 -0.25987629651E+01  0.36089704604E+02  0.54367071542E+02  0.39999971195E+02 0.  0.
        -12    1    3    3    0    0 -0.68235199955E+01  0.25987629651E+01 -0.36089704604E+02  0.36820928458E+02  0.00000000000E+00 0.  1.
         11    1    4    4    0    0  0.18607632241E+02  0.72317726242E+01  0.13698243445E+02  0.24211245045E+02  0.51100000000E-03 0. -1.
        -11    1    4    4    0    0 -0.22727282493E+01 -0.46099661265E+01 -0.14690713059E+00  0.51418540770E+01  0.51100000000E-03 0.  1.
         12    1    4    4    0    0 -0.95113839966E+01 -0.52205694628E+01  0.22538368290E+02  0.25013972420E+02  0.00000000000E+00 0. -1.
</event>
<event>
 8    1  0.2432279E-006  0.9118800E+02  0.7816164E-02  0.1184000E+00
        -11   -1    0    0    0    0  0.00000000000E+00  0.00000000000E+00  0.45593999997E+02  0.45594000000E+02  0.51100000000E-03 0.  1.
         11   -1    0    0    0    0 -0.00000000000E+00 -0.00000000000E+00 -0.45593999997E+02  0.45594000000E+02  0.51100000000E-03 0. -1.
         23    2    1    2    0    0 -0.35527136788E-14  0.00000000000E+00  0.00000000000E+00  0.91188000000E+02  0.91188000000E+02 0.  0.
    9900012    2    3    3    0    0  0.88799600115E+01  0.34491279311E+02  0.93422251971E+01  0.54367092760E+02  0.40000019565E+02 0.  0.
         12    1    3    3    0    0 -0.88799600115E+01 -0.34491279311E+02 -0.93422251971E+01  0.36820907240E+02  0.00000000000E+00 0. -1.
         11    1    4    4    0    0  0.22095414812E+02  0.13228522963E+02 -0.76188823449E+00  0.25763960283E+02  0.51100000000E-03 0. -1.
        -11    1    4    4    0    0 -0.50616302314E+00  0.59112638046E+01  0.56264946130E+01  0.81765935857E+01  0.51100000000E-03 0.  1.
         12    1    4    4    0    0 -0.12709291778E+02  0.15351492544E+02  0.44776188186E+01  0.20426538892E+02  0.00000000000E+00 0. -1.
</event>
<event>
 8    1  0.2432279E-006  0.9118800E+02  0.7816164E-02  0.1184000E+00
        -11   -1    0    0    0    0  0.00000000000E+00  0.00000000000E+00  0.45593999997E+02  0.45594000000E+02  0.51100000000E-03 0. -1.
         11   -1    0    0    0    0 -0.00000000000E+00 -0.00000000000E+00 -0.45593999997E+02  0.45594000000E+02  0.51100000000E-03 0.  1.
         23    2    1    2    0    0  0.00000000000E+00  0.00000000000E+00 -0.88817841970E-15  0.91188000000E+02  0.91188000000E+02 0.  0.
    9900012    2    3    3    0    0 -0.25749575862E+02  0.26080967628E+02  0.35380764497E+01  0.54367142942E+02  0.40000133965E+02 0.  0.
        -12    1    3    3    0    0  0.25749575862E+02 -0.26080967628E+02 -0.35380764497E+01  0.36820857058E+02  0.00000000000E+00 0.  1.
         11    1    4    4    0    0 -0.15527318943E+02  0.36241278340E+01 -0.64431767682E+01  0.17197280693E+02  0.51100000000E-03 0.  1.
        -11    1    4    4    0    0 -0.11207396927E+02  0.75876091924E+00 -0.33036706255E+01  0.11708787464E+02  0.51100000000E-03 0. -1.
         12    1    4    4    0    0  0.98514000786E+00  0.21698078875E+02  0.13284923843E+02  0.25461074785E+02  0.00000000000E+00 0. -1.
</event>
<event>
 8    1  0.2432279E-006  0.9118800E+02  0.7816164E-02  0.1184000E+00
        -11   -1    0    0    0    0  0.00000000000E+00  0.00000000000E+00  0.45593999997E+02  0.45594000000E+02  0.51100000000E-03 0.  1.
         11   -1    0    0    0    0 -0.00000000000E+00 -0.00000000000E+00 -0.45593999997E+02  0.45594000000E+02  0.51100000000E-03 0. -1.
         23    2    1    2    0    0 -0.35527136788E-14  0.00000000000E+00  0.00000000000E+00  0.91188000000E+02  0.91188000000E+02 0.  0.
    9900012    2    3    3    0    0  0.29587028867E+02  0.10378227899E+02  0.19304939233E+02  0.54367074288E+02  0.39999977454E+02 0.  0.
        -12    1    3    3    0    0 -0.29587028867E+02 -0.10378227899E+02 -0.19304939233E+02  0.36820925712E+02  0.00000000000E+00 0.  1.
         11    1    4    4    0    0  0.87672569457E+01  0.94419862239E+01 -0.92804637761E+00  0.12918094617E+02  0.51100000000E-03 0. -1.
        -11    1    4    4    0    0 -0.64312045606E+01  0.50836653879E+01  0.21260284980E+01  0.84690048596E+01  0.51100000000E-03 0.  1.
         12    1    4    4    0    0  0.27250976482E+02 -0.41474237125E+01  0.18106957112E+02  0.32979974811E+02  0.00000000000E+00 0. -1.
</event>
<event>
 8    1  0.2432279E-006  0.9118800E+02  0.7816164E-02  0.1184000E+00
        -11   -1    0    0    0    0  0.00000000000E+00  0.00000000000E+00  0.45593999997E+02  0.45594000000E+02  0.51100000000E-03 0.  1.
         11   -1    0    0    0    0 -0.00000000000E+00 -0.00000000000E+00 -0.45593999997E+02  0.45594000000E+02  0.51100000000E-03 0. -1.
         23    2    1    2    0    0 -0.66613381478E-15  0.00000000000E+00  0.00000000000E+00  0.91188000000E+02  0.91188000000E+02 0.  0.
    9900012    2    3    3    0    0  0.18243606798E+01 -0.24729883149E+01 -0.36692470476E+02  0.54367063663E+02  0.39999953232E+02 0.  0.
        -12    1    3    3    0    0 -0.18243606798E+01  0.24729883149E+01  0.36692470476E+02  0.36820936337E+02  0.00000000000E+00 0.  1.
         11    1    4    4    0    0 -0.12973533032E+02  0.62554578043E+01 -0.10432344635E+02  0.17784181918E+02  0.51100000000E-03 0. -1.
        -11    1    4    4    0    0 -0.74858808102E+00 -0.97906966184E+01 -0.11466396417E+02  0.15096236996E+02  0.51100000000E-03 0.  1.
        -12    1    4    4    0    0  0.15546481792E+02  0.10622504992E+01 -0.14793729425E+02  0.21486644749E+02  0.00000000000E+00 0.  1.
</event>
<event>
 8    1  0.2432279E-006  0.9118800E+02  0.7816164E-02  0.1184000E+00
        -11   -1    0    0    0    0  0.00000000000E+00  0.00000000000E+00  0.45593999997E+02  0.45594000000E+02  0.51100000000E-03 0.  1.
         11   -1    0    0    0    0 -0.00000000000E+00 -0.00000000000E+00 -0.45593999997E+02  0.45594000000E+02  0.51100000000E-03 0. -1.
         23    2    1    2    0    0  0.00000000000E+00  0.00000000000E+00  0.88817841970E-15  0.91188000000E+02  0.91188000000E+02 0.  0.
    9900012    2    3    3    0    0  0.25284111845E+02 -0.25830322689E+02 -0.70204707748E+01  0.54367097079E+02  0.40000029411E+02 0.  0.
        -12    1    3    3    0    0 -0.25284111845E+02  0.25830322689E+02  0.70204707748E+01  0.36820902921E+02  0.00000000000E+00 0.  1.
         11    1    4    4    0    0  0.11792211529E+01 -0.60968789279E+01 -0.13260664548E+02  0.14642667779E+02  0.51100000000E-03 0. -1.
        -11    1    4    4    0    0 -0.45725076258E+01 -0.17708925985E+01 -0.12640995949E+01  0.50637767161E+01  0.51100000000E-03 0.  1.
        -12    1    4    4    0    0  0.28677398318E+02 -0.17962551162E+02  0.75042933678E+01  0.34660652584E+02  0.00000000000E+00 0.  1.
</event>
<event>
 8    1  0.2432279E-006  0.9118800E+02  0.7816164E-02  0.1184000E+00
        -11   -1    0    0    0    0  0.00000000000E+00  0.00000000000E+00  0.45593999997E+02  0.45594000000E+02  0.51100000000E-03 0. -1.
         11   -1    0    0    0    0 -0.00000000000E+00 -0.00000000000E+00 -0.45593999997E+02  0.45594000000E+02  0.51100000000E-03 0.  1.
         23    2    1    2    0    0  0.00000000000E+00 -0.88817841970E-15  0.35527136788E-14  0.91188000000E+02  0.91188000000E+02 0.  0.
    9900012    2    3    3    0    0 -0.27964397608E+02  0.24445432744E+01 -0.23828469816E+02  0.54367091549E+02  0.40000016803E+02 0.  0.
         12    1    3    3    0    0  0.27964397608E+02 -0.24445432744E+01  0.23828469816E+02  0.36820908451E+02  0.00000000000E+00 0. -1.
         11    1    4    4    0    0 -0.49306901389E+01  0.70704907689E+01 -0.16510413011E+02  0.18625178738E+02  0.51100000000E-03 0.  1.
        -11    1    4    4    0    0 -0.11321427270E+02 -0.62795131278E+01 -0.16353223418E+02  0.20857490668E+02  0.51100000000E-03 0. -1.
         12    1    4    4    0    0 -0.11712280199E+02  0.16535656333E+01  0.90351666136E+01  0.14884422142E+02  0.00000000000E+00 0. -1.
</event>
<event>
 8    1  0.2432279E-006  0.9118800E+02  0.7816164E-02  0.1184000E+00
        -11   -1    0    0    0    0  0.00000000000E+00  0.00000000000E+00  0.45593999997E+02  0.45594000000E+02  0.51100000000E-03 0.  1.
         11   -1    0    0    0    0 -0.00000000000E+00 -0.00000000000E+00 -0.45593999997E+02  0.45594000000E+02  0.51100000000E-03 0. -1.
         23    2    1    2    0    0  0.00000000000E+00  0.00000000000E+00  0.00000000000E+00  0.91188000000E+02  0.91188000000E+02 0.  0.
    9900012    2    3    3    0    0  0.10246401830E+02  0.16973409900E+02  0.31027310933E+02  0.54367089938E+02  0.40000013131E+02 0.  0.
         12    1    3    3    0    0 -0.10246401830E+02 -0.16973409900E+02 -0.31027310933E+02  0.36820910062E+02  0.00000000000E+00 0. -1.
         11    1    4    4    0    0 -0.13552929780E+02  0.89925759000E+01  0.11530000603E+02  0.19937132218E+02  0.51100000000E-03 0. -1.
        -11    1    4    4    0    0  0.12663982056E+02 -0.16990717303E+01  0.49291271593E+01  0.13695239358E+02  0.51100000000E-03 0.  1.
        -12    1    4    4    0    0  0.11135349554E+02  0.96799057304E+01  0.14568183171E+02  0.20734718361E+02  0.00000000000E+00 0.  1.
</event>
<event>
 8    1  0.2432279E-006  0.9118800E+02  0.7816164E-02  0.1184000E+00
        -11   -1    0    0    0    0  0.00000000000E+00  0.00000000000E+00  0.45593999997E+02  0.45594000000E+02  0.51100000000E-03 0.  1.
         11   -1    0    0    0    0 -0.00000000000E+00 -0.00000000000E+00 -0.45593999997E+02  0.45594000000E+02  0.51100000000E-03 0. -1.
         23    2    1    2    0    0  0.00000000000E+00  0.35527136788E-14  0.35527136788E-14  0.91188000000E+02  0.91188000000E+02 0.  0.
    9900012    2    3    3    0    0 -0.11955387105E+02  0.27033311934E+02 -0.21955603122E+02  0.54367085517E+02  0.40000003052E+02 0.  0.
        -12    1    3    3    0    0  0.11955387105E+02 -0.27033311934E+02  0.21955603122E+02  0.36820914483E+02  0.00000000000E+00 0.  1.
         11    1    4    4    0    0 -0.12169685449E+02  0.22494993944E+01  0.99116582460E+00  0.12415470245E+02  0.51100000000E-03 0. -1.
        -11    1    4    4    0    0  0.62995954790E+01  0.93206460767E+00  0.22236788958E+01  0.67452498638E+01  0.51100000000E-03 0.  1.
         12    1    4    4    0    0 -0.60852971350E+01  0.23851747931E+02 -0.25170447843E+02  0.35206365407E+02  0.00000000000E+00 0. -1.
</event>
<event>
 8    1  0.2432279E-006  0.9118800E+02  0.7816164E-02  0.1184000E+00
        -11   -1    0    0    0    0  0.00000000000E+00  0.00000000000E+00  0.45593999997E+02  0.45594000000E+02  0.51100000000E-03 0.  1.
         11   -1    0    0    0    0 -0.00000000000E+00 -0.00000000000E+00 -0.45593999997E+02  0.45594000000E+02  0.51100000000E-03 0. -1.
         23    2    1    2    0    0 -0.71054273576E-14  0.35527136788E-14 -0.35527136788E-14  0.91188000000E+02  0.91188000000E+02 0.  0.
    9900012    2    3    3    0    0  0.27552360515E+02 -0.11558037580E+02 -0.21518824383E+02  0.54367073810E+02  0.39999976366E+02 0.  0.
        -12    1    3    3    0    0 -0.27552360515E+02  0.11558037580E+02  0.21518824383E+02  0.36820926190E+02  0.00000000000E+00 0.  1.
         11    1    4    4    0    0  0.69839833065E+01 -0.11883113745E+02 -0.17330112463E+02  0.22143107581E+02  0.51100000000E-03 0. -1.
        -11    1    4    4    0    0  0.49239011082E+01  0.11630181040E+02 -0.22050909579E+01  0.12820621652E+02  0.51100000000E-03 0.  1.
        -12    1    4    4    0    0  0.15644476100E+02 -0.11305104875E+02 -0.19836209615E+01  0.19403344578E+02  0.00000000000E+00 0.  1.
</event>
<event>
 8    1  0.2432279E-006  0.9118800E+02  0.7816164E-02  0.1184000E+00
        -11   -1    0    0    0    0  0.00000000000E+00  0.00000000000E+00  0.45593999997E+02  0.45594000000E+02  0.51100000000E-03 0. -1.
         11   -1    0    0    0    0 -0.00000000000E+00 -0.00000000000E+00 -0.45593999997E+02  0.45594000000E+02  0.51100000000E-03 0.  1.
         23    2    1    2    0    0 -0.35527136788E-14 -0.88817841970E-15  0.35527136788E-14  0.91188000000E+02  0.91188000000E+02 0.  0.
    9900012    2    3    3    0    0  0.25470301431E+02  0.58502047679E+01 -0.25938722936E+02  0.54367102424E+02  0.40000041595E+02 0.  0.
         12    1    3    3    0    0 -0.25470301431E+02 -0.58502047679E+01  0.25938722936E+02  0.36820897576E+02  0.00000000000E+00 0. -1.
         11    1    4    4    0    0  0.71811418494E+01 -0.84262930036E+01  0.38074957623E+00  0.11077733638E+02  0.51100000000E-03 0. -1.
        -11    1    4    4    0    0  0.22923839646E+02  0.42974210333E+01 -0.16856122618E+02  0.28776711446E+02  0.51100000000E-03 0.  1.
         12    1    4    4    0    0 -0.46346800651E+01  0.99790767382E+01 -0.94633498939E+01  0.14512657340E+02  0.00000000000E+00 0. -1.
</event>
<event>
 8    1  0.2432279E-006  0.9118800E+02  0.7816164E-02  0.1184000E+00
        -11   -1    0    0    0    0  0.00000000000E+00  0.00000000000E+00  0.45593999997E+02  0.45594000000E+02  0.51100000000E-03 0.  1.
         11   -1    0    0    0    0 -0.00000000000E+00 -0.00000000000E+00 -0.45593999997E+02  0.45594000000E+02  0.51100000000E-03 0. -1.
         23    2    1    2    0    0  0.00000000000E+00 -0.35527136788E-14  0.00000000000E+00  0.91188000000E+02  0.91188000000E+02 0.  0.
    9900012    2    3    3    0    0 -0.19240176329E+02 -0.16143154701E+02 -0.26925690464E+02  0.54367100557E+02  0.40000037340E+02 0.  0.
        -12    1    3    3    0    0  0.19240176329E+02  0.16143154701E+02  0.26925690464E+02  0.36820899443E+02  0.00000000000E+00 0.  1.
         11    1    4    4    0    0 -0.39525707887E+01  0.75593591894E+01 -0.20124525991E+02  0.21857796637E+02  0.51100000000E-03 0. -1.
        -11    1    4    4    0    0 -0.27687880832E+01 -0.17622564218E+02 -0.45658849026E+01  0.18413806295E+02  0.51100000000E-03 0.  1.
         12    1    4    4    0    0 -0.12518817457E+02 -0.60799496716E+01 -0.22352795702E+01  0.14095497625E+02  0.00000000000E+00 0. -1.
</event>
<event>
 8    1  0.2432279E-006  0.9118800E+02  0.7816164E-02  0.1184000E+00
        -11   -1    0    0    0    0  0.00000000000E+00  0.00000000000E+00  0.45593999997E+02  0.45594000000E+02  0.51100000000E-03 0.  1.
         11   -1    0    0    0    0 -0.00000000000E+00 -0.00000000000E+00 -0.45593999997E+02  0.45594000000E+02  0.51100000000E-03 0. -1.
         23    2    1    2    0    0  0.00000000000E+00  0.88817841970E-15 -0.35527136788E-14  0.91188000000E+02  0.91188000000E+02 0.  0.
    9900012    2    3    3    0    0 -0.27126235470E+02  0.49097887098E+01 -0.24409942370E+02  0.54367028225E+02  0.39999872444E+02 0.  0.
        -12    1    3    3    0    0  0.27126235470E+02 -0.49097887098E+01  0.24409942370E+02  0.36820971775E+02  0.00000000000E+00 0.  1.
         11    1    4    4    0    0 -0.19529528523E+02  0.91245020588E+01 -0.13582769243E+02  0.25478434856E+02  0.51100000000E-03 0. -1.
        -11    1    4    4    0    0 -0.81337369782E+01  0.77442070813E+00 -0.18211665278E+02  0.19960514952E+02  0.51100000000E-03 0.  1.
         12    1    4    4    0    0  0.53703003101E+00 -0.49891340572E+01  0.73844921513E+01  0.89280784174E+01  0.00000000000E+00 0. -1.
</event>
<event>
 8    1  0.2432279E-006  0.9118800E+02  0.7816164E-02  0.1184000E+00
        -11   -1    0    0    0    0  0.00000000000E+00  0.00000000000E+00  0.45593999997E+02  0.45594000000E+02  0.51100000000E-03 0. -1.
         11   -1    0    0    0    0 -0.00000000000E+00 -0.00000000000E+00 -0.45593999997E+02  0.45594000000E+02  0.51100000000E-03 0.  1.
         23    2    1    2    0    0  0.00000000000E+00  0.17763568394E-14  0.00000000000E+00  0.91188000000E+02  0.91188000000E+02 0.  0.
    9900012    2    3    3    0    0 -0.34687759892E+02 -0.10762782480E+02 -0.60581449621E+01  0.54367091627E+02  0.40000016982E+02 0.  0.
         12    1    3    3    0    0  0.34687759892E+02  0.10762782480E+02  0.60581449621E+01  0.36820908373E+02  0.00000000000E+00 0. -1.
         11    1    4    4    0    0 -0.21314960468E+02 -0.81213549404E+01  0.85769844308E+01  0.24369009172E+02  0.51100000000E-03 0. -1.
        -11    1    4    4    0    0 -0.17001562883E+02 -0.61928902356E+01 -0.44744255459E+01  0.18639353909E+02  0.51100000000E-03 0.  1.
         12    1    4    4    0    0  0.36287634590E+01  0.35514626957E+01 -0.10160703847E+02  0.11358728546E+02  0.00000000000E+00 0. -1.
</event>
<event>
 8    1  0.2432279E-006  0.9118800E+02  0.7816164E-02  0.1184000E+00
        -11   -1    0    0    0    0  0.00000000000E+00  0.00000000000E+00  0.45593999997E+02  0.45594000000E+02  0.51100000000E-03 0. -1.
         11   -1    0    0    0    0 -0.00000000000E+00 -0.00000000000E+00 -0.45593999997E+02  0.45594000000E+02  0.51100000000E-03 0.  1.
         23    2    1    2    0    0  0.00000000000E+00  0.00000000000E+00 -0.17763568394E-14  0.91188000000E+02  0.91188000000E+02 0.  0.
    9900012    2    3    3    0    0  0.23332208856E+02 -0.23755544951E+02 -0.15718391079E+02  0.54367004574E+02  0.39999818528E+02 0.  0.
        -12    1    3    3    0    0 -0.23332208856E+02  0.23755544951E+02  0.15718391079E+02  0.36820995426E+02  0.00000000000E+00 0.  1.
         11    1    4    4    0    0  0.12320119212E+01 -0.81018231726E+01 -0.18794132775E+02  0.20503092916E+02  0.51100000000E-03 0. -1.
        -11    1    4    4    0    0 -0.36409504320E+01 -0.10732670350E+01  0.19292573050E+01  0.42579873399E+01  0.51100000000E-03 0.  1.
         12    1    4    4    0    0  0.25741147366E+02 -0.14580454744E+02  0.11464843917E+01  0.29605924318E+02  0.00000000000E+00 0. -1.
</event>
<event>
 8    1  0.2432279E-006  0.9118800E+02  0.7816164E-02  0.1184000E+00
        -11   -1    0    0    0    0  0.00000000000E+00  0.00000000000E+00  0.45593999997E+02  0.45594000000E+02  0.51100000000E-03 0.  1.
         11   -1    0    0    0    0 -0.00000000000E+00 -0.00000000000E+00 -0.45593999997E+02  0.45594000000E+02  0.51100000000E-03 0. -1.
         23    2    1    2    0    0  0.17763568394E-14 -0.71054273576E-14  0.00000000000E+00  0.91188000000E+02  0.91188000000E+02 0.  0.
    9900012    2    3    3    0    0  0.95125636519E+01  0.33376001312E+02  0.12301657857E+02  0.54367121183E+02  0.40000084361E+02 0.  0.
         12    1    3    3    0    0 -0.95125636519E+01 -0.33376001312E+02 -0.12301657857E+02  0.36820878817E+02  0.00000000000E+00 0. -1.
         11    1    4    4    0    0 -0.53490352076E+01  0.88905229181E+01  0.61132364544E+01  0.12042642385E+02  0.51100000000E-03 0. -1.
        -11    1    4    4    0    0  0.67612234680E+00 -0.69838488575E+01 -0.93448410602E+00  0.70784565477E+01  0.51100000000E-03 0.  1.
        -12    1    4    4    0    0  0.14185476513E+02  0.31469327252E+02  0.71229055082E+01  0.35246022250E+02  0.00000000000E+00 0.  1.
</event>
<event>
 8    1  0.2432279E-006  0.9118800E+02  0.7816164E-02  0.1184000E+00
        -11   -1    0    0    0    0  0.00000000000E+00  0.00000000000E+00  0.45593999997E+02  0.45594000000E+02  0.51100000000E-03 0. -1.
         11   -1    0    0    0    0 -0.00000000000E+00 -0.00000000000E+00 -0.45593999997E+02  0.45594000000E+02  0.51100000000E-03 0.  1.
         23    2    1    2    0    0  0.33306690739E-15  0.00000000000E+00 -0.88817841970E-15  0.91188000000E+02  0.91188000000E+02 0.  0.
    9900012    2    3    3    0    0 -0.75363378137E+00 -0.36454133592E+02  0.51292042846E+01  0.54367074476E+02  0.39999977883E+02 0.  0.
         12    1    3    3    0    0  0.75363378137E+00  0.36454133592E+02 -0.51292042846E+01  0.36820925524E+02  0.00000000000E+00 0. -1.
         11    1    4    4    0    0 -0.25918867600E+01  0.25797063278E+00  0.13119793885E+02  0.13375852035E+02  0.51100000000E-03 0. -1.
        -11    1    4    4    0    0  0.64641096628E+01 -0.11804342339E+02  0.22886211491E+01  0.13651556645E+02  0.51100000000E-03 0.  1.
         12    1    4    4    0    0 -0.46258566842E+01 -0.24907761886E+02 -0.10279210750E+02  0.27339665796E+02  0.00000000000E+00 0. -1.
</event>
<event>
 8    1  0.2432279E-006  0.9118800E+02  0.7816164E-02  0.1184000E+00
        -11   -1    0    0    0    0  0.00000000000E+00  0.00000000000E+00  0.45593999997E+02  0.45594000000E+02  0.51100000000E-03 0. -1.
         11   -1    0    0    0    0 -0.00000000000E+00 -0.00000000000E+00 -0.45593999997E+02  0.45594000000E+02  0.51100000000E-03 0.  1.
         23    2    1    2    0    0 -0.17763568394E-14  0.00000000000E+00  0.00000000000E+00  0.91188000000E+02  0.91188000000E+02 0.  0.
    9900012    2    3    3    0    0 -0.10489601431E+02  0.27737681309E+02  0.21825961174E+02  0.54367037441E+02  0.39999893454E+02 0.  0.
        -12    1    3    3    0    0  0.10489601431E+02 -0.27737681309E+02 -0.21825961174E+02  0.36820962559E+02  0.00000000000E+00 0.  1.
         11    1    4    4    0    0 -0.18432677481E+02  0.22707092352E+02  0.18248700971E+02  0.34473043521E+02  0.51100000000E-03 0. -1.
        -11    1    4    4    0    0  0.29543834206E+01 -0.48781946769E+01 -0.35409627645E+01  0.67129414017E+01  0.51100000000E-03 0.  1.
        -12    1    4    4    0    0  0.49886926296E+01  0.99087836345E+01  0.71182229684E+01  0.13181052519E+02  0.00000000000E+00 0.  1.
</event>
<event>
 8    1  0.2432279E-006  0.9118800E+02  0.7816164E-02  0.1184000E+00
        -11   -1    0    0    0    0  0.00000000000E+00  0.00000000000E+00  0.45593999997E+02  0.45594000000E+02  0.51100000000E-03 0. -1.
         11   -1    0    0    0    0 -0.00000000000E+00 -0.00000000000E+00 -0.45593999997E+02  0.45594000000E+02  0.51100000000E-03 0.  1.
         23    2    1    2    0    0 -0.88817841970E-15  0.00000000000E+00  0.00000000000E+00  0.91188000000E+02  0.91188000000E+02 0.  0.
    9900012    2    3    3    0    0  0.44298022916E+01  0.22566827082E+02 -0.28755795281E+02  0.54367073951E+02  0.39999976686E+02 0.  0.
         12    1    3    3    0    0 -0.44298022916E+01 -0.22566827082E+02  0.28755795281E+02  0.36820926049E+02  0.00000000000E+00 0. -1.
         11    1    4    4    0    0  0.15507201055E+02  0.15746090890E+02 -0.34852592806E+01  0.22373191444E+02  0.51100000000E-03 0. -1.
        -11    1    4    4    0    0 -0.96838364358E+01 -0.20117834191E+01 -0.87355388626E+01  0.13195969086E+02  0.51100000000E-03 0.  1.
         12    1    4    4    0    0 -0.13935623279E+01  0.88325196114E+01 -0.16534997137E+02  0.18797913421E+02  0.00000000000E+00 0. -1.
</event>
<event>
 8    1  0.2432279E-006  0.9118800E+02  0.7816164E-02  0.1184000E+00
        -11   -1    0    0    0    0  0.00000000000E+00  0.00000000000E+00  0.45593999997E+02  0.45594000000E+02  0.51100000000E-03 0.  1.
         11   -1    0    0    0    0 -0.00000000000E+00 -0.00000000000E+00 -0.45593999997E+02  0.45594000000E+02  0.51100000000E-03 0. -1.
         23    2    1    2    0    0  0.00000000000E+00  0.00000000000E+00  0.00000000000E+00  0.91188000000E+02  0.91188000000E+02 0.  0.
    9900012    2    3    3    0    0  0.17758812649E+02  0.30319018203E+02  0.11007305731E+02  0.54367094648E+02  0.40000023868E+02 0.  0.
         12    1    3    3    0    0 -0.17758812649E+02 -0.30319018203E+02 -0.11007305731E+02  0.36820905352E+02  0.00000000000E+00 0. -1.
         11    1    4    4    0    0 -0.10678973472E+01 -0.36716334659E+01 -0.70503981039E+00  0.38882359043E+01  0.51100000000E-03 0. -1.
        -11    1    4    4    0    0  0.33644703917E+01  0.84383523903E+01  0.17813052862E+02  0.19995757165E+02  0.51100000000E-03 0.  1.
         12    1    4    4    0    0  0.15462239604E+02  0.25552299279E+02 -0.61007073204E+01  0.30483101578E+02  0.00000000000E+00 0. -1.
</event>
<event>
 8    1  0.2432279E-006  0.9118800E+02  0.7816164E-02  0.1184000E+00
        -11   -1    0    0    0    0  0.00000000000E+00  0.00000000000E+00  0.45593999997E+02  0.45594000000E+02  0.51100000000E-03 0. -1.
         11   -1    0    0    0    0 -0.00000000000E+00 -0.00000000000E+00 -0.45593999997E+02  0.45594000000E+02  0.51100000000E-03 0.  1.
         23    2    1    2    0    0 -0.35527136788E-14  0.00000000000E+00  0.00000000000E+00  0.91188000000E+02  0.91188000000E+02 0.  0.
    9900012    2    3    3    0    0  0.19826427299E+02 -0.22181600764E+02  0.21694906295E+02  0.54367087586E+02  0.40000007769E+02 0.  0.
        -12    1    3    3    0    0 -0.19826427299E+02  0.22181600764E+02 -0.21694906295E+02  0.36820912414E+02  0.00000000000E+00 0.  1.
         11    1    4    4    0    0  0.97645836827E+01 -0.10173267040E+02  0.58095303521E+01  0.15251003244E+02  0.51100000000E-03 0. -1.
        -11    1    4    4    0    0  0.90768972372E+01 -0.79089816920E+01 -0.82632641610E+01  0.14602177568E+02  0.51100000000E-03 0.  1.
         12    1    4    4    0    0  0.98494637862E+00 -0.40993520316E+01  0.24148640104E+02  0.24513906774E+02  0.00000000000E+00 0. -1.
</event>
<event>
 8    1  0.2432279E-006  0.9118800E+02  0.7816164E-02  0.1184000E+00
        -11   -1    0    0    0    0  0.00000000000E+00  0.00000000000E+00  0.45593999997E+02  0.45594000000E+02  0.51100000000E-03 0.  1.
         11   -1    0    0    0    0 -0.00000000000E+00 -0.00000000000E+00 -0.45593999997E+02  0.45594000000E+02  0.51100000000E-03 0. -1.
         23    2    1    2    0    0 -0.71054273576E-14  0.00000000000E+00  0.17763568394E-14  0.91188000000E+02  0.91188000000E+02 0.  0.
    9900012    2    3    3    0    0 -0.26149224802E+02  0.21112194494E+02 -0.15042374399E+02  0.54367085540E+02  0.40000003106E+02 0.  0.
        -12    1    3    3    0    0  0.26149224802E+02 -0.21112194494E+02  0.15042374399E+02  0.36820914460E+02  0.00000000000E+00 0.  1.
         11    1    4    4    0    0 -0.10111176176E+02 -0.16959328179E+01 -0.26424301595E+01  0.10587469442E+02  0.51100000000E-03 0. -1.
        -11    1    4    4    0    0  0.92711380759E+01  0.31648418024E+01 -0.45098243062E+01  0.10784653003E+02  0.51100000000E-03 0.  1.
        -12    1    4    4    0    0 -0.25309186702E+02  0.19643285509E+02 -0.78901199334E+01  0.32994963096E+02  0.00000000000E+00 0.  1.
</event>
<event>
 8    1  0.2432279E-006  0.9118800E+02  0.7816164E-02  0.1184000E+00
        -11   -1    0    0    0    0  0.00000000000E+00  0.00000000000E+00  0.45593999997E+02  0.45594000000E+02  0.51100000000E-03 0.  1.
         11   -1    0    0    0    0 -0.00000000000E+00 -0.00000000000E+00 -0.45593999997E+02  0.45594000000E+02  0.51100000000E-03 0. -1.
         23    2    1    2    0    0 -0.17763568394E-14 -0.35527136788E-14  0.00000000000E+00  0.91188000000E+02  0.91188000000E+02 0.  0.
    9900012    2    3    3    0    0 -0.75292655810E+01 -0.21120586336E+02  0.29206342397E+02  0.54367089588E+02  0.40000012333E+02 0.  0.
         12    1    3    3    0    0  0.75292655810E+01  0.21120586336E+02 -0.29206342397E+02  0.36820910412E+02  0.00000000000E+00 0. -1.
         11    1    4    4    0    0 -0.50095686828E+01 -0.10298786429E+02  0.92404789976E+01  0.14715543913E+02  0.51100000000E-03 0.  1.
        -11    1    4    4    0    0  0.13100755645E+02 -0.10434653161E+02  0.38112123178E+01  0.17176644744E+02  0.51100000000E-03 0. -1.
         12    1    4    4    0    0 -0.15620452543E+02 -0.38714674578E+00  0.16154651082E+02  0.22474900931E+02  0.00000000000E+00 0. -1.
</event>
<event>
 8    1  0.2432279E-006  0.9118800E+02  0.7816164E-02  0.1184000E+00
        -11   -1    0    0    0    0  0.00000000000E+00  0.00000000000E+00  0.45593999997E+02  0.45594000000E+02  0.51100000000E-03 0. -1.
         11   -1    0    0    0    0 -0.00000000000E+00 -0.00000000000E+00 -0.45593999997E+02  0.45594000000E+02  0.51100000000E-03 0.  1.
         23    2    1    2    0    0  0.00000000000E+00 -0.17763568394E-14  0.71054273576E-14  0.91188000000E+02  0.91188000000E+02 0.  0.
    9900012    2    3    3    0    0 -0.48760469269E+01 -0.13707674555E+02  0.33824587666E+02  0.54367096886E+02  0.40000028971E+02 0.  0.
        -12    1    3    3    0    0  0.48760469269E+01  0.13707674555E+02 -0.33824587666E+02  0.36820903114E+02  0.00000000000E+00 0.  1.
         11    1    4    4    0    0  0.39990045985E+01  0.15650771893E+01  0.30251485788E+02  0.30554768809E+02  0.51100000000E-03 0. -1.
        -11    1    4    4    0    0  0.95754926986E-01 -0.69642728428E+01  0.81822228061E+01  0.10745186622E+02  0.51100000000E-03 0.  1.
         12    1    4    4    0    0 -0.89708064524E+01 -0.83084789018E+01 -0.46091209277E+01  0.13067141455E+02  0.00000000000E+00 0. -1.
</event>
<event>
 8    1  0.2432279E-006  0.9118800E+02  0.7816164E-02  0.1184000E+00
        -11   -1    0    0    0    0  0.00000000000E+00  0.00000000000E+00  0.45593999997E+02  0.45594000000E+02  0.51100000000E-03 0. -1.
         11   -1    0    0    0    0 -0.00000000000E+00 -0.00000000000E+00 -0.45593999997E+02  0.45594000000E+02  0.51100000000E-03 0.  1.
         23    2    1    2    0    0  0.00000000000E+00  0.00000000000E+00  0.35527136788E-14  0.91188000000E+02  0.91188000000E+02 0.  0.
    9900012    2    3    3    0    0 -0.94594852772E+01 -0.16801638055E+02 -0.31368745388E+02  0.54367148703E+02  0.40000147098E+02 0.  0.
        -12    1    3    3    0    0  0.94594852772E+01  0.16801638055E+02  0.31368745388E+02  0.36820851297E+02  0.00000000000E+00 0.  1.
         11    1    4    4    0    0 -0.78116695186E+01  0.55786611055E-01 -0.34699739082E+00  0.78195716164E+01  0.51100000000E-03 0. -1.
        -11    1    4    4    0    0 -0.12270276805E+02 -0.18048028838E+02 -0.12466426505E+02  0.25133699049E+02  0.51100000000E-03 0.  1.
        -12    1    4    4    0    0  0.10622461046E+02  0.11906041714E+01 -0.18555321491E+02  0.21413878038E+02  0.00000000000E+00 0.  1.
</event>
<event>
 8    1  0.2432279E-006  0.9118800E+02  0.7816164E-02  0.1184000E+00
        -11   -1    0    0    0    0  0.00000000000E+00  0.00000000000E+00  0.45593999997E+02  0.45594000000E+02  0.51100000000E-03 0.  1.
         11   -1    0    0    0    0 -0.00000000000E+00 -0.00000000000E+00 -0.45593999997E+02  0.45594000000E+02  0.51100000000E-03 0. -1.
         23    2    1    2    0    0  0.71054273576E-14  0.00000000000E+00 -0.44408920985E-15  0.91188000000E+02  0.91188000000E+02 0.  0.
    9900012    2    3    3    0    0 -0.33975328891E+02 -0.13971464941E+02  0.25019271691E+01  0.54367021667E+02  0.39999857494E+02 0.  0.
        -12    1    3    3    0    0  0.33975328891E+02  0.13971464941E+02 -0.25019271691E+01  0.36820978333E+02  0.00000000000E+00 0.  1.
         11    1    4    4    0    0 -0.27969672416E+01 -0.49387301384E+01  0.26151014165E+01  0.62492268970E+01  0.51100000000E-03 0. -1.
        -11    1    4    4    0    0  0.64457029482E+01  0.48868938691E+00  0.60113643197E+01  0.88273668247E+01  0.51100000000E-03 0.  1.
         12    1    4    4    0    0 -0.37624064598E+02 -0.95214241898E+01 -0.61245385671E+01  0.39290427945E+02  0.00000000000E+00 0. -1.
</event>
<event>
 8    1  0.2432279E-006  0.9118800E+02  0.7816164E-02  0.1184000E+00
        -11   -1    0    0    0    0  0.00000000000E+00  0.00000000000E+00  0.45593999997E+02  0.45594000000E+02  0.51100000000E-03 0. -1.
         11   -1    0    0    0    0 -0.00000000000E+00 -0.00000000000E+00 -0.45593999997E+02  0.45594000000E+02  0.51100000000E-03 0.  1.
         23    2    1    2    0    0  0.35527136788E-14  0.00000000000E+00  0.35527136788E-14  0.91188000000E+02  0.91188000000E+02 0.  0.
    9900012    2    3    3    0    0 -0.23519639839E+02 -0.13926780106E+02 -0.24670888084E+02  0.54367063277E+02  0.39999952353E+02 0.  0.
         12    1    3    3    0    0  0.23519639839E+02  0.13926780106E+02  0.24670888084E+02  0.36820936723E+02  0.00000000000E+00 0. -1.
         11    1    4    4    0    0  0.59584313026E+01 -0.95176078091E+01 -0.13328980317E+02  0.17428410098E+02  0.51100000000E-03 0. -1.
        -11    1    4    4    0    0 -0.12607857813E+02  0.72842666770E+01 -0.35883469692E+01  0.14996494720E+02  0.51100000000E-03 0.  1.
         12    1    4    4    0    0 -0.16870213328E+02 -0.11693438974E+02 -0.77535607982E+01  0.21942158459E+02  0.00000000000E+00 0. -1.
</event>
<event>
 8    1  0.2432279E-006  0.9118800E+02  0.7816164E-02  0.1184000E+00
        -11   -1    0    0    0    0  0.00000000000E+00  0.00000000000E+00  0.45593999997E+02  0.45594000000E+02  0.51100000000E-03 0.  1.
         11   -1    0    0    0    0 -0.00000000000E+00 -0.00000000000E+00 -0.45593999997E+02  0.45594000000E+02  0.51100000000E-03 0. -1.
         23    2    1    2    0    0 -0.35527136788E-14  0.00000000000E+00 -0.35527136788E-14  0.91188000000E+02  0.91188000000E+02 0.  0.
    9900012    2    3    3    0    0  0.22562725356E+02  0.94081540832E+01  0.27535261092E+02  0.54367074670E+02  0.39999978324E+02 0.  0.
         12    1    3    3    0    0 -0.22562725356E+02 -0.94081540832E+01 -0.27535261092E+02  0.36820925330E+02  0.00000000000E+00 0. -1.
         11    1    4    4    0    0  0.29318998426E+02 -0.56016625978E+00  0.10831500993E+02  0.31260820030E+02  0.51100000000E-03 0. -1.
        -11    1    4    4    0    0  0.13822601001E+00  0.98665334800E+00  0.97879328464E+01  0.98385070476E+01  0.51100000000E-03 0.  1.
         12    1    4    4    0    0 -0.68944990795E+01  0.89816669950E+01  0.69158272533E+01  0.13267747592E+02  0.00000000000E+00 0. -1.
</event>
<event>
 8    1  0.2432279E-006  0.9118800E+02  0.7816164E-02  0.1184000E+00
        -11   -1    0    0    0    0  0.00000000000E+00  0.00000000000E+00  0.45593999997E+02  0.45594000000E+02  0.51100000000E-03 0. -1.
         11   -1    0    0    0    0 -0.00000000000E+00 -0.00000000000E+00 -0.45593999997E+02  0.45594000000E+02  0.51100000000E-03 0.  1.
         23    2    1    2    0    0  0.00000000000E+00 -0.71054273576E-14  0.00000000000E+00  0.91188000000E+02  0.91188000000E+02 0.  0.
    9900012    2    3    3    0    0 -0.15920016247E+02 -0.32579652451E+02 -0.63953221704E+01  0.54367070940E+02  0.39999969822E+02 0.  0.
         12    1    3    3    0    0  0.15920016247E+02  0.32579652451E+02  0.63953221704E+01  0.36820929060E+02  0.00000000000E+00 0. -1.
         11    1    4    4    0    0  0.19566780641E+01 -0.17666617907E+02  0.76199926104E+00  0.17790970195E+02  0.51100000000E-03 0. -1.
        -11    1    4    4    0    0 -0.69127831815E+01 -0.17919750347E+02  0.50855591857E+01  0.19868742696E+02  0.51100000000E-03 0.  1.
        -12    1    4    4    0    0 -0.10963911130E+02  0.30067158036E+01 -0.12242880617E+02  0.16707358050E+02  0.00000000000E+00 0.  1.
</event>
<event>
 8    1  0.2432279E-006  0.9118800E+02  0.7816164E-02  0.1184000E+00
        -11   -1    0    0    0    0  0.00000000000E+00  0.00000000000E+00  0.45593999997E+02  0.45594000000E+02  0.51100000000E-03 0. -1.
         11   -1    0    0    0    0 -0.00000000000E+00 -0.00000000000E+00 -0.45593999997E+02  0.45594000000E+02  0.51100000000E-03 0.  1.
         23    2    1    2    0    0 -0.39968028887E-14  0.71054273576E-14 -0.17763568394E-14  0.91188000000E+02  0.91188000000E+02 0.  0.
    9900012    2    3    3    0    0 -0.31481220708E+01 -0.33246218137E+02  0.15509920596E+02  0.54367091132E+02  0.40000015853E+02 0.  0.
         12    1    3    3    0    0  0.31481220708E+01  0.33246218137E+02 -0.15509920596E+02  0.36820908868E+02  0.00000000000E+00 0. -1.
         11    1    4    4    0    0 -0.20962461814E+02 -0.21834218729E+02  0.13166805425E+02  0.33007918416E+02  0.51100000000E-03 0. -1.
        -11    1    4    4    0    0  0.80106560814E+01 -0.41275805043E+01  0.12244699839E+01  0.90943311286E+01  0.51100000000E-03 0.  1.
         12    1    4    4    0    0  0.98036836618E+01 -0.72844189032E+01  0.11186451880E+01  0.12264841587E+02  0.00000000000E+00 0. -1.
</event>
<event>
 8    1  0.2432279E-006  0.9118800E+02  0.7816164E-02  0.1184000E+00
        -11   -1    0    0    0    0  0.00000000000E+00  0.00000000000E+00  0.45593999997E+02  0.45594000000E+02  0.51100000000E-03 0. -1.
         11   -1    0    0    0    0 -0.00000000000E+00 -0.00000000000E+00 -0.45593999997E+02  0.45594000000E+02  0.51100000000E-03 0.  1.
         23    2    1    2    0    0  0.17763568394E-14  0.00000000000E+00  0.00000000000E+00  0.91188000000E+02  0.91188000000E+02 0.  0.
    9900012    2    3    3    0    0 -0.13646805437E+02 -0.26170510593E+02 -0.22014754642E+02  0.54367077344E+02  0.39999984420E+02 0.  0.
         12    1    3    3    0    0  0.13646805437E+02  0.26170510593E+02  0.22014754642E+02  0.36820922656E+02  0.00000000000E+00 0. -1.
         11    1    4    4    0    0 -0.18592008131E+02 -0.32166078064E+01 -0.15326416748E+02  0.24308607173E+02  0.51100000000E-03 0. -1.
        -11    1    4    4    0    0 -0.23439311519E+01 -0.16483958070E+02  0.22905598573E+01  0.16806592505E+02  0.51100000000E-03 0.  1.
         12    1    4    4    0    0  0.72891338452E+01 -0.64699447163E+01 -0.89788977512E+01  0.13251877666E+02  0.00000000000E+00 0. -1.
</event>
<event>
 8    1  0.2432279E-006  0.9118800E+02  0.7816164E-02  0.1184000E+00
        -11   -1    0    0    0    0  0.00000000000E+00  0.00000000000E+00  0.45593999997E+02  0.45594000000E+02  0.51100000000E-03 0.  1.
         11   -1    0    0    0    0 -0.00000000000E+00 -0.00000000000E+00 -0.45593999997E+02  0.45594000000E+02  0.51100000000E-03 0. -1.
         23    2    1    2    0    0  0.00000000000E+00  0.00000000000E+00  0.00000000000E+00  0.91188000000E+02  0.91188000000E+02 0.  0.
    9900012    2    3    3    0    0 -0.29197324605E+02 -0.20068003595E+02 -0.10028510665E+02  0.54367088027E+02  0.40000008775E+02 0.  0.
        -12    1    3    3    0    0  0.29197324605E+02  0.20068003595E+02  0.10028510665E+02  0.36820911973E+02  0.00000000000E+00 0.  1.
         11    1    4    4    0    0 -0.20815747415E+01 -0.89431997262E+01 -0.14591608945E+02  0.17240325595E+02  0.51100000000E-03 0. -1.
        -11    1    4    4    0    0 -0.14323932179E+02 -0.12632632247E+02 -0.64722643650E+01  0.20165530909E+02  0.51100000000E-03 0.  1.
        -12    1    4    4    0    0 -0.12791817684E+02  0.15078283785E+01  0.11035362645E+02  0.16961231523E+02  0.00000000000E+00 0.  1.
</event>
<event>
 8    1  0.2432279E-006  0.9118800E+02  0.7816164E-02  0.1184000E+00
        -11   -1    0    0    0    0  0.00000000000E+00  0.00000000000E+00  0.45593999997E+02  0.45594000000E+02  0.51100000000E-03 0.  1.
         11   -1    0    0    0    0 -0.00000000000E+00 -0.00000000000E+00 -0.45593999997E+02  0.45594000000E+02  0.51100000000E-03 0. -1.
         23    2    1    2    0    0  0.35527136788E-14  0.17763568394E-14  0.00000000000E+00  0.91188000000E+02  0.91188000000E+02 0.  0.
    9900012    2    3    3    0    0 -0.26558886986E+02 -0.14763018465E+02 -0.20795640725E+02  0.54367083861E+02  0.39999999278E+02 0.  0.
        -12    1    3    3    0    0  0.26558886986E+02  0.14763018465E+02  0.20795640725E+02  0.36820916139E+02  0.00000000000E+00 0.  1.
         11    1    4    4    0    0 -0.26088264911E+02 -0.98488875299E+01 -0.15077370370E+02  0.31700555976E+02  0.51100000000E-03 0. -1.
        -11    1    4    4    0    0 -0.29807113884E+01  0.38716525229E+01 -0.11053746916E+02  0.12085514254E+02  0.51100000000E-03 0.  1.
        -12    1    4    4    0    0  0.25100893139E+01 -0.87857834584E+01  0.53354765599E+01  0.10581013631E+02  0.00000000000E+00 0.  1.
</event>
<event>
 8    1  0.2432279E-006  0.9118800E+02  0.7816164E-02  0.1184000E+00
        -11   -1    0    0    0    0  0.00000000000E+00  0.00000000000E+00  0.45593999997E+02  0.45594000000E+02  0.51100000000E-03 0.  1.
         11   -1    0    0    0    0 -0.00000000000E+00 -0.00000000000E+00 -0.45593999997E+02  0.45594000000E+02  0.51100000000E-03 0. -1.
         23    2    1    2    0    0  0.00000000000E+00  0.35527136788E-14  0.00000000000E+00  0.91188000000E+02  0.91188000000E+02 0.  0.
    9900012    2    3    3    0    0  0.27310684345E+02 -0.21934655712E+02  0.11348017377E+02  0.54367080688E+02  0.39999992045E+02 0.  0.
        -12    1    3    3    0    0 -0.27310684345E+02  0.21934655712E+02 -0.11348017377E+02  0.36820919312E+02  0.00000000000E+00 0.  1.
         11    1    4    4    0    0  0.81965435692E+01 -0.46245773416E+01  0.10094576714E+02  0.13801105802E+02  0.51100000000E-03 0. -1.
        -11    1    4    4    0    0  0.22540532774E+02 -0.21596380624E+02  0.76477810877E+01  0.32139816888E+02  0.51100000000E-03 0.  1.
         12    1    4    4    0    0 -0.34263919989E+01  0.42863022533E+01 -0.63943404244E+01  0.84261579976E+01  0.00000000000E+00 0. -1.
</event>
<event>
 8    1  0.2432279E-006  0.9118800E+02  0.7816164E-02  0.1184000E+00
        -11   -1    0    0    0    0  0.00000000000E+00  0.00000000000E+00  0.45593999997E+02  0.45594000000E+02  0.51100000000E-03 0.  1.
         11   -1    0    0    0    0 -0.00000000000E+00 -0.00000000000E+00 -0.45593999997E+02  0.45594000000E+02  0.51100000000E-03 0. -1.
         23    2    1    2    0    0 -0.17763568394E-14  0.00000000000E+00  0.00000000000E+00  0.91188000000E+02  0.91188000000E+02 0.  0.
    9900012    2    3    3    0    0  0.10163625136E+02 -0.28924422700E+02 -0.20392568495E+02  0.54367104380E+02  0.40000046056E+02 0.  0.
        -12    1    3    3    0    0 -0.10163625136E+02  0.28924422700E+02  0.20392568495E+02  0.36820895620E+02  0.00000000000E+00 0.  1.
         11    1    4    4    0    0  0.34814904521E+01 -0.26097943850E+02 -0.10314861584E+02  0.28277549730E+02  0.51100000000E-03 0. -1.
        -11    1    4    4    0    0  0.97594912443E+01 -0.21096129716E+01  0.46586716603E+01  0.11018228448E+02  0.51100000000E-03 0.  1.
         12    1    4    4    0    0 -0.30773565606E+01 -0.71686587813E+00 -0.14736378572E+02  0.15071326202E+02  0.00000000000E+00 0. -1.
</event>
<event>
 8    1  0.2432279E-006  0.9118800E+02  0.7816164E-02  0.1184000E+00
        -11   -1    0    0    0    0  0.00000000000E+00  0.00000000000E+00  0.45593999997E+02  0.45594000000E+02  0.51100000000E-03 0.  1.
         11   -1    0    0    0    0 -0.00000000000E+00 -0.00000000000E+00 -0.45593999997E+02  0.45594000000E+02  0.51100000000E-03 0. -1.
         23    2    1    2    0    0  0.35527136788E-14 -0.35527136788E-14 -0.17763568394E-14  0.91188000000E+02  0.91188000000E+02 0.  0.
    9900012    2    3    3    0    0 -0.14979344903E+02  0.30238363354E+02 -0.14732296165E+02  0.54367082815E+02  0.39999996894E+02 0.  0.
         12    1    3    3    0    0  0.14979344903E+02 -0.30238363354E+02  0.14732296165E+02  0.36820917185E+02  0.00000000000E+00 0. -1.
         11    1    4    4    0    0  0.92345197652E+01 -0.26401341726E+01 -0.28580789659E+01  0.10020742456E+02  0.51100000000E-03 0. -1.
        -11    1    4    4    0    0 -0.60121063752E+01  0.18335262361E+02 -0.36422745723E+01  0.19636533127E+02  0.51100000000E-03 0.  1.
         12    1    4    4    0    0 -0.18201758293E+02  0.14543235165E+02 -0.82319426268E+01  0.24709807232E+02  0.00000000000E+00 0. -1.
</event>
<event>
 8    1  0.2432279E-006  0.9118800E+02  0.7816164E-02  0.1184000E+00
        -11   -1    0    0    0    0  0.00000000000E+00  0.00000000000E+00  0.45593999997E+02  0.45594000000E+02  0.51100000000E-03 0. -1.
         11   -1    0    0    0    0 -0.00000000000E+00 -0.00000000000E+00 -0.45593999997E+02  0.45594000000E+02  0.51100000000E-03 0.  1.
         23    2    1    2    0    0  0.00000000000E+00  0.88817841970E-15  0.00000000000E+00  0.91188000000E+02  0.91188000000E+02 0.  0.
    9900012    2    3    3    0    0 -0.41097983493E+01  0.40026872291E+01  0.36371251258E+02  0.54367083857E+02  0.39999999269E+02 0.  0.
        -12    1    3    3    0    0  0.41097983493E+01 -0.40026872291E+01 -0.36371251258E+02  0.36820916143E+02  0.00000000000E+00 0.  1.
         11    1    4    4    0    0 -0.10512237562E+02  0.50456343522E+01  0.36401217654E+02  0.38223215609E+02  0.51100000000E-03 0. -1.
        -11    1    4    4    0    0  0.74789705983E+01 -0.22411957776E+01  0.60353466190E+01  0.98683012113E+01  0.51100000000E-03 0.  1.
        -12    1    4    4    0    0 -0.10765313860E+01  0.11982486544E+01 -0.60653130149E+01  0.62755670366E+01  0.00000000000E+00 0.  1.
</event>
<event>
 8    1  0.2432279E-006  0.9118800E+02  0.7816164E-02  0.1184000E+00
        -11   -1    0    0    0    0  0.00000000000E+00  0.00000000000E+00  0.45593999997E+02  0.45594000000E+02  0.51100000000E-03 0. -1.
         11   -1    0    0    0    0 -0.00000000000E+00 -0.00000000000E+00 -0.45593999997E+02  0.45594000000E+02  0.51100000000E-03 0.  1.
         23    2    1    2    0    0  0.00000000000E+00  0.00000000000E+00  0.00000000000E+00  0.91188000000E+02  0.91188000000E+02 0.  0.
    9900012    2    3    3    0    0 -0.30971851271E+02  0.11794975448E+02 -0.16043765621E+02  0.54367089741E+02  0.40000012683E+02 0.  0.
         12    1    3    3    0    0  0.30971851271E+02 -0.11794975448E+02  0.16043765621E+02  0.36820910259E+02  0.00000000000E+00 0. -1.
         11    1    4    4    0    0 -0.65385394943E+01  0.11414321878E+02 -0.19128836704E+01  0.13292793794E+02  0.51100000000E-03 0. -1.
        -11    1    4    4    0    0 -0.21029372787E+02  0.70423090168E+01 -0.21273627412E+02  0.30731024383E+02  0.51100000000E-03 0.  1.
        -12    1    4    4    0    0 -0.34039389897E+01 -0.66616554463E+01  0.71427454616E+01  0.10343271565E+02  0.00000000000E+00 0.  1.
</event>
<event>
 8    1  0.2432279E-006  0.9118800E+02  0.7816164E-02  0.1184000E+00
        -11   -1    0    0    0    0  0.00000000000E+00  0.00000000000E+00  0.45593999997E+02  0.45594000000E+02  0.51100000000E-03 0. -1.
         11   -1    0    0    0    0 -0.00000000000E+00 -0.00000000000E+00 -0.45593999997E+02  0.45594000000E+02  0.51100000000E-03 0.  1.
         23    2    1    2    0    0 -0.35527136788E-14  0.00000000000E+00  0.35527136788E-14  0.91188000000E+02  0.91188000000E+02 0.  0.
    9900012    2    3    3    0    0 -0.23981061006E+02  0.16222798919E+02 -0.22748811961E+02  0.54367096462E+02  0.40000028004E+02 0.  0.
         12    1    3    3    0    0  0.23981061006E+02 -0.16222798919E+02  0.22748811961E+02  0.36820903538E+02  0.00000000000E+00 0. -1.
         11    1    4    4    0    0 -0.88159928572E+01  0.19133093713E+02  0.78003122306E+00  0.21080926310E+02  0.51100000000E-03 0. -1.
        -11    1    4    4    0    0 -0.71553339602E+01  0.43354271761E+01 -0.11600884245E+01  0.84463328312E+01  0.51100000000E-03 0.  1.
        -12    1    4    4    0    0 -0.80097341884E+01 -0.72457219702E+01 -0.22368754760E+02  0.24839837321E+02  0.00000000000E+00 0.  1.
</event>
<event>
 8    1  0.2432279E-006  0.9118800E+02  0.7816164E-02  0.1184000E+00
        -11   -1    0    0    0    0  0.00000000000E+00  0.00000000000E+00  0.45593999997E+02  0.45594000000E+02  0.51100000000E-03 0. -1.
         11   -1    0    0    0    0 -0.00000000000E+00 -0.00000000000E+00 -0.45593999997E+02  0.45594000000E+02  0.51100000000E-03 0.  1.
         23    2    1    2    0    0  0.00000000000E+00  0.44408920985E-15 -0.15543122345E-14  0.91188000000E+02  0.91188000000E+02 0.  0.
    9900012    2    3    3    0    0 -0.36790535158E+02  0.69989621138E+00  0.13216675179E+01  0.54367080173E+02  0.39999990870E+02 0.  0.
         12    1    3    3    0    0  0.36790535158E+02 -0.69989621138E+00 -0.13216675179E+01  0.36820919827E+02  0.00000000000E+00 0. -1.
         11    1    4    4    0    0 -0.28915010375E+01  0.12368165515E+02  0.10306276842E+02  0.16357005810E+02  0.51100000000E-03 0. -1.
        -11    1    4    4    0    0 -0.17448684400E+02 -0.13810361610E+01 -0.49951700789E+01  0.18202076050E+02  0.51100000000E-03 0.  1.
         12    1    4    4    0    0 -0.16450349721E+02 -0.10287233143E+02 -0.39894392451E+01  0.19807998313E+02  0.00000000000E+00 0. -1.
</event>
<event>
 8    1  0.2432279E-006  0.9118800E+02  0.7816164E-02  0.1184000E+00
        -11   -1    0    0    0    0  0.00000000000E+00  0.00000000000E+00  0.45593999997E+02  0.45594000000E+02  0.51100000000E-03 0.  1.
         11   -1    0    0    0    0 -0.00000000000E+00 -0.00000000000E+00 -0.45593999997E+02  0.45594000000E+02  0.51100000000E-03 0. -1.
         23    2    1    2    0    0  0.00000000000E+00  0.17763568394E-14  0.00000000000E+00  0.91188000000E+02  0.91188000000E+02 0.  0.
    9900012    2    3    3    0    0 -0.54577928347E+01 -0.82792457766E+01 -0.35460521323E+02  0.54367055067E+02  0.39999933637E+02 0.  0.
        -12    1    3    3    0    0  0.54577928347E+01  0.82792457766E+01  0.35460521323E+02  0.36820944933E+02  0.00000000000E+00 0.  1.
         11    1    4    4    0    0 -0.10085807064E+02  0.44909886908E+01 -0.20574274526E+02  0.23349373783E+02  0.51100000000E-03 0. -1.
        -11    1    4    4    0    0 -0.12039596749E+01  0.66871307832E+01 -0.49402266716E+01  0.84007783472E+01  0.51100000000E-03 0.  1.
        -12    1    4    4    0    0  0.58319739041E+01 -0.19457365251E+02 -0.99460201254E+01  0.22616902937E+02  0.00000000000E+00 0.  1.
</event>
<event>
 8    1  0.2432279E-006  0.9118800E+02  0.7816164E-02  0.1184000E+00
        -11   -1    0    0    0    0  0.00000000000E+00  0.00000000000E+00  0.45593999997E+02  0.45594000000E+02  0.51100000000E-03 0.  1.
         11   -1    0    0    0    0 -0.00000000000E+00 -0.00000000000E+00 -0.45593999997E+02  0.45594000000E+02  0.51100000000E-03 0. -1.
         23    2    1    2    0    0  0.00000000000E+00  0.17763568394E-14  0.00000000000E+00  0.91188000000E+02  0.91188000000E+02 0.  0.
    9900012    2    3    3    0    0 -0.31551542606E+02 -0.55998114661E+01 -0.18136213881E+02  0.54367082260E+02  0.39999995628E+02 0.  0.
        -12    1    3    3    0    0  0.31551542606E+02  0.55998114661E+01  0.18136213881E+02  0.36820917740E+02  0.00000000000E+00 0.  1.
         11    1    4    4    0    0 -0.16579147851E+02  0.10619815890E+02 -0.22961733392E+02  0.30247145876E+02  0.51100000000E-03 0. -1.
        -11    1    4    4    0    0 -0.52778690150E+01 -0.22096049656E+01  0.41520176927E+01  0.70694771111E+01  0.51100000000E-03 0.  1.
         12    1    4    4    0    0 -0.96945257408E+01 -0.14010022391E+02  0.67350181841E+00  0.17050459273E+02  0.00000000000E+00 0. -1.
</event>
<event>
 8    1  0.2432279E-006  0.9118800E+02  0.7816164E-02  0.1184000E+00
        -11   -1    0    0    0    0  0.00000000000E+00  0.00000000000E+00  0.45593999997E+02  0.45594000000E+02  0.51100000000E-03 0.  1.
         11   -1    0    0    0    0 -0.00000000000E+00 -0.00000000000E+00 -0.45593999997E+02  0.45594000000E+02  0.51100000000E-03 0. -1.
         23    2    1    2    0    0  0.88817841970E-15  0.71054273576E-14  0.00000000000E+00  0.91188000000E+02  0.91188000000E+02 0.  0.
    9900012    2    3    3    0    0  0.45782625061E+01  0.34723839899E+02  0.11361183194E+02  0.54367054487E+02  0.39999932314E+02 0.  0.
        -12    1    3    3    0    0 -0.45782625061E+01 -0.34723839899E+02 -0.11361183194E+02  0.36820945513E+02  0.00000000000E+00 0.  1.
         11    1    4    4    0    0 -0.17816494890E-01  0.91580914881E+01  0.11117499143E+02  0.14403810072E+02  0.51100000000E-03 0. -1.
        -11    1    4    4    0    0 -0.68373834185E+01  0.27003341400E+02 -0.29340912565E+01  0.28009626034E+02  0.51100000000E-03 0.  1.
        -12    1    4    4    0    0  0.11433462419E+02 -0.14375929892E+01  0.31777753077E+01  0.11953618381E+02  0.00000000000E+00 0.  1.
</event>
<event>
 8    1  0.2432279E-006  0.9118800E+02  0.7816164E-02  0.1184000E+00
        -11   -1    0    0    0    0  0.00000000000E+00  0.00000000000E+00  0.45593999997E+02  0.45594000000E+02  0.51100000000E-03 0.  1.
         11   -1    0    0    0    0 -0.00000000000E+00 -0.00000000000E+00 -0.45593999997E+02  0.45594000000E+02  0.51100000000E-03 0. -1.
         23    2    1    2    0    0 -0.17763568394E-14 -0.71054273576E-14 -0.88817841970E-15  0.91188000000E+02  0.91188000000E+02 0.  0.
    9900012    2    3    3    0    0  0.15314413042E+02  0.32699107492E+02  0.72122567200E+01  0.54367088488E+02  0.40000009826E+02 0.  0.
        -12    1    3    3    0    0 -0.15314413042E+02 -0.32699107492E+02 -0.72122567200E+01  0.36820911512E+02  0.00000000000E+00 0.  1.
         11    1    4    4    0    0  0.10189617684E+01 -0.23753918672E+01 -0.81141847038E+00  0.27090902170E+01  0.51100000000E-03 0. -1.
        -11    1    4    4    0    0  0.15672979647E+02  0.10388661704E+01 -0.27183819914E+01  0.15940863679E+02  0.51100000000E-03 0.  1.
         12    1    4    4    0    0 -0.13775283730E+01  0.34035633189E+02  0.10742057182E+02  0.35717134592E+02  0.00000000000E+00 0. -1.
</event>
<event>
 8    1  0.2432279E-006  0.9118800E+02  0.7816164E-02  0.1184000E+00
        -11   -1    0    0    0    0  0.00000000000E+00  0.00000000000E+00  0.45593999997E+02  0.45594000000E+02  0.51100000000E-03 0. -1.
         11   -1    0    0    0    0 -0.00000000000E+00 -0.00000000000E+00 -0.45593999997E+02  0.45594000000E+02  0.51100000000E-03 0.  1.
         23    2    1    2    0    0  0.66613381478E-15  0.35527136788E-14  0.00000000000E+00  0.91188000000E+02  0.91188000000E+02 0.  0.
    9900012    2    3    3    0    0 -0.13410300266E+01  0.29162527761E+02 -0.22439498235E+02  0.54367048519E+02  0.39999918709E+02 0.  0.
         12    1    3    3    0    0  0.13410300266E+01 -0.29162527761E+02  0.22439498235E+02  0.36820951481E+02  0.00000000000E+00 0. -1.
         11    1    4    4    0    0  0.98775486137E+01  0.18522070905E+02 -0.13624478428E+02  0.25025177120E+02  0.51100000000E-03 0. -1.
        -11    1    4    4    0    0 -0.11323931193E+02 -0.18002806767E+01 -0.11898650439E+02  0.16524234043E+02  0.51100000000E-03 0.  1.
         12    1    4    4    0    0  0.10535255250E+00  0.12440737533E+02  0.30836306317E+01  0.12817637356E+02  0.00000000000E+00 0. -1.
</event>
<event>
 8    1  0.2432279E-006  0.9118800E+02  0.7816164E-02  0.1184000E+00
        -11   -1    0    0    0    0  0.00000000000E+00  0.00000000000E+00  0.45593999997E+02  0.45594000000E+02  0.51100000000E-03 0. -1.
         11   -1    0    0    0    0 -0.00000000000E+00 -0.00000000000E+00 -0.45593999997E+02  0.45594000000E+02  0.51100000000E-03 0.  1.
         23    2    1    2    0    0 -0.88817841970E-15  0.00000000000E+00  0.00000000000E+00  0.91188000000E+02  0.91188000000E+02 0.  0.
    9900012    2    3    3    0    0 -0.27825246671E+01  0.17134965610E+02  0.32471991668E+02  0.54367085659E+02  0.40000003377E+02 0.  0.
        -12    1    3    3    0    0  0.27825246671E+01 -0.17134965610E+02 -0.32471991668E+02  0.36820914341E+02  0.00000000000E+00 0.  1.
         11    1    4    4    0    0  0.73136929553E+01  0.12979789862E+02  0.17740818109E+02  0.23166822764E+02  0.51100000000E-03 0. -1.
        -11    1    4    4    0    0 -0.13383559049E+02  0.10981377049E+02  0.15934116715E+02  0.23528841248E+02  0.51100000000E-03 0.  1.
        -12    1    4    4    0    0  0.32873414267E+01 -0.68262013013E+01 -0.12029431557E+01  0.76714216477E+01  0.00000000000E+00 0.  1.
</event>
<event>
 8    1  0.2432279E-006  0.9118800E+02  0.7816164E-02  0.1184000E+00
        -11   -1    0    0    0    0  0.00000000000E+00  0.00000000000E+00  0.45593999997E+02  0.45594000000E+02  0.51100000000E-03 0.  1.
         11   -1    0    0    0    0 -0.00000000000E+00 -0.00000000000E+00 -0.45593999997E+02  0.45594000000E+02  0.51100000000E-03 0. -1.
         23    2    1    2    0    0 -0.17763568394E-14  0.88817841970E-15 -0.71054273576E-14  0.91188000000E+02  0.91188000000E+02 0.  0.
    9900012    2    3    3    0    0 -0.13683106987E+02  0.27439081933E+01 -0.34073796473E+02  0.54367081284E+02  0.39999993403E+02 0.  0.
        -12    1    3    3    0    0  0.13683106987E+02 -0.27439081933E+01  0.34073796473E+02  0.36820918716E+02  0.00000000000E+00 0.  1.
         11    1    4    4    0    0 -0.20563183256E+02  0.55986274048E+01 -0.38269055338E+02  0.43803079015E+02  0.51100000000E-03 0. -1.
        -11    1    4    4    0    0  0.41404739264E+01 -0.40084399533E+01  0.44719962320E+00  0.57802338152E+01  0.51100000000E-03 0.  1.
        -12    1    4    4    0    0  0.27396023426E+01  0.11537207418E+01  0.37480592413E+01  0.47837684540E+01  0.00000000000E+00 0.  1.
</event>
<event>
 8    1  0.2432279E-006  0.9118800E+02  0.7816164E-02  0.1184000E+00
        -11   -1    0    0    0    0  0.00000000000E+00  0.00000000000E+00  0.45593999997E+02  0.45594000000E+02  0.51100000000E-03 0. -1.
         11   -1    0    0    0    0 -0.00000000000E+00 -0.00000000000E+00 -0.45593999997E+02  0.45594000000E+02  0.51100000000E-03 0.  1.
         23    2    1    2    0    0  0.17763568394E-14  0.00000000000E+00  0.71054273576E-14  0.91188000000E+02  0.91188000000E+02 0.  0.
    9900012    2    3    3    0    0  0.47010931668E+01 -0.23528890296E+02  0.27929645070E+02  0.54367163111E+02  0.40000179943E+02 0.  0.
        -12    1    3    3    0    0 -0.47010931668E+01  0.23528890296E+02 -0.27929645070E+02  0.36820836889E+02  0.00000000000E+00 0.  1.
         11    1    4    4    0    0  0.39825577446E+01  0.56962246354E+00  0.17335009040E+02  0.17795723493E+02  0.51100000000E-03 0. -1.
        -11    1    4    4    0    0 -0.62721508047E+01 -0.25826673662E+02  0.41340660387E+01  0.26896978463E+02  0.51100000000E-03 0.  1.
        -12    1    4    4    0    0  0.69906862269E+01  0.17281609027E+01  0.64605699908E+01  0.96744611548E+01  0.00000000000E+00 0.  1.
</event>
<event>
 8    1  0.2432279E-006  0.9118800E+02  0.7816164E-02  0.1184000E+00
        -11   -1    0    0    0    0  0.00000000000E+00  0.00000000000E+00  0.45593999997E+02  0.45594000000E+02  0.51100000000E-03 0.  1.
         11   -1    0    0    0    0 -0.00000000000E+00 -0.00000000000E+00 -0.45593999997E+02  0.45594000000E+02  0.51100000000E-03 0. -1.
         23    2    1    2    0    0  0.00000000000E+00  0.35527136788E-14  0.35527136788E-14  0.91188000000E+02  0.91188000000E+02 0.  0.
    9900012    2    3    3    0    0  0.14522221078E+02  0.27710756406E+02  0.19416435167E+02  0.54367097238E+02  0.40000029773E+02 0.  0.
         12    1    3    3    0    0 -0.14522221078E+02 -0.27710756406E+02 -0.19416435167E+02  0.36820902762E+02  0.00000000000E+00 0. -1.
         11    1    4    4    0    0  0.96801239280E+01  0.31822862506E+01  0.13259692688E+02  0.16722774755E+02  0.51100000000E-03 0. -1.
        -11    1    4    4    0    0  0.14331791394E+02  0.14798831781E+02  0.10827231419E+02  0.23273044646E+02  0.51100000000E-03 0.  1.
         12    1    4    4    0    0 -0.94896942433E+01  0.97296383740E+01 -0.46704889402E+01  0.14371277837E+02  0.00000000000E+00 0. -1.
</event>
<event>
 8    1  0.2432279E-006  0.9118800E+02  0.7816164E-02  0.1184000E+00
        -11   -1    0    0    0    0  0.00000000000E+00  0.00000000000E+00  0.45593999997E+02  0.45594000000E+02  0.51100000000E-03 0.  1.
         11   -1    0    0    0    0 -0.00000000000E+00 -0.00000000000E+00 -0.45593999997E+02  0.45594000000E+02  0.51100000000E-03 0. -1.
         23    2    1    2    0    0  0.00000000000E+00 -0.39968028887E-14  0.00000000000E+00  0.91188000000E+02  0.91188000000E+02 0.  0.
    9900012    2    3    3    0    0  0.16335793938E+02  0.20184128254E+01  0.32936934924E+02  0.54367165733E+02  0.40000185922E+02 0.  0.
         12    1    3    3    0    0 -0.16335793938E+02 -0.20184128254E+01 -0.32936934924E+02  0.36820834267E+02  0.00000000000E+00 0. -1.
         11    1    4    4    0    0  0.20549366196E+01 -0.18777649873E+01  0.63484366284E+00  0.28551344268E+01  0.51100000000E-03 0. -1.
        -11    1    4    4    0    0  0.96239317811E+01 -0.14087005407E+02  0.27437725134E+02  0.32309325977E+02  0.51100000000E-03 0.  1.
        -12    1    4    4    0    0  0.46569255373E+01  0.17983183220E+02  0.48643661266E+01  0.19202705330E+02  0.00000000000E+00 0.  1.
</event>
<event>
 8    1  0.2432279E-006  0.9118800E+02  0.7816164E-02  0.1184000E+00
        -11   -1    0    0    0    0  0.00000000000E+00  0.00000000000E+00  0.45593999997E+02  0.45594000000E+02  0.51100000000E-03 0. -1.
         11   -1    0    0    0    0 -0.00000000000E+00 -0.00000000000E+00 -0.45593999997E+02  0.45594000000E+02  0.51100000000E-03 0.  1.
         23    2    1    2    0    0  0.00000000000E+00  0.00000000000E+00  0.35527136788E-14  0.91188000000E+02  0.91188000000E+02 0.  0.
    9900012    2    3    3    0    0  0.12232448914E+02  0.25277943984E+02  0.23815420799E+02  0.54367061306E+02  0.39999947859E+02 0.  0.
        -12    1    3    3    0    0 -0.12232448914E+02 -0.25277943984E+02 -0.23815420799E+02  0.36820938694E+02  0.00000000000E+00 0.  1.
         11    1    4    4    0    0 -0.14182471459E+01  0.20588376811E+02  0.10579641895E+02  0.23190979013E+02  0.51100000000E-03 0. -1.
        -11    1    4    4    0    0  0.13057034696E+02  0.99036164779E+01 -0.57889869564E+00  0.16398259003E+02  0.51100000000E-03 0.  1.
        -12    1    4    4    0    0  0.59366136406E+00 -0.52140493057E+01  0.13814677600E+02  0.14777823289E+02  0.00000000000E+00 0.  1.
</event>
<event>
 8    1  0.2432279E-006  0.9118800E+02  0.7816164E-02  0.1184000E+00
        -11   -1    0    0    0    0  0.00000000000E+00  0.00000000000E+00  0.45593999997E+02  0.45594000000E+02  0.51100000000E-03 0. -1.
         11   -1    0    0    0    0 -0.00000000000E+00 -0.00000000000E+00 -0.45593999997E+02  0.45594000000E+02  0.51100000000E-03 0.  1.
         23    2    1    2    0    0  0.00000000000E+00  0.35527136788E-14  0.00000000000E+00  0.91188000000E+02  0.91188000000E+02 0.  0.
    9900012    2    3    3    0    0  0.30359390098E+02  0.19217516383E+02  0.80483111403E+01  0.54367070961E+02  0.39999969871E+02 0.  0.
         12    1    3    3    0    0 -0.30359390098E+02 -0.19217516383E+02 -0.80483111403E+01  0.36820929039E+02  0.00000000000E+00 0. -1.
         11    1    4    4    0    0  0.89945504610E+00  0.89736998562E+01  0.14878090658E+02  0.17398100195E+02  0.51100000000E-03 0. -1.
        -11    1    4    4    0    0  0.18996316181E+02  0.14007705153E+02 -0.96466970772E+01  0.25497737093E+02  0.51100000000E-03 0.  1.
         12    1    4    4    0    0  0.10463618871E+02 -0.37638886260E+01  0.28169175591E+01  0.11471233674E+02  0.00000000000E+00 0. -1.
</event>
<event>
 8    1  0.2432279E-006  0.9118800E+02  0.7816164E-02  0.1184000E+00
        -11   -1    0    0    0    0  0.00000000000E+00  0.00000000000E+00  0.45593999997E+02  0.45594000000E+02  0.51100000000E-03 0. -1.
         11   -1    0    0    0    0 -0.00000000000E+00 -0.00000000000E+00 -0.45593999997E+02  0.45594000000E+02  0.51100000000E-03 0.  1.
         23    2    1    2    0    0 -0.17763568394E-14  0.13322676296E-14  0.00000000000E+00  0.91188000000E+02  0.91188000000E+02 0.  0.
    9900012    2    3    3    0    0 -0.15169557075E+02 -0.29964423692E+01  0.33416838242E+02  0.54367092803E+02  0.40000019663E+02 0.  0.
        -12    1    3    3    0    0  0.15169557075E+02  0.29964423692E+01 -0.33416838242E+02  0.36820907197E+02  0.00000000000E+00 0.  1.
         11    1    4    4    0    0 -0.63725842798E+01 -0.36271664735E+01  0.22047087351E+02  0.23234462076E+02  0.51100000000E-03 0. -1.
        -11    1    4    4    0    0 -0.19617720102E+01 -0.12200854855E+02  0.11070313521E+02  0.16590999075E+02  0.51100000000E-03 0.  1.
        -12    1    4    4    0    0 -0.68352007851E+01  0.12831578959E+02  0.29943737062E+00  0.14541631652E+02  0.00000000000E+00 0.  1.
</event>
<event>
 8    1  0.2432279E-006  0.9118800E+02  0.7816164E-02  0.1184000E+00
        -11   -1    0    0    0    0  0.00000000000E+00  0.00000000000E+00  0.45593999997E+02  0.45594000000E+02  0.51100000000E-03 0. -1.
         11   -1    0    0    0    0 -0.00000000000E+00 -0.00000000000E+00 -0.45593999997E+02  0.45594000000E+02  0.51100000000E-03 0.  1.
         23    2    1    2    0    0  0.00000000000E+00  0.17763568394E-14 -0.35527136788E-14  0.91188000000E+02  0.91188000000E+02 0.  0.
    9900012    2    3    3    0    0 -0.22841237545E+02 -0.13857232990E+02  0.25338416649E+02  0.54367076641E+02  0.39999982819E+02 0.  0.
        -12    1    3    3    0    0  0.22841237545E+02  0.13857232990E+02 -0.25338416649E+02  0.36820923359E+02  0.00000000000E+00 0.  1.
         11    1    4    4    0    0  0.23355287579E+01 -0.14644126576E+01  0.37987341687E+01  0.46935679985E+01  0.51100000000E-03 0. -1.
        -11    1    4    4    0    0 -0.93455944524E+01 -0.23578553107E+02  0.12804727797E+02  0.28412133966E+02  0.51100000000E-03 0.  1.
         12    1    4    4    0    0 -0.15831171850E+02  0.11185732774E+02  0.87349546830E+01  0.21261374677E+02  0.00000000000E+00 0. -1.
</event>
<event>
 8    1  0.2432279E-006  0.9118800E+02  0.7816164E-02  0.1184000E+00
        -11   -1    0    0    0    0  0.00000000000E+00  0.00000000000E+00  0.45593999997E+02  0.45594000000E+02  0.51100000000E-03 0. -1.
         11   -1    0    0    0    0 -0.00000000000E+00 -0.00000000000E+00 -0.45593999997E+02  0.45594000000E+02  0.51100000000E-03 0.  1.
         23    2    1    2    0    0 -0.17763568394E-14  0.00000000000E+00  0.00000000000E+00  0.91188000000E+02  0.91188000000E+02 0.  0.
    9900012    2    3    3    0    0  0.15387781372E+02 -0.26287939376E+02  0.20686705604E+02  0.54367090710E+02  0.40000014892E+02 0.  0.
        -12    1    3    3    0    0 -0.15387781372E+02  0.26287939376E+02 -0.20686705604E+02  0.36820909290E+02  0.00000000000E+00 0.  1.
         11    1    4    4    0    0 -0.35985488532E+00 -0.10374634250E+02  0.14621911832E+02  0.17932173244E+02  0.51100000000E-03 0. -1.
        -11    1    4    4    0    0  0.10266966097E+02 -0.14661598009E+02 -0.92307141393E+01  0.20138995327E+02  0.51100000000E-03 0.  1.
        -12    1    4    4    0    0  0.54806701604E+01 -0.12517071177E+01  0.15295507911E+02  0.16295922139E+02  0.00000000000E+00 0.  1.
</event>
<event>
 8    1  0.2432279E-006  0.9118800E+02  0.7816164E-02  0.1184000E+00
        -11   -1    0    0    0    0  0.00000000000E+00  0.00000000000E+00  0.45593999997E+02  0.45594000000E+02  0.51100000000E-03 0.  1.
         11   -1    0    0    0    0 -0.00000000000E+00 -0.00000000000E+00 -0.45593999997E+02  0.45594000000E+02  0.51100000000E-03 0. -1.
         23    2    1    2    0    0  0.00000000000E+00  0.35527136788E-14  0.17763568394E-14  0.91188000000E+02  0.91188000000E+02 0.  0.
    9900012    2    3    3    0    0  0.14805969416E+02 -0.31158485473E+02  0.12872928633E+02  0.54367078788E+02  0.39999987713E+02 0.  0.
        -12    1    3    3    0    0 -0.14805969416E+02  0.31158485473E+02 -0.12872928633E+02  0.36820921212E+02  0.00000000000E+00 0.  1.
         11    1    4    4    0    0  0.19679983271E+01  0.62331774615E+00 -0.62939246717E+00  0.21581653243E+01  0.51100000000E-03 0. -1.
        -11    1    4    4    0    0  0.15729847543E+02 -0.32848748767E+02 -0.19299510272E+01  0.36471812548E+02  0.51100000000E-03 0.  1.
        -12    1    4    4    0    0 -0.28918764541E+01  0.10669455477E+01  0.15432272127E+02  0.15737100916E+02  0.00000000000E+00 0.  1.
</event>
<event>
 8    1  0.2432279E-006  0.9118800E+02  0.7816164E-02  0.1184000E+00
        -11   -1    0    0    0    0  0.00000000000E+00  0.00000000000E+00  0.45593999997E+02  0.45594000000E+02  0.51100000000E-03 0. -1.
         11   -1    0    0    0    0 -0.00000000000E+00 -0.00000000000E+00 -0.45593999997E+02  0.45594000000E+02  0.51100000000E-03 0.  1.
         23    2    1    2    0    0  0.00000000000E+00 -0.35527136788E-14  0.00000000000E+00  0.91188000000E+02  0.91188000000E+02 0.  0.
    9900012    2    3    3    0    0  0.95944987245E+01 -0.31647176660E+02  0.16192057447E+02  0.54367069530E+02  0.39999966607E+02 0.  0.
        -12    1    3    3    0    0 -0.95944987245E+01  0.31647176660E+02 -0.16192057447E+02  0.36820930470E+02  0.00000000000E+00 0.  1.
         11    1    4    4    0    0 -0.22678586122E+01 -0.32967725359E+01 -0.63403218708E+01  0.74974377974E+01  0.51100000000E-03 0. -1.
        -11    1    4    4    0    0  0.11160815700E+02  0.14726472960E+01  0.66192560536E+01  0.13059366299E+02  0.51100000000E-03 0.  1.
         12    1    4    4    0    0  0.70154163626E+00 -0.29823051420E+02  0.15913123264E+02  0.33810265434E+02  0.00000000000E+00 0. -1.
</event>
<event>
 8    1  0.2432279E-006  0.9118800E+02  0.7816164E-02  0.1184000E+00
        -11   -1    0    0    0    0  0.00000000000E+00  0.00000000000E+00  0.45593999997E+02  0.45594000000E+02  0.51100000000E-03 0. -1.
         11   -1    0    0    0    0 -0.00000000000E+00 -0.00000000000E+00 -0.45593999997E+02  0.45594000000E+02  0.51100000000E-03 0.  1.
         23    2    1    2    0    0  0.00000000000E+00  0.00000000000E+00  0.77715611724E-15  0.91188000000E+02  0.91188000000E+02 0.  0.
    9900012    2    3    3    0    0  0.19006538810E+02  0.31520696725E+02 -0.98905547367E+00  0.54367067499E+02  0.39999961976E+02 0.  0.
         12    1    3    3    0    0 -0.19006538810E+02 -0.31520696725E+02  0.98905547367E+00  0.36820932501E+02  0.00000000000E+00 0. -1.
         11    1    4    4    0    0 -0.69514943025E+01  0.54000426651E+01  0.73171736909E+01  0.11446604951E+02  0.51100000000E-03 0. -1.
        -11    1    4    4    0    0 -0.33170459890E+01  0.48887310671E+01 -0.18003111379E+01  0.61760510032E+01  0.51100000000E-03 0.  1.
         12    1    4    4    0    0  0.29275079101E+02  0.21231922993E+02 -0.65059180267E+01  0.36744411544E+02  0.00000000000E+00 0. -1.
</event>
<event>
 8    1  0.2432279E-006  0.9118800E+02  0.7816164E-02  0.1184000E+00
        -11   -1    0    0    0    0  0.00000000000E+00  0.00000000000E+00  0.45593999997E+02  0.45594000000E+02  0.51100000000E-03 0.  1.
         11   -1    0    0    0    0 -0.00000000000E+00 -0.00000000000E+00 -0.45593999997E+02  0.45594000000E+02  0.51100000000E-03 0. -1.
         23    2    1    2    0    0  0.00000000000E+00  0.35527136788E-14  0.35527136788E-14  0.91188000000E+02  0.91188000000E+02 0.  0.
    9900012    2    3    3    0    0 -0.24300359298E+02 -0.21766421669E+02 -0.17073222942E+02  0.54367088606E+02  0.40000010095E+02 0.  0.
        -12    1    3    3    0    0  0.24300359298E+02  0.21766421669E+02  0.17073222942E+02  0.36820911394E+02  0.00000000000E+00 0.  1.
         11    1    4    4    0    0 -0.12145707183E+02 -0.96476114860E+01 -0.54710868909E+01  0.16447717239E+02  0.51100000000E-03 0. -1.
        -11    1    4    4    0    0  0.12031477889E+01 -0.95303136182E+01 -0.19819159297E+02  0.22024384617E+02  0.51100000000E-03 0.  1.
        -12    1    4    4    0    0 -0.13357799904E+02 -0.25884965644E+01  0.82170232458E+01  0.15894986749E+02  0.00000000000E+00 0.  1.
</event>
<event>
 8    1  0.2432279E-006  0.9118800E+02  0.7816164E-02  0.1184000E+00
        -11   -1    0    0    0    0  0.00000000000E+00  0.00000000000E+00  0.45593999997E+02  0.45594000000E+02  0.51100000000E-03 0. -1.
         11   -1    0    0    0    0 -0.00000000000E+00 -0.00000000000E+00 -0.45593999997E+02  0.45594000000E+02  0.51100000000E-03 0.  1.
         23    2    1    2    0    0  0.35527136788E-14 -0.35527136788E-14 -0.35527136788E-14  0.91188000000E+02  0.91188000000E+02 0.  0.
    9900012    2    3    3    0    0  0.23541295189E+02 -0.26266578585E+02 -0.10566727992E+02  0.54367062068E+02  0.39999949596E+02 0.  0.
        -12    1    3    3    0    0 -0.23541295189E+02  0.26266578585E+02  0.10566727992E+02  0.36820937932E+02  0.00000000000E+00 0.  1.
         11    1    4    4    0    0  0.15975060040E+02 -0.15949427592E+02  0.11205900023E+01  0.22601825280E+02  0.51100000000E-03 0. -1.
        -11    1    4    4    0    0  0.13756471769E+02  0.52241856603E+00  0.12063605485E+01  0.13819144066E+02  0.51100000000E-03 0.  1.
        -12    1    4    4    0    0 -0.61902366189E+01 -0.10839569559E+02 -0.12893678542E+02  0.17946092722E+02  0.00000000000E+00 0.  1.
</event>
<event>
 8    1  0.2432279E-006  0.9118800E+02  0.7816164E-02  0.1184000E+00
        -11   -1    0    0    0    0  0.00000000000E+00  0.00000000000E+00  0.45593999997E+02  0.45594000000E+02  0.51100000000E-03 0. -1.
         11   -1    0    0    0    0 -0.00000000000E+00 -0.00000000000E+00 -0.45593999997E+02  0.45594000000E+02  0.51100000000E-03 0.  1.
         23    2    1    2    0    0 -0.44408920985E-15  0.00000000000E+00  0.00000000000E+00  0.91188000000E+02  0.91188000000E+02 0.  0.
    9900012    2    3    3    0    0  0.37365355745E+01  0.10032661330E+02  0.35230151784E+02  0.54367087651E+02  0.40000007919E+02 0.  0.
        -12    1    3    3    0    0 -0.37365355745E+01 -0.10032661330E+02 -0.35230151784E+02  0.36820912349E+02  0.00000000000E+00 0.  1.
         11    1    4    4    0    0 -0.28641328464E+01  0.28322507094E+01  0.82621332741E+01  0.91917216855E+01  0.51100000000E-03 0. -1.
        -11    1    4    4    0    0  0.68493676485E+00  0.13465376335E+02 -0.31526425457E+01  0.13846467185E+02  0.51100000000E-03 0.  1.
        -12    1    4    4    0    0  0.59157316560E+01 -0.62649657140E+01  0.30120661056E+02  0.31328898781E+02  0.00000000000E+00 0.  1.
</event>
<event>
 8    1  0.2432279E-006  0.9118800E+02  0.7816164E-02  0.1184000E+00
        -11   -1    0    0    0    0  0.00000000000E+00  0.00000000000E+00  0.45593999997E+02  0.45594000000E+02  0.51100000000E-03 0.  1.
         11   -1    0    0    0    0 -0.00000000000E+00 -0.00000000000E+00 -0.45593999997E+02  0.45594000000E+02  0.51100000000E-03 0. -1.
         23    2    1    2    0    0  0.88817841970E-15  0.00000000000E+00  0.00000000000E+00  0.91188000000E+02  0.91188000000E+02 0.  0.
    9900012    2    3    3    0    0 -0.44330076377E+01 -0.26894014326E+02 -0.24755611351E+02  0.54367083979E+02  0.39999999547E+02 0.  0.
        -12    1    3    3    0    0  0.44330076377E+01  0.26894014326E+02  0.24755611351E+02  0.36820916021E+02  0.00000000000E+00 0.  1.
         11    1    4    4    0    0 -0.11216756673E+01 -0.46612840560E+01  0.49506987277E+01  0.68916720400E+01  0.51100000000E-03 0. -1.
        -11    1    4    4    0    0 -0.44135346720E+01 -0.27555024387E+01  0.52830615488E+01  0.74150402279E+01  0.51100000000E-03 0.  1.
         12    1    4    4    0    0  0.11022027016E+01 -0.19477227831E+02 -0.34989371627E+02  0.40060371711E+02  0.00000000000E+00 0. -1.
</event>
<event>
 8    1  0.2432279E-006  0.9118800E+02  0.7816164E-02  0.1184000E+00
        -11   -1    0    0    0    0  0.00000000000E+00  0.00000000000E+00  0.45593999997E+02  0.45594000000E+02  0.51100000000E-03 0.  1.
         11   -1    0    0    0    0 -0.00000000000E+00 -0.00000000000E+00 -0.45593999997E+02  0.45594000000E+02  0.51100000000E-03 0. -1.
         23    2    1    2    0    0 -0.17763568394E-14 -0.71054273576E-14  0.17763568394E-14  0.91188000000E+02  0.91188000000E+02 0.  0.
    9900012    2    3    3    0    0  0.11972051847E+02 -0.34379730363E+02  0.55212456576E+01  0.54367081504E+02  0.39999993905E+02 0.  0.
         12    1    3    3    0    0 -0.11972051847E+02  0.34379730363E+02 -0.55212456576E+01  0.36820918496E+02  0.00000000000E+00 0. -1.
         11    1    4    4    0    0  0.69757885401E+01 -0.98976861987E+01 -0.66552175914E+01  0.13817298553E+02  0.51100000000E-03 0. -1.
        -11    1    4    4    0    0 -0.96159924417E+01  0.33370669778E+00  0.10581494265E+01  0.96797908691E+01  0.51100000000E-03 0.  1.
        -12    1    4    4    0    0  0.14612255749E+02 -0.24815750862E+02  0.11118313822E+02  0.30869992082E+02  0.00000000000E+00 0.  1.
</event>
<event>
 8    1  0.2432279E-006  0.9118800E+02  0.7816164E-02  0.1184000E+00
        -11   -1    0    0    0    0  0.00000000000E+00  0.00000000000E+00  0.45593999997E+02  0.45594000000E+02  0.51100000000E-03 0.  1.
         11   -1    0    0    0    0 -0.00000000000E+00 -0.00000000000E+00 -0.45593999997E+02  0.45594000000E+02  0.51100000000E-03 0. -1.
         23    2    1    2    0    0  0.00000000000E+00  0.00000000000E+00  0.00000000000E+00  0.91188000000E+02  0.91188000000E+02 0.  0.
    9900012    2    3    3    0    0 -0.40155935589E+01 -0.22651610172E+02 -0.28749957598E+02  0.54367075284E+02  0.39999979726E+02 0.  0.
        -12    1    3    3    0    0  0.40155935589E+01  0.22651610172E+02  0.28749957598E+02  0.36820924716E+02  0.00000000000E+00 0.  1.
         11    1    4    4    0    0 -0.21639734867E+01  0.21479779458E+01 -0.26184085415E+02  0.26361011358E+02  0.51100000000E-03 0. -1.
        -11    1    4    4    0    0  0.12067679738E+01 -0.64424776091E+01  0.46601152677E+01  0.80422932834E+01  0.51100000000E-03 0.  1.
         12    1    4    4    0    0 -0.30583880459E+01 -0.18357110509E+02 -0.72259874507E+01  0.19963770643E+02  0.00000000000E+00 0. -1.
</event>
<event>
 8    1  0.2432279E-006  0.9118800E+02  0.7816164E-02  0.1184000E+00
        -11   -1    0    0    0    0  0.00000000000E+00  0.00000000000E+00  0.45593999997E+02  0.45594000000E+02  0.51100000000E-03 0. -1.
         11   -1    0    0    0    0 -0.00000000000E+00 -0.00000000000E+00 -0.45593999997E+02  0.45594000000E+02  0.51100000000E-03 0.  1.
         23    2    1    2    0    0 -0.35527136788E-14  0.17763568394E-14  0.17763568394E-14  0.91188000000E+02  0.91188000000E+02 0.  0.
    9900012    2    3    3    0    0  0.30674629602E+02  0.14498538846E+02  0.14305205961E+02  0.54367089535E+02  0.40000012213E+02 0.  0.
        -12    1    3    3    0    0 -0.30674629602E+02 -0.14498538846E+02 -0.14305205961E+02  0.36820910465E+02  0.00000000000E+00 0.  1.
         11    1    4    4    0    0  0.21948790413E+01 -0.17661107894E+01 -0.44009266568E+01  0.52253992217E+01  0.51100000000E-03 0. -1.
        -11    1    4    4    0    0  0.17304102566E+02 -0.76694164043E+01  0.62092433440E+01  0.19920005441E+02  0.51100000000E-03 0.  1.
         12    1    4    4    0    0  0.11175647995E+02  0.23934066039E+02  0.12496889274E+02  0.29221684873E+02  0.00000000000E+00 0. -1.
</event>
<event>
 8    1  0.2432279E-006  0.9118800E+02  0.7816164E-02  0.1184000E+00
        -11   -1    0    0    0    0  0.00000000000E+00  0.00000000000E+00  0.45593999997E+02  0.45594000000E+02  0.51100000000E-03 0.  1.
         11   -1    0    0    0    0 -0.00000000000E+00 -0.00000000000E+00 -0.45593999997E+02  0.45594000000E+02  0.51100000000E-03 0. -1.
         23    2    1    2    0    0  0.00000000000E+00  0.13322676296E-14 -0.71054273576E-14  0.91188000000E+02  0.91188000000E+02 0.  0.
    9900012    2    3    3    0    0  0.16383940931E+02 -0.29195670437E+01  0.32845429389E+02  0.54367087139E+02  0.40000006750E+02 0.  0.
         12    1    3    3    0    0 -0.16383940931E+02  0.29195670437E+01 -0.32845429389E+02  0.36820912861E+02  0.00000000000E+00 0. -1.
         11    1    4    4    0    0  0.53163501320E+01  0.26794199066E+01  0.75829210000E+01  0.96407240867E+01  0.51100000000E-03 0. -1.
        -11    1    4    4    0    0 -0.53178400788E+01 -0.14798791692E+02  0.19542302371E+02  0.25083565154E+02  0.51100000000E-03 0.  1.
        -12    1    4    4    0    0  0.16385430878E+02  0.91998047419E+01  0.57202060188E+01  0.19642797898E+02  0.00000000000E+00 0.  1.
</event>
<event>
 8    1  0.2432279E-006  0.9118800E+02  0.7816164E-02  0.1184000E+00
        -11   -1    0    0    0    0  0.00000000000E+00  0.00000000000E+00  0.45593999997E+02  0.45594000000E+02  0.51100000000E-03 0. -1.
         11   -1    0    0    0    0 -0.00000000000E+00 -0.00000000000E+00 -0.45593999997E+02  0.45594000000E+02  0.51100000000E-03 0.  1.
         23    2    1    2    0    0 -0.35527136788E-14  0.00000000000E+00  0.00000000000E+00  0.91188000000E+02  0.91188000000E+02 0.  0.
    9900012    2    3    3    0    0 -0.19898779288E+02 -0.26124025683E+02 -0.16653915537E+02  0.54367095099E+02  0.40000024896E+02 0.  0.
         12    1    3    3    0    0  0.19898779288E+02  0.26124025683E+02  0.16653915537E+02  0.36820904901E+02  0.00000000000E+00 0. -1.
         11    1    4    4    0    0 -0.17044760298E+02 -0.11602531147E+02 -0.11656190080E+02  0.23685635944E+02  0.51100000000E-03 0. -1.
        -11    1    4    4    0    0 -0.29365969449E+01 -0.22201793607E+02 -0.21833888581E+01  0.22501342808E+02  0.51100000000E-03 0.  1.
         12    1    4    4    0    0  0.82577954899E-01  0.76802990716E+01 -0.28143365993E+01  0.81801163464E+01  0.00000000000E+00 0. -1.
</event>
<event>
 8    1  0.2432279E-006  0.9118800E+02  0.7816164E-02  0.1184000E+00
        -11   -1    0    0    0    0  0.00000000000E+00  0.00000000000E+00  0.45593999997E+02  0.45594000000E+02  0.51100000000E-03 0. -1.
         11   -1    0    0    0    0 -0.00000000000E+00 -0.00000000000E+00 -0.45593999997E+02  0.45594000000E+02  0.51100000000E-03 0.  1.
         23    2    1    2    0    0 -0.17763568394E-14  0.00000000000E+00  0.00000000000E+00  0.91188000000E+02  0.91188000000E+02 0.  0.
    9900012    2    3    3    0    0  0.97739935097E+01  0.87872317110E+01  0.34395250343E+02  0.54367086969E+02  0.40000006364E+02 0.  0.
        -12    1    3    3    0    0 -0.97739935097E+01 -0.87872317110E+01 -0.34395250343E+02  0.36820913031E+02  0.00000000000E+00 0.  1.
         11    1    4    4    0    0  0.44710021156E+01  0.10372603511E+02  0.88024739340E+01  0.14320066729E+02  0.51100000000E-03 0. -1.
        -11    1    4    4    0    0  0.45375213693E+01  0.38712629934E+01 -0.57135065024E+01  0.82595359528E+01  0.51100000000E-03 0.  1.
         12    1    4    4    0    0  0.76547002480E+00 -0.54566347931E+01  0.31306282911E+02  0.31787484288E+02  0.00000000000E+00 0. -1.
</event>
<event>
 8    1  0.2432279E-006  0.9118800E+02  0.7816164E-02  0.1184000E+00
        -11   -1    0    0    0    0  0.00000000000E+00  0.00000000000E+00  0.45593999997E+02  0.45594000000E+02  0.51100000000E-03 0.  1.
         11   -1    0    0    0    0 -0.00000000000E+00 -0.00000000000E+00 -0.45593999997E+02  0.45594000000E+02  0.51100000000E-03 0. -1.
         23    2    1    2    0    0 -0.71054273576E-14  0.88817841970E-15 -0.13322676296E-14  0.91188000000E+02  0.91188000000E+02 0.  0.
    9900012    2    3    3    0    0 -0.36688913510E+02  0.24883143018E+01 -0.18735626586E+01  0.54367104850E+02  0.40000047128E+02 0.  0.
         12    1    3    3    0    0  0.36688913510E+02 -0.24883143018E+01  0.18735626586E+01  0.36820895150E+02  0.00000000000E+00 0. -1.
         11    1    4    4    0    0 -0.35873669611E+02  0.10457482362E+02 -0.11490582937E+02  0.39093638936E+02  0.51100000000E-03 0. -1.
        -11    1    4    4    0    0 -0.30864879687E+01 -0.17036151681E+01 -0.57150221015E-01  0.35259011658E+01  0.51100000000E-03 0.  1.
        -12    1    4    4    0    0  0.22712440705E+01 -0.62655528925E+01  0.96741704995E+01  0.11747564749E+02  0.00000000000E+00 0.  1.
</event>
<event>
 8    1  0.2432279E-006  0.9118800E+02  0.7816164E-02  0.1184000E+00
        -11   -1    0    0    0    0  0.00000000000E+00  0.00000000000E+00  0.45593999997E+02  0.45594000000E+02  0.51100000000E-03 0. -1.
         11   -1    0    0    0    0 -0.00000000000E+00 -0.00000000000E+00 -0.45593999997E+02  0.45594000000E+02  0.51100000000E-03 0.  1.
         23    2    1    2    0    0  0.00000000000E+00 -0.83266726847E-15  0.00000000000E+00  0.91188000000E+02  0.91188000000E+02 0.  0.
    9900012    2    3    3    0    0  0.36697549025E+02  0.27197451591E+00 -0.29991885652E+01  0.54367092805E+02  0.40000019668E+02 0.  0.
         12    1    3    3    0    0 -0.36697549025E+02 -0.27197451591E+00  0.29991885652E+01  0.36820907195E+02  0.00000000000E+00 0. -1.
         11    1    4    4    0    0  0.35769293146E+00 -0.38456753232E+01  0.47882563697E+01  0.61517934172E+01  0.51100000000E-03 0. -1.
        -11    1    4    4    0    0  0.34653020623E+02 -0.77781413002E+01 -0.67966180593E+01  0.36159719823E+02  0.51100000000E-03 0.  1.
        -12    1    4    4    0    0  0.16868354708E+01  0.11895791139E+02 -0.99082687568E+00  0.12055579564E+02  0.00000000000E+00 0.  1.
</event>
<event>
 8    1  0.2432279E-006  0.9118800E+02  0.7816164E-02  0.1184000E+00
        -11   -1    0    0    0    0  0.00000000000E+00  0.00000000000E+00  0.45593999997E+02  0.45594000000E+02  0.51100000000E-03 0. -1.
         11   -1    0    0    0    0 -0.00000000000E+00 -0.00000000000E+00 -0.45593999997E+02  0.45594000000E+02  0.51100000000E-03 0.  1.
         23    2    1    2    0    0  0.00000000000E+00 -0.53290705182E-14  0.00000000000E+00  0.91188000000E+02  0.91188000000E+02 0.  0.
    9900012    2    3    3    0    0 -0.21377669310E+02  0.10619408012E+02  0.28035672718E+02  0.54367142916E+02  0.40000133905E+02 0.  0.
        -12    1    3    3    0    0  0.21377669310E+02 -0.10619408012E+02 -0.28035672718E+02  0.36820857084E+02  0.00000000000E+00 0.  1.
         11    1    4    4    0    0 -0.38173205413E+01  0.18641114460E+02  0.12744191564E+02  0.22901473824E+02  0.51100000000E-03 0. -1.
        -11    1    4    4    0    0 -0.74504200460E+01 -0.24880721330E+01  0.17988811636E+02  0.19628973640E+02  0.51100000000E-03 0.  1.
        -12    1    4    4    0    0 -0.10109928722E+02 -0.55336343156E+01 -0.26973304814E+01  0.11836695452E+02  0.00000000000E+00 0.  1.
</event>
<event>
 8    1  0.2432279E-006  0.9118800E+02  0.7816164E-02  0.1184000E+00
        -11   -1    0    0    0    0  0.00000000000E+00  0.00000000000E+00  0.45593999997E+02  0.45594000000E+02  0.51100000000E-03 0.  1.
         11   -1    0    0    0    0 -0.00000000000E+00 -0.00000000000E+00 -0.45593999997E+02  0.45594000000E+02  0.51100000000E-03 0. -1.
         23    2    1    2    0    0  0.22204460493E-15  0.35527136788E-14  0.00000000000E+00  0.91188000000E+02  0.91188000000E+02 0.  0.
    9900012    2    3    3    0    0 -0.27721980271E+00  0.28653852294E+02 -0.23122692932E+02  0.54367095196E+02  0.40000025119E+02 0.  0.
         12    1    3    3    0    0  0.27721980271E+00 -0.28653852294E+02  0.23122692932E+02  0.36820904804E+02  0.00000000000E+00 0. -1.
         11    1    4    4    0    0 -0.57710396095E+01  0.27718173275E+01 -0.64688353317E+01  0.91013021201E+01  0.51100000000E-03 0. -1.
        -11    1    4    4    0    0 -0.11353888812E+02  0.35655879735E+01 -0.12034394491E+02  0.16924859225E+02  0.51100000000E-03 0.  1.
        -12    1    4    4    0    0  0.16847708619E+02  0.22316446993E+02 -0.46194631095E+01  0.28340933851E+02  0.00000000000E+00 0.  1.
</event>
<event>
 8    1  0.2432279E-006  0.9118800E+02  0.7816164E-02  0.1184000E+00
        -11   -1    0    0    0    0  0.00000000000E+00  0.00000000000E+00  0.45593999997E+02  0.45594000000E+02  0.51100000000E-03 0. -1.
         11   -1    0    0    0    0 -0.00000000000E+00 -0.00000000000E+00 -0.45593999997E+02  0.45594000000E+02  0.51100000000E-03 0.  1.
         23    2    1    2    0    0 -0.88817841970E-15  0.00000000000E+00  0.00000000000E+00  0.91188000000E+02  0.91188000000E+02 0.  0.
    9900012    2    3    3    0    0  0.61562484488E+01 -0.18446763062E+02  0.31266616309E+02  0.54367031003E+02  0.39999878778E+02 0.  0.
        -12    1    3    3    0    0 -0.61562484488E+01  0.18446763062E+02 -0.31266616309E+02  0.36820968997E+02  0.00000000000E+00 0.  1.
         11    1    4    4    0    0  0.88132904777E+01  0.41014769459E+00  0.22087341569E+02  0.23784300873E+02  0.51100000000E-03 0. -1.
        -11    1    4    4    0    0  0.62766375521E+01  0.15190964450E+01  0.44349949079E+01  0.78340929956E+01  0.51100000000E-03 0.  1.
        -12    1    4    4    0    0 -0.89336795811E+01 -0.20376007202E+02  0.47442798315E+01  0.22748637134E+02  0.00000000000E+00 0.  1.
</event>
<event>
 8    1  0.2432279E-006  0.9118800E+02  0.7816164E-02  0.1184000E+00
        -11   -1    0    0    0    0  0.00000000000E+00  0.00000000000E+00  0.45593999997E+02  0.45594000000E+02  0.51100000000E-03 0.  1.
         11   -1    0    0    0    0 -0.00000000000E+00 -0.00000000000E+00 -0.45593999997E+02  0.45594000000E+02  0.51100000000E-03 0. -1.
         23    2    1    2    0    0 -0.66613381478E-15  0.00000000000E+00 -0.17763568394E-14  0.91188000000E+02  0.91188000000E+02 0.  0.
    9900012    2    3    3    0    0 -0.10223685109E+01 -0.35891358139E+02 -0.81575135534E+01  0.54367084017E+02  0.39999999634E+02 0.  0.
        -12    1    3    3    0    0  0.10223685109E+01  0.35891358139E+02  0.81575135534E+01  0.36820915983E+02  0.00000000000E+00 0.  1.
         11    1    4    4    0    0 -0.26797359688E+01 -0.42227278542E+01 -0.10449422829E+02  0.11584595509E+02  0.51100000000E-03 0. -1.
        -11    1    4    4    0    0  0.64393836987E+01  0.21566421546E+01 -0.42345633268E+01  0.80030178453E+01  0.51100000000E-03 0.  1.
        -12    1    4    4    0    0 -0.47820162407E+01 -0.33825272440E+02  0.65264726024E+01  0.34779470663E+02  0.00000000000E+00 0.  1.
</event>
<event>
 8    1  0.2432279E-006  0.9118800E+02  0.7816164E-02  0.1184000E+00
        -11   -1    0    0    0    0  0.00000000000E+00  0.00000000000E+00  0.45593999997E+02  0.45594000000E+02  0.51100000000E-03 0.  1.
         11   -1    0    0    0    0 -0.00000000000E+00 -0.00000000000E+00 -0.45593999997E+02  0.45594000000E+02  0.51100000000E-03 0. -1.
         23    2    1    2    0    0  0.17763568394E-14  0.00000000000E+00  0.35527136788E-14  0.91188000000E+02  0.91188000000E+02 0.  0.
    9900012    2    3    3    0    0  0.10064143232E+02  0.28747141673E+02 -0.20690460615E+02  0.54367078042E+02  0.39999986013E+02 0.  0.
         12    1    3    3    0    0 -0.10064143232E+02 -0.28747141673E+02  0.20690460615E+02  0.36820921958E+02  0.00000000000E+00 0. -1.
         11    1    4    4    0    0 -0.13696685286E+01 -0.59424135380E+00 -0.30196943772E+01  0.33686301456E+01  0.51100000000E-03 0. -1.
        -11    1    4    4    0    0 -0.12295376786E+02  0.16544991982E+02 -0.50077519012E+01  0.21212982566E+02  0.51100000000E-03 0.  1.
        -12    1    4    4    0    0  0.23729188547E+02  0.12796391044E+02 -0.12663014337E+02  0.29785465330E+02  0.00000000000E+00 0.  1.
</event>
<event>
 8    1  0.2432279E-006  0.9118800E+02  0.7816164E-02  0.1184000E+00
        -11   -1    0    0    0    0  0.00000000000E+00  0.00000000000E+00  0.45593999997E+02  0.45594000000E+02  0.51100000000E-03 0. -1.
         11   -1    0    0    0    0 -0.00000000000E+00 -0.00000000000E+00 -0.45593999997E+02  0.45594000000E+02  0.51100000000E-03 0.  1.
         23    2    1    2    0    0 -0.35527136788E-14  0.35527136788E-14  0.00000000000E+00  0.91188000000E+02  0.91188000000E+02 0.  0.
    9900012    2    3    3    0    0 -0.24356502662E+02  0.21699581700E+02  0.17078311493E+02  0.54367084865E+02  0.40000001567E+02 0.  0.
        -12    1    3    3    0    0  0.24356502662E+02 -0.21699581700E+02 -0.17078311493E+02  0.36820915135E+02  0.00000000000E+00 0.  1.
         11    1    4    4    0    0 -0.28271812207E+02  0.10062360762E+02  0.17019722480E+02  0.34499527868E+02  0.51100000000E-03 0. -1.
        -11    1    4    4    0    0 -0.47869801808E+01  0.91949122707E+01  0.21575872529E+01  0.10588520857E+02  0.51100000000E-03 0.  1.
        -12    1    4    4    0    0  0.87022897254E+01  0.24423086680E+01 -0.20989982395E+01  0.92790361409E+01  0.00000000000E+00 0.  1.
</event>
<event>
 8    1  0.2432279E-006  0.9118800E+02  0.7816164E-02  0.1184000E+00
        -11   -1    0    0    0    0  0.00000000000E+00  0.00000000000E+00  0.45593999997E+02  0.45594000000E+02  0.51100000000E-03 0.  1.
         11   -1    0    0    0    0 -0.00000000000E+00 -0.00000000000E+00 -0.45593999997E+02  0.45594000000E+02  0.51100000000E-03 0. -1.
         23    2    1    2    0    0  0.00000000000E+00  0.00000000000E+00 -0.35527136788E-14  0.91188000000E+02  0.91188000000E+02 0.  0.
    9900012    2    3    3    0    0  0.46000455500E+01 -0.28676972203E+02 -0.22632936837E+02  0.54367095833E+02  0.40000026570E+02 0.  0.
        -12    1    3    3    0    0 -0.46000455500E+01  0.28676972203E+02  0.22632936837E+02  0.36820904167E+02  0.00000000000E+00 0.  1.
         11    1    4    4    0    0 -0.47838680079E+01 -0.25042740822E+02 -0.11624814298E+02  0.28020716777E+02  0.51100000000E-03 0. -1.
        -11    1    4    4    0    0  0.12410722475E+02 -0.74688706662E+00  0.20800581338E+01  0.12605971392E+02  0.51100000000E-03 0.  1.
         12    1    4    4    0    0 -0.30268089172E+01 -0.28873443147E+01 -0.13088180673E+02  0.13740407663E+02  0.00000000000E+00 0. -1.
</event>
<event>
 8    1  0.2432279E-006  0.9118800E+02  0.7816164E-02  0.1184000E+00
        -11   -1    0    0    0    0  0.00000000000E+00  0.00000000000E+00  0.45593999997E+02  0.45594000000E+02  0.51100000000E-03 0. -1.
         11   -1    0    0    0    0 -0.00000000000E+00 -0.00000000000E+00 -0.45593999997E+02  0.45594000000E+02  0.51100000000E-03 0.  1.
         23    2    1    2    0    0  0.35527136788E-14  0.00000000000E+00 -0.35527136788E-14  0.91188000000E+02  0.91188000000E+02 0.  0.
    9900012    2    3    3    0    0 -0.22203066667E+02  0.55220817159E+01  0.28849793767E+02  0.54367079910E+02  0.39999990270E+02 0.  0.
        -12    1    3    3    0    0  0.22203066667E+02 -0.55220817159E+01 -0.28849793767E+02  0.36820920090E+02  0.00000000000E+00 0.  1.
         11    1    4    4    0    0 -0.22063683848E+02 -0.79895598175E+00 -0.11779353120E+01  0.22109545619E+02  0.51100000000E-03 0. -1.
        -11    1    4    4    0    0 -0.46034961600E+01  0.15229883603E+01  0.88799613701E+01  0.10117578002E+02  0.51100000000E-03 0.  1.
        -12    1    4    4    0    0  0.44641133412E+01  0.47980493374E+01  0.21147767709E+02  0.22139956288E+02  0.00000000000E+00 0.  1.
</event>
<event>
 8    1  0.2432279E-006  0.9118800E+02  0.7816164E-02  0.1184000E+00
        -11   -1    0    0    0    0  0.00000000000E+00  0.00000000000E+00  0.45593999997E+02  0.45594000000E+02  0.51100000000E-03 0. -1.
         11   -1    0    0    0    0 -0.00000000000E+00 -0.00000000000E+00 -0.45593999997E+02  0.45594000000E+02  0.51100000000E-03 0.  1.
         23    2    1    2    0    0  0.17763568394E-14 -0.71054273576E-14  0.00000000000E+00  0.91188000000E+02  0.91188000000E+02 0.  0.
    9900012    2    3    3    0    0 -0.93055167929E+01  0.33381302201E+02 -0.12444978498E+02  0.54367062081E+02  0.39999949626E+02 0.  0.
         12    1    3    3    0    0  0.93055167929E+01 -0.33381302201E+02  0.12444978498E+02  0.36820937919E+02  0.00000000000E+00 0. -1.
         11    1    4    4    0    0  0.71241207136E+01  0.20922656253E+00 -0.51284290225E+00  0.71456196233E+01  0.51100000000E-03 0.  1.
        -11    1    4    4    0    0 -0.12314465479E+02  0.47861915416E+01  0.47506127938E+01  0.14040014661E+02  0.51100000000E-03 0. -1.
        -12    1    4    4    0    0 -0.41151720278E+01  0.28385884097E+02 -0.16682748390E+02  0.33181427797E+02  0.00000000000E+00 0.  1.
</event>
<event>
 8    1  0.2432279E-006  0.9118800E+02  0.7816164E-02  0.1184000E+00
        -11   -1    0    0    0    0  0.00000000000E+00  0.00000000000E+00  0.45593999997E+02  0.45594000000E+02  0.51100000000E-03 0.  1.
         11   -1    0    0    0    0 -0.00000000000E+00 -0.00000000000E+00 -0.45593999997E+02  0.45594000000E+02  0.51100000000E-03 0. -1.
         23    2    1    2    0    0  0.00000000000E+00  0.35527136788E-14 -0.35527136788E-14  0.91188000000E+02  0.91188000000E+02 0.  0.
    9900012    2    3    3    0    0  0.15224581597E+02 -0.17218763363E+02  0.28766303578E+02  0.54367164620E+02  0.40000183384E+02 0.  0.
         12    1    3    3    0    0 -0.15224581597E+02  0.17218763363E+02 -0.28766303578E+02  0.36820835380E+02  0.00000000000E+00 0. -1.
         11    1    4    4    0    0  0.16288080184E+02 -0.11651224542E+02  0.17272219774E+02  0.26445834560E+02  0.51100000000E-03 0. -1.
        -11    1    4    4    0    0  0.18318703880E+01 -0.12289838817E+02  0.15268918107E+02  0.19685927656E+02  0.51100000000E-03 0.  1.
        -12    1    4    4    0    0 -0.28953689741E+01  0.67222999967E+01 -0.37748343030E+01  0.82354024040E+01  0.00000000000E+00 0.  1.
</event>
<event>
 8    1  0.2432279E-006  0.9118800E+02  0.7816164E-02  0.1184000E+00
        -11   -1    0    0    0    0  0.00000000000E+00  0.00000000000E+00  0.45593999997E+02  0.45594000000E+02  0.51100000000E-03 0.  1.
         11   -1    0    0    0    0 -0.00000000000E+00 -0.00000000000E+00 -0.45593999997E+02  0.45594000000E+02  0.51100000000E-03 0. -1.
         23    2    1    2    0    0 -0.35527136788E-14  0.00000000000E+00  0.00000000000E+00  0.91188000000E+02  0.91188000000E+02 0.  0.
    9900012    2    3    3    0    0 -0.26846470018E+02 -0.16931697079E+02  0.18664497231E+02  0.54367098663E+02  0.40000033022E+02 0.  0.
         12    1    3    3    0    0  0.26846470018E+02  0.16931697079E+02 -0.18664497231E+02  0.36820901337E+02  0.00000000000E+00 0. -1.
         11    1    4    4    0    0 -0.74349992002E+01 -0.28427375269E+01  0.90201816464E+01  0.12030130795E+02  0.51100000000E-03 0.  1.
        -11    1    4    4    0    0 -0.73239704250E+00 -0.14629679960E+02  0.16833954747E+02  0.22314703087E+02  0.51100000000E-03 0. -1.
         12    1    4    4    0    0 -0.18679073775E+02  0.54072040807E+00 -0.71896391627E+01  0.20022264781E+02  0.00000000000E+00 0. -1.
</event>
<event>
 8    1  0.2432279E-006  0.9118800E+02  0.7816164E-02  0.1184000E+00
        -11   -1    0    0    0    0  0.00000000000E+00  0.00000000000E+00  0.45593999997E+02  0.45594000000E+02  0.51100000000E-03 0.  1.
         11   -1    0    0    0    0 -0.00000000000E+00 -0.00000000000E+00 -0.45593999997E+02  0.45594000000E+02  0.51100000000E-03 0. -1.
         23    2    1    2    0    0  0.00000000000E+00 -0.44408920985E-15  0.00000000000E+00  0.91188000000E+02  0.91188000000E+02 0.  0.
    9900012    2    3    3    0    0 -0.34205801861E+02 -0.20131185998E+01  0.13479254340E+02  0.54367084408E+02  0.40000000525E+02 0.  0.
        -12    1    3    3    0    0  0.34205801861E+02  0.20131185998E+01 -0.13479254340E+02  0.36820915592E+02  0.00000000000E+00 0.  1.
         11    1    4    4    0    0 -0.51861270237E+01  0.15819780215E+02  0.83379007659E+01  0.18619397117E+02  0.51100000000E-03 0. -1.
        -11    1    4    4    0    0 -0.96192332498E+01 -0.91985707291E+01 -0.17461237249E+01  0.13423572553E+02  0.51100000000E-03 0.  1.
         12    1    4    4    0    0 -0.19400441587E+02 -0.86343280857E+01  0.68874772991E+01  0.22324114738E+02  0.00000000000E+00 0. -1.
</event>
<event>
 8    1  0.2432279E-006  0.9118800E+02  0.7816164E-02  0.1184000E+00
        -11   -1    0    0    0    0  0.00000000000E+00  0.00000000000E+00  0.45593999997E+02  0.45594000000E+02  0.51100000000E-03 0. -1.
         11   -1    0    0    0    0 -0.00000000000E+00 -0.00000000000E+00 -0.45593999997E+02  0.45594000000E+02  0.51100000000E-03 0.  1.
         23    2    1    2    0    0  0.00000000000E+00 -0.88817841970E-15  0.00000000000E+00  0.91188000000E+02  0.91188000000E+02 0.  0.
    9900012    2    3    3    0    0  0.35173032779E+02  0.98579351792E+00 -0.10847717846E+02  0.54366986894E+02  0.39999778221E+02 0.  0.
        -12    1    3    3    0    0 -0.35173032779E+02 -0.98579351792E+00  0.10847717846E+02  0.36821013106E+02  0.00000000000E+00 0.  1.
         11    1    4    4    0    0 -0.13465166206E+01  0.67176529084E+01  0.77934645840E+00  0.68954585613E+01  0.51100000000E-03 0.  1.
        -11    1    4    4    0    0  0.28973971860E+02 -0.13607677931E+02 -0.67889200816E+00  0.32017508314E+02  0.51100000000E-03 0. -1.
         12    1    4    4    0    0  0.75455775395E+01  0.78758185406E+01 -0.10948172297E+02  0.15454020018E+02  0.00000000000E+00 0. -1.
</event>
<event>
 8    1  0.2432279E-006  0.9118800E+02  0.7816164E-02  0.1184000E+00
        -11   -1    0    0    0    0  0.00000000000E+00  0.00000000000E+00  0.45593999997E+02  0.45594000000E+02  0.51100000000E-03 0. -1.
         11   -1    0    0    0    0 -0.00000000000E+00 -0.00000000000E+00 -0.45593999997E+02  0.45594000000E+02  0.51100000000E-03 0.  1.
         23    2    1    2    0    0  0.71054273576E-14  0.17763568394E-14  0.44408920985E-15  0.91188000000E+02  0.91188000000E+02 0.  0.
    9900012    2    3    3    0    0  0.33258096601E+02  0.15794617019E+02  0.45607695910E+00  0.54367096663E+02  0.40000028464E+02 0.  0.
         12    1    3    3    0    0 -0.33258096601E+02 -0.15794617019E+02 -0.45607695910E+00  0.36820903337E+02  0.00000000000E+00 0. -1.
         11    1    4    4    0    0 -0.10809694907E+01  0.11833558571E+02 -0.30436116643E+01  0.12266424733E+02  0.51100000000E-03 0. -1.
        -11    1    4    4    0    0  0.23960696281E+02 -0.93044373359E+00 -0.85546350670E+01  0.25459035198E+02  0.51100000000E-03 0.  1.
         12    1    4    4    0    0  0.10378369811E+02  0.48915021816E+01  0.12054323690E+02  0.16641636733E+02  0.00000000000E+00 0. -1.
</event>
<event>
 8    1  0.2432279E-006  0.9118800E+02  0.7816164E-02  0.1184000E+00
        -11   -1    0    0    0    0  0.00000000000E+00  0.00000000000E+00  0.45593999997E+02  0.45594000000E+02  0.51100000000E-03 0. -1.
         11   -1    0    0    0    0 -0.00000000000E+00 -0.00000000000E+00 -0.45593999997E+02  0.45594000000E+02  0.51100000000E-03 0.  1.
         23    2    1    2    0    0  0.00000000000E+00  0.35527136788E-14  0.00000000000E+00  0.91188000000E+02  0.91188000000E+02 0.  0.
    9900012    2    3    3    0    0 -0.24637128973E+02 -0.20455667500E+02  0.18175733553E+02  0.54367085466E+02  0.40000002938E+02 0.  0.
        -12    1    3    3    0    0  0.24637128973E+02  0.20455667500E+02 -0.18175733553E+02  0.36820914534E+02  0.00000000000E+00 0.  1.
         11    1    4    4    0    0 -0.97093549805E+01  0.77147057487E+01  0.15861794368E+02  0.20134169458E+02  0.51100000000E-03 0. -1.
        -11    1    4    4    0    0 -0.87284283978E+01 -0.47816289298E+01  0.38601432747E+00  0.99598416072E+01  0.51100000000E-03 0.  1.
         12    1    4    4    0    0 -0.61993455943E+01 -0.23388744319E+02  0.19279248576E+01  0.24273074401E+02  0.00000000000E+00 0. -1.
</event>
<event>
 8    1  0.2432279E-006  0.9118800E+02  0.7816164E-02  0.1184000E+00
        -11   -1    0    0    0    0  0.00000000000E+00  0.00000000000E+00  0.45593999997E+02  0.45594000000E+02  0.51100000000E-03 0. -1.
         11   -1    0    0    0    0 -0.00000000000E+00 -0.00000000000E+00 -0.45593999997E+02  0.45594000000E+02  0.51100000000E-03 0.  1.
         23    2    1    2    0    0  0.00000000000E+00  0.00000000000E+00 -0.35527136788E-14  0.91188000000E+02  0.91188000000E+02 0.  0.
    9900012    2    3    3    0    0  0.18068620245E+02 -0.26376017171E+02  0.18265004169E+02  0.54367086151E+02  0.40000004499E+02 0.  0.
        -12    1    3    3    0    0 -0.18068620245E+02  0.26376017171E+02 -0.18265004169E+02  0.36820913849E+02  0.00000000000E+00 0.  1.
         11    1    4    4    0    0  0.20243381155E+02 -0.12036092939E+02  0.33680961970E+01  0.23790882415E+02  0.51100000000E-03 0. -1.
        -11    1    4    4    0    0  0.26125530867E+01 -0.73209695311E+01  0.19443733042E+02  0.20939932745E+02  0.51100000000E-03 0.  1.
        -12    1    4    4    0    0 -0.47873139967E+01 -0.70189547013E+01 -0.45468250701E+01  0.96362709914E+01  0.00000000000E+00 0.  1.
</event>
<event>
 8    1  0.2432279E-006  0.9118800E+02  0.7816164E-02  0.1184000E+00
        -11   -1    0    0    0    0  0.00000000000E+00  0.00000000000E+00  0.45593999997E+02  0.45594000000E+02  0.51100000000E-03 0.  1.
         11   -1    0    0    0    0 -0.00000000000E+00 -0.00000000000E+00 -0.45593999997E+02  0.45594000000E+02  0.51100000000E-03 0. -1.
         23    2    1    2    0    0  0.66613381478E-15  0.00000000000E+00  0.00000000000E+00  0.91188000000E+02  0.91188000000E+02 0.  0.
    9900012    2    3    3    0    0  0.16877787731E+01  0.18007656806E+02  0.32072662315E+02  0.54367082455E+02  0.39999996073E+02 0.  0.
         12    1    3    3    0    0 -0.16877787731E+01 -0.18007656806E+02 -0.32072662315E+02  0.36820917545E+02  0.00000000000E+00 0. -1.
         11    1    4    4    0    0 -0.30391752919E+01  0.26888909546E+01 -0.78364900233E+01  0.88248114522E+01  0.51100000000E-03 0. -1.
        -11    1    4    4    0    0 -0.34093819127E+01  0.12862637625E+02  0.26753215655E+02  0.29879857426E+02  0.51100000000E-03 0.  1.
         12    1    4    4    0    0  0.81363359777E+01  0.24561282272E+01  0.13155936684E+02  0.15662413577E+02  0.00000000000E+00 0. -1.
</event>
<event>
 8    1  0.2432279E-006  0.9118800E+02  0.7816164E-02  0.1184000E+00
        -11   -1    0    0    0    0  0.00000000000E+00  0.00000000000E+00  0.45593999997E+02  0.45594000000E+02  0.51100000000E-03 0.  1.
         11   -1    0    0    0    0 -0.00000000000E+00 -0.00000000000E+00 -0.45593999997E+02  0.45594000000E+02  0.51100000000E-03 0. -1.
         23    2    1    2    0    0 -0.35527136788E-14 -0.88817841970E-15  0.00000000000E+00  0.91188000000E+02  0.91188000000E+02 0.  0.
    9900012    2    3    3    0    0  0.25718718066E+02 -0.70997241965E+01 -0.25375605259E+02  0.54367083595E+02  0.39999998672E+02 0.  0.
        -12    1    3    3    0    0 -0.25718718066E+02  0.70997241965E+01  0.25375605259E+02  0.36820916405E+02  0.00000000000E+00 0.  1.
         11    1    4    4    0    0  0.50689952721E+01  0.64685970679E+01  0.52672860170E+01  0.97612377976E+01  0.51100000000E-03 0. -1.
        -11    1    4    4    0    0  0.41316777691E+01  0.56555879224E+01 -0.78303282774E+01  0.10505735440E+02  0.51100000000E-03 0.  1.
         12    1    4    4    0    0  0.16518045025E+02 -0.19223909187E+02 -0.22812562998E+02  0.34100110358E+02  0.00000000000E+00 0. -1.
</event>
<event>
 8    1  0.2432279E-006  0.9118800E+02  0.7816164E-02  0.1184000E+00
        -11   -1    0    0    0    0  0.00000000000E+00  0.00000000000E+00  0.45593999997E+02  0.45594000000E+02  0.51100000000E-03 0.  1.
         11   -1    0    0    0    0 -0.00000000000E+00 -0.00000000000E+00 -0.45593999997E+02  0.45594000000E+02  0.51100000000E-03 0. -1.
         23    2    1    2    0    0  0.00000000000E+00  0.00000000000E+00  0.00000000000E+00  0.91188000000E+02  0.91188000000E+02 0.  0.
    9900012    2    3    3    0    0 -0.53982579278E+01  0.14106673308E+02 -0.33580404757E+02  0.54367041238E+02  0.39999902111E+02 0.  0.
        -12    1    3    3    0    0  0.53982579278E+01 -0.14106673308E+02  0.33580404757E+02  0.36820958762E+02  0.00000000000E+00 0.  1.
         11    1    4    4    0    0 -0.74178922386E+01  0.80933374188E+01 -0.35427583046E+02  0.37089633007E+02  0.51100000000E-03 0. -1.
        -11    1    4    4    0    0  0.55044869961E+01  0.70153070527E+01 -0.44842993111E+01  0.99811247215E+01  0.51100000000E-03 0.  1.
         12    1    4    4    0    0 -0.34848526853E+01 -0.10019711632E+01  0.63314776003E+01  0.72962835096E+01  0.00000000000E+00 0. -1.
</event>
<event>
 8    1  0.2432279E-006  0.9118800E+02  0.7816164E-02  0.1184000E+00
        -11   -1    0    0    0    0  0.00000000000E+00  0.00000000000E+00  0.45593999997E+02  0.45594000000E+02  0.51100000000E-03 0. -1.
         11   -1    0    0    0    0 -0.00000000000E+00 -0.00000000000E+00 -0.45593999997E+02  0.45594000000E+02  0.51100000000E-03 0.  1.
         23    2    1    2    0    0 -0.17763568394E-14  0.00000000000E+00  0.35527136788E-14  0.91188000000E+02  0.91188000000E+02 0.  0.
    9900012    2    3    3    0    0 -0.11838400346E+02 -0.26065786635E+02  0.23156012808E+02  0.54367165072E+02  0.40000184415E+02 0.  0.
        -12    1    3    3    0    0  0.11838400346E+02  0.26065786635E+02 -0.23156012808E+02  0.36820834928E+02  0.00000000000E+00 0.  1.
         11    1    4    4    0    0  0.95520425347E+00 -0.88234493787E+01 -0.99230263350E+01  0.13312855667E+02  0.51100000000E-03 0. -1.
        -11    1    4    4    0    0 -0.88876828025E+00 -0.11292112390E+01 -0.83717620872E+00  0.16630969135E+01  0.51100000000E-03 0.  1.
         12    1    4    4    0    0 -0.11904836319E+02 -0.16113126017E+02  0.33916215351E+02  0.39391212492E+02  0.00000000000E+00 0. -1.
</event>
<event>
 8    1  0.2432279E-006  0.9118800E+02  0.7816164E-02  0.1184000E+00
        -11   -1    0    0    0    0  0.00000000000E+00  0.00000000000E+00  0.45593999997E+02  0.45594000000E+02  0.51100000000E-03 0. -1.
         11   -1    0    0    0    0 -0.00000000000E+00 -0.00000000000E+00 -0.45593999997E+02  0.45594000000E+02  0.51100000000E-03 0.  1.
         23    2    1    2    0    0 -0.17763568394E-14  0.00000000000E+00  0.88817841970E-15  0.91188000000E+02  0.91188000000E+02 0.  0.
    9900012    2    3    3    0    0  0.14694535174E+02  0.33364645530E+02 -0.51624540389E+01  0.54367083838E+02  0.39999999225E+02 0.  0.
        -12    1    3    3    0    0 -0.14694535174E+02 -0.33364645530E+02  0.51624540389E+01  0.36820916162E+02  0.00000000000E+00 0.  1.
         11    1    4    4    0    0  0.10732998524E+02  0.19235024868E+02  0.10909368629E+02  0.24580434560E+02  0.51100000000E-03 0. -1.
        -11    1    4    4    0    0 -0.17336867503E+01  0.72445835246E+00  0.43295763300E+01  0.47197183296E+01  0.51100000000E-03 0.  1.
        -12    1    4    4    0    0  0.56952233997E+01  0.13405162310E+02 -0.20401398998E+02  0.25066930948E+02  0.00000000000E+00 0.  1.
</event>
<event>
 8    1  0.2432279E-006  0.9118800E+02  0.7816164E-02  0.1184000E+00
        -11   -1    0    0    0    0  0.00000000000E+00  0.00000000000E+00  0.45593999997E+02  0.45594000000E+02  0.51100000000E-03 0.  1.
         11   -1    0    0    0    0 -0.00000000000E+00 -0.00000000000E+00 -0.45593999997E+02  0.45594000000E+02  0.51100000000E-03 0. -1.
         23    2    1    2    0    0 -0.88817841970E-15  0.17763568394E-14  0.00000000000E+00  0.91188000000E+02  0.91188000000E+02 0.  0.
    9900012    2    3    3    0    0  0.45299794825E+01  0.15430864573E+02  0.33123219316E+02  0.54367082664E+02  0.39999996549E+02 0.  0.
         12    1    3    3    0    0 -0.45299794825E+01 -0.15430864573E+02 -0.33123219316E+02  0.36820917336E+02  0.00000000000E+00 0. -1.
         11    1    4    4    0    0 -0.55361178173E+01 -0.77891395197E+01  0.16023975805E+01  0.96895290501E+01  0.51100000000E-03 0. -1.
        -11    1    4    4    0    0  0.13070538596E+02  0.85346893845E+01  0.21797307764E+02  0.26810492873E+02  0.51100000000E-03 0.  1.
        -12    1    4    4    0    0 -0.30044412957E+01  0.14685314708E+02  0.97235139719E+01  0.17867060741E+02  0.00000000000E+00 0.  1.
</event>
<event>
 8    1  0.2432279E-006  0.9118800E+02  0.7816164E-02  0.1184000E+00
        -11   -1    0    0    0    0  0.00000000000E+00  0.00000000000E+00  0.45593999997E+02  0.45594000000E+02  0.51100000000E-03 0. -1.
         11   -1    0    0    0    0 -0.00000000000E+00 -0.00000000000E+00 -0.45593999997E+02  0.45594000000E+02  0.51100000000E-03 0.  1.
         23    2    1    2    0    0  0.00000000000E+00 -0.17763568394E-14  0.00000000000E+00  0.91188000000E+02  0.91188000000E+02 0.  0.
    9900012    2    3    3    0    0 -0.18057119710E+02  0.10029867140E+02  0.30481546901E+02  0.54367047969E+02  0.39999917454E+02 0.  0.
        -12    1    3    3    0    0  0.18057119710E+02 -0.10029867140E+02 -0.30481546901E+02  0.36820952031E+02  0.00000000000E+00 0.  1.
         11    1    4    4    0    0 -0.10398243272E+02 -0.50354528475E+00  0.12453768409E+02  0.16231862766E+02  0.51100000000E-03 0. -1.
        -11    1    4    4    0    0 -0.14114893493E+02 -0.36053997989E+01  0.17241773907E+02  0.22572281536E+02  0.51100000000E-03 0.  1.
        -12    1    4    4    0    0  0.64560170556E+01  0.14138812224E+02  0.78600458425E+00  0.15562903666E+02  0.00000000000E+00 0.  1.
</event>
<event>
 8    1  0.2432279E-006  0.9118800E+02  0.7816164E-02  0.1184000E+00
        -11   -1    0    0    0    0  0.00000000000E+00  0.00000000000E+00  0.45593999997E+02  0.45594000000E+02  0.51100000000E-03 0.  1.
         11   -1    0    0    0    0 -0.00000000000E+00 -0.00000000000E+00 -0.45593999997E+02  0.45594000000E+02  0.51100000000E-03 0. -1.
         23    2    1    2    0    0 -0.17763568394E-14  0.17763568394E-14 -0.71054273576E-14  0.91188000000E+02  0.91188000000E+02 0.  0.
    9900012    2    3    3    0    0 -0.14646303902E+02 -0.10584413196E+02  0.32081686085E+02  0.54367101006E+02  0.40000038363E+02 0.  0.
         12    1    3    3    0    0  0.14646303902E+02  0.10584413196E+02 -0.32081686085E+02  0.36820898994E+02  0.00000000000E+00 0. -1.
         11    1    4    4    0    0  0.37966037622E+01 -0.14115417747E+02  0.19556053106E+02  0.24415127107E+02  0.51100000000E-03 0. -1.
        -11    1    4    4    0    0 -0.11409364120E+02 -0.50628107503E+01  0.13991904145E+02  0.18750440640E+02  0.51100000000E-03 0.  1.
         12    1    4    4    0    0 -0.70335435434E+01  0.85938153018E+01 -0.14662711657E+01  0.11201533259E+02  0.00000000000E+00 0. -1.
</event>
<event>
 8    1  0.2432279E-006  0.9118800E+02  0.7816164E-02  0.1184000E+00
        -11   -1    0    0    0    0  0.00000000000E+00  0.00000000000E+00  0.45593999997E+02  0.45594000000E+02  0.51100000000E-03 0.  1.
         11   -1    0    0    0    0 -0.00000000000E+00 -0.00000000000E+00 -0.45593999997E+02  0.45594000000E+02  0.51100000000E-03 0. -1.
         23    2    1    2    0    0  0.00000000000E+00  0.88817841970E-15  0.44408920985E-15  0.91188000000E+02  0.91188000000E+02 0.  0.
    9900012    2    3    3    0    0  0.36454136961E+02  0.36750463252E+01 -0.36564931234E+01  0.54367081910E+02  0.39999994829E+02 0.  0.
         12    1    3    3    0    0 -0.36454136961E+02 -0.36750463252E+01  0.36564931234E+01  0.36820918090E+02  0.00000000000E+00 0. -1.
         11    1    4    4    0    0  0.39478874234E+01 -0.17600159641E-01 -0.85289602613E+01  0.93983662555E+01  0.51100000000E-03 0. -1.
        -11    1    4    4    0    0 -0.40158728299E+01 -0.18593456969E+01  0.66458450088E+01  0.79844634853E+01  0.51100000000E-03 0.  1.
        -12    1    4    4    0    0  0.36522122367E+02  0.55519921817E+01 -0.17733778709E+01  0.36984252169E+02  0.00000000000E+00 0.  1.
</event>
<event>
 8    1  0.2432279E-006  0.9118800E+02  0.7816164E-02  0.1184000E+00
        -11   -1    0    0    0    0  0.00000000000E+00  0.00000000000E+00  0.45593999997E+02  0.45594000000E+02  0.51100000000E-03 0. -1.
         11   -1    0    0    0    0 -0.00000000000E+00 -0.00000000000E+00 -0.45593999997E+02  0.45594000000E+02  0.51100000000E-03 0.  1.
         23    2    1    2    0    0  0.00000000000E+00  0.35527136788E-14  0.35527136788E-14  0.91188000000E+02  0.91188000000E+02 0.  0.
    9900012    2    3    3    0    0  0.41324099194E+01  0.19924696859E+02 -0.30687361222E+02  0.54367020988E+02  0.39999855946E+02 0.  0.
         12    1    3    3    0    0 -0.41324099194E+01 -0.19924696859E+02  0.30687361222E+02  0.36820979012E+02  0.00000000000E+00 0. -1.
         11    1    4    4    0    0 -0.29334068459E+01  0.18228491900E+01 -0.23968910741E+01  0.42038960472E+01  0.51100000000E-03 0. -1.
        -11    1    4    4    0    0 -0.42417410488E+00  0.27423397475E+02 -0.26378715830E+02  0.38053374382E+02  0.51100000000E-03 0.  1.
         12    1    4    4    0    0  0.74899908702E+01 -0.93215498063E+01 -0.19117543170E+01  0.12109750559E+02  0.00000000000E+00 0. -1.
</event>
<event>
 8    1  0.2432279E-006  0.9118800E+02  0.7816164E-02  0.1184000E+00
        -11   -1    0    0    0    0  0.00000000000E+00  0.00000000000E+00  0.45593999997E+02  0.45594000000E+02  0.51100000000E-03 0.  1.
         11   -1    0    0    0    0 -0.00000000000E+00 -0.00000000000E+00 -0.45593999997E+02  0.45594000000E+02  0.51100000000E-03 0. -1.
         23    2    1    2    0    0  0.00000000000E+00  0.71054273576E-14 -0.35527136788E-14  0.91188000000E+02  0.91188000000E+02 0.  0.
    9900012    2    3    3    0    0 -0.94759191711E+01  0.33266946424E+02 -0.12621291125E+02  0.54367085316E+02  0.40000002594E+02 0.  0.
        -12    1    3    3    0    0  0.94759191711E+01 -0.33266946424E+02  0.12621291125E+02  0.36820914684E+02  0.00000000000E+00 0.  1.
         11    1    4    4    0    0 -0.87964156499E+00  0.61343189416E+01 -0.12039442606E+02  0.13540746533E+02  0.51100000000E-03 0. -1.
        -11    1    4    4    0    0  0.42833961903E+01 -0.38197189650E+01 -0.41924554265E+01  0.71073496227E+01  0.51100000000E-03 0.  1.
        -12    1    4    4    0    0 -0.12879673796E+02  0.30952346448E+02  0.36106069069E+01  0.33718989160E+02  0.00000000000E+00 0.  1.
</event>
<event>
 8    1  0.2432279E-006  0.9118800E+02  0.7816164E-02  0.1184000E+00
        -11   -1    0    0    0    0  0.00000000000E+00  0.00000000000E+00  0.45593999997E+02  0.45594000000E+02  0.51100000000E-03 0. -1.
         11   -1    0    0    0    0 -0.00000000000E+00 -0.00000000000E+00 -0.45593999997E+02  0.45594000000E+02  0.51100000000E-03 0.  1.
         23    2    1    2    0    0  0.35527136788E-14 -0.88817841970E-15  0.00000000000E+00  0.91188000000E+02  0.91188000000E+02 0.  0.
    9900012    2    3    3    0    0  0.28483298292E+02  0.49303267912E+01  0.22807223764E+02  0.54367138254E+02  0.40000123277E+02 0.  0.
        -12    1    3    3    0    0 -0.28483298292E+02 -0.49303267912E+01 -0.22807223764E+02  0.36820861746E+02  0.00000000000E+00 0.  1.
         11    1    4    4    0    0  0.28567360702E+01 -0.64173775532E+01  0.16937724779E+02  0.18336580831E+02  0.51100000000E-03 0. -1.
        -11    1    4    4    0    0  0.26982291309E+02  0.15272796399E+02  0.33792595077E+01  0.31188487447E+02  0.51100000000E-03 0.  1.
        -12    1    4    4    0    0 -0.13557290867E+01 -0.39250920549E+01  0.24902394777E+01  0.48420699760E+01  0.00000000000E+00 0.  1.
</event>
<event>
 8    1  0.2432279E-006  0.9118800E+02  0.7816164E-02  0.1184000E+00
        -11   -1    0    0    0    0  0.00000000000E+00  0.00000000000E+00  0.45593999997E+02  0.45594000000E+02  0.51100000000E-03 0.  1.
         11   -1    0    0    0    0 -0.00000000000E+00 -0.00000000000E+00 -0.45593999997E+02  0.45594000000E+02  0.51100000000E-03 0. -1.
         23    2    1    2    0    0  0.71054273576E-14  0.88817841970E-15 -0.22204460493E-14  0.91188000000E+02  0.91188000000E+02 0.  0.
    9900012    2    3    3    0    0  0.36323613300E+02 -0.54797374810E+01  0.25193887345E+01  0.54367085758E+02  0.40000003603E+02 0.  0.
        -12    1    3    3    0    0 -0.36323613300E+02  0.54797374810E+01 -0.25193887345E+01  0.36820914242E+02  0.00000000000E+00 0.  1.
         11    1    4    4    0    0  0.20419344252E+02  0.94172463445E+01  0.26022269191E+01  0.22636380753E+02  0.51100000000E-03 0. -1.
        -11    1    4    4    0    0  0.11500902719E+02 -0.90600707950E+01  0.11097774279E+02  0.18371615073E+02  0.51100000000E-03 0.  1.
        -12    1    4    4    0    0  0.44033663281E+01 -0.58369130305E+01 -0.11180612464E+02  0.13359089932E+02  0.00000000000E+00 0.  1.
</event>
<event>
 8    1  0.2432279E-006  0.9118800E+02  0.7816164E-02  0.1184000E+00
        -11   -1    0    0    0    0  0.00000000000E+00  0.00000000000E+00  0.45593999997E+02  0.45594000000E+02  0.51100000000E-03 0. -1.
         11   -1    0    0    0    0 -0.00000000000E+00 -0.00000000000E+00 -0.45593999997E+02  0.45594000000E+02  0.51100000000E-03 0.  1.
         23    2    1    2    0    0 -0.17763568394E-14  0.35527136788E-14 -0.35527136788E-14  0.91188000000E+02  0.91188000000E+02 0.  0.
    9900012    2    3    3    0    0  0.12917787717E+02 -0.19893781427E+02  0.28162869162E+02  0.54367095905E+02  0.40000026734E+02 0.  0.
        -12    1    3    3    0    0 -0.12917787717E+02  0.19893781427E+02 -0.28162869162E+02  0.36820904095E+02  0.00000000000E+00 0.  1.
         11    1    4    4    0    0 -0.44108828875E+01 -0.67964018772E+01  0.22321706519E+01  0.84041390043E+01  0.51100000000E-03 0.  1.
        -11    1    4    4    0    0 -0.63572531032E+01 -0.94896717300E+01  0.16816456138E+02  0.20328839954E+02  0.51100000000E-03 0. -1.
        -12    1    4    4    0    0  0.23685923708E+02 -0.36077078195E+01  0.91142423726E+01  0.25634116947E+02  0.00000000000E+00 0.  1.
</event>
<event>
 8    1  0.2432279E-006  0.9118800E+02  0.7816164E-02  0.1184000E+00
        -11   -1    0    0    0    0  0.00000000000E+00  0.00000000000E+00  0.45593999997E+02  0.45594000000E+02  0.51100000000E-03 0. -1.
         11   -1    0    0    0    0 -0.00000000000E+00 -0.00000000000E+00 -0.45593999997E+02  0.45594000000E+02  0.51100000000E-03 0.  1.
         23    2    1    2    0    0 -0.88817841970E-15 -0.71054273576E-14 -0.22204460493E-14  0.91188000000E+02  0.91188000000E+02 0.  0.
    9900012    2    3    3    0    0  0.69165222451E+01  0.36136209024E+02 -0.14547430511E+01  0.54367079860E+02  0.39999990157E+02 0.  0.
        -12    1    3    3    0    0 -0.69165222451E+01 -0.36136209024E+02  0.14547430511E+01  0.36820920140E+02  0.00000000000E+00 0.  1.
         11    1    4    4    0    0  0.11055823440E+02  0.23071400183E+02  0.91504850773E+01  0.27170795273E+02  0.51100000000E-03 0. -1.
        -11    1    4    4    0    0  0.48104680101E+01  0.13851848025E+02 -0.10797537731E+02  0.18209918108E+02  0.51100000000E-03 0.  1.
        -12    1    4    4    0    0 -0.89497692053E+01 -0.78703918433E+00  0.19230960274E+00  0.89863664787E+01  0.00000000000E+00 0.  1.
</event>
<event>
 8    1  0.2432279E-006  0.9118800E+02  0.7816164E-02  0.1184000E+00
        -11   -1    0    0    0    0  0.00000000000E+00  0.00000000000E+00  0.45593999997E+02  0.45594000000E+02  0.51100000000E-03 0.  1.
         11   -1    0    0    0    0 -0.00000000000E+00 -0.00000000000E+00 -0.45593999997E+02  0.45594000000E+02  0.51100000000E-03 0. -1.
         23    2    1    2    0    0  0.00000000000E+00  0.35527136788E-14 -0.35527136788E-14  0.91188000000E+02  0.91188000000E+02 0.  0.
    9900012    2    3    3    0    0 -0.92766992088E+00  0.27044555567E+02 -0.24970086900E+02  0.54367166263E+02  0.40000187130E+02 0.  0.
        -12    1    3    3    0    0  0.92766992088E+00 -0.27044555567E+02  0.24970086900E+02  0.36820833737E+02  0.00000000000E+00 0.  1.
         11    1    4    4    0    0 -0.95355458470E+01  0.15336223232E+02 -0.27915027440E+02  0.33247182359E+02  0.51100000000E-03 0. -1.
        -11    1    4    4    0    0 -0.33660749795E+01  0.26538928731E+01 -0.27178887314E+01  0.50754829886E+01  0.51100000000E-03 0.  1.
        -12    1    4    4    0    0  0.11973950906E+02  0.90544394618E+01  0.56628292716E+01  0.16044500915E+02  0.00000000000E+00 0.  1.
</event>
<event>
 8    1  0.2432279E-006  0.9118800E+02  0.7816164E-02  0.1184000E+00
        -11   -1    0    0    0    0  0.00000000000E+00  0.00000000000E+00  0.45593999997E+02  0.45594000000E+02  0.51100000000E-03 0. -1.
         11   -1    0    0    0    0 -0.00000000000E+00 -0.00000000000E+00 -0.45593999997E+02  0.45594000000E+02  0.51100000000E-03 0.  1.
         23    2    1    2    0    0  0.00000000000E+00  0.00000000000E+00  0.35527136788E-14  0.91188000000E+02  0.91188000000E+02 0.  0.
    9900012    2    3    3    0    0  0.17564025687E+02 -0.26572798432E+02  0.18470808821E+02  0.54367090270E+02  0.40000013888E+02 0.  0.
        -12    1    3    3    0    0 -0.17564025687E+02  0.26572798432E+02 -0.18470808821E+02  0.36820909730E+02  0.00000000000E+00 0.  1.
         11    1    4    4    0    0  0.42631891334E+01 -0.20480491424E+01  0.24669781692E+02  0.25119064789E+02  0.51100000000E-03 0. -1.
        -11    1    4    4    0    0  0.58637011995E+01 -0.16777935101E+02 -0.48628140843E+01  0.18426314311E+02  0.51100000000E-03 0.  1.
         12    1    4    4    0    0  0.74371353536E+01 -0.77468141889E+01 -0.13361587865E+01  0.10821711170E+02  0.00000000000E+00 0. -1.
</event>
<event>
 8    1  0.2432279E-006  0.9118800E+02  0.7816164E-02  0.1184000E+00
        -11   -1    0    0    0    0  0.00000000000E+00  0.00000000000E+00  0.45593999997E+02  0.45594000000E+02  0.51100000000E-03 0. -1.
         11   -1    0    0    0    0 -0.00000000000E+00 -0.00000000000E+00 -0.45593999997E+02  0.45594000000E+02  0.51100000000E-03 0.  1.
         23    2    1    2    0    0 -0.53290705182E-14 -0.71054273576E-14 -0.71054273576E-14  0.91188000000E+02  0.91188000000E+02 0.  0.
    9900012    2    3    3    0    0 -0.15246986612E+02 -0.28258703397E+02 -0.18020911482E+02  0.54367106894E+02  0.40000051787E+02 0.  0.
         12    1    3    3    0    0  0.15246986612E+02  0.28258703397E+02  0.18020911482E+02  0.36820893106E+02  0.00000000000E+00 0. -1.
         11    1    4    4    0    0 -0.98487345018E+01 -0.18153274253E+02  0.96682356715E+01  0.22803809301E+02  0.51100000000E-03 0. -1.
        -11    1    4    4    0    0 -0.63914627610E+00 -0.48271294877E+01 -0.26677909367E+01  0.55521883790E+01  0.51100000000E-03 0.  1.
        -12    1    4    4    0    0 -0.47591058344E+01 -0.52782996563E+01 -0.25021356217E+02  0.26011109214E+02  0.00000000000E+00 0.  1.
</event>
<event>
 8    1  0.2432279E-006  0.9118800E+02  0.7816164E-02  0.1184000E+00
        -11   -1    0    0    0    0  0.00000000000E+00  0.00000000000E+00  0.45593999997E+02  0.45594000000E+02  0.51100000000E-03 0. -1.
         11   -1    0    0    0    0 -0.00000000000E+00 -0.00000000000E+00 -0.45593999997E+02  0.45594000000E+02  0.51100000000E-03 0.  1.
         23    2    1    2    0    0  0.00000000000E+00 -0.35527136788E-14  0.00000000000E+00  0.91188000000E+02  0.91188000000E+02 0.  0.
    9900012    2    3    3    0    0 -0.17198566306E+02 -0.18640064730E+02 -0.26693332012E+02  0.54367127251E+02  0.40000098193E+02 0.  0.
         12    1    3    3    0    0  0.17198566306E+02  0.18640064730E+02  0.26693332012E+02  0.36820872749E+02  0.00000000000E+00 0. -1.
         11    1    4    4    0    0  0.99719952156E+01  0.36308254346E+01 -0.34778943830E+01  0.11167780958E+02  0.51100000000E-03 0.  1.
        -11    1    4    4    0    0 -0.87660884441E+01 -0.13351314389E+02 -0.97533078447E+01  0.18714403990E+02  0.51100000000E-03 0. -1.
        -12    1    4    4    0    0 -0.18404473077E+02 -0.89195757759E+01 -0.13462129784E+02  0.24484942303E+02  0.00000000000E+00 0.  1.
</event>
<event>
 8    1  0.2432279E-006  0.9118800E+02  0.7816164E-02  0.1184000E+00
        -11   -1    0    0    0    0  0.00000000000E+00  0.00000000000E+00  0.45593999997E+02  0.45594000000E+02  0.51100000000E-03 0. -1.
         11   -1    0    0    0    0 -0.00000000000E+00 -0.00000000000E+00 -0.45593999997E+02  0.45594000000E+02  0.51100000000E-03 0.  1.
         23    2    1    2    0    0  0.88817841970E-15 -0.17763568394E-14 -0.71054273576E-14  0.91188000000E+02  0.91188000000E+02 0.  0.
    9900012    2    3    3    0    0 -0.41725632684E+01  0.12511498516E+02  0.34377779560E+02  0.54367087371E+02  0.40000007281E+02 0.  0.
        -12    1    3    3    0    0  0.41725632684E+01 -0.12511498516E+02 -0.34377779560E+02  0.36820912629E+02  0.00000000000E+00 0.  1.
         11    1    4    4    0    0  0.75860160813E+01  0.18556445084E+02  0.35118408382E+02  0.40437506126E+02  0.51100000000E-03 0. -1.
        -11    1    4    4    0    0 -0.57830368504E+01 -0.63788862655E+00 -0.78416255725E+00  0.58707178684E+01  0.51100000000E-03 0.  1.
         12    1    4    4    0    0 -0.59755424994E+01 -0.54070579416E+01  0.43533735217E-01  0.80588633772E+01  0.00000000000E+00 0. -1.
</event>
<event>
 8    1  0.2432279E-006  0.9118800E+02  0.7816164E-02  0.1184000E+00
        -11   -1    0    0    0    0  0.00000000000E+00  0.00000000000E+00  0.45593999997E+02  0.45594000000E+02  0.51100000000E-03 0.  1.
         11   -1    0    0    0    0 -0.00000000000E+00 -0.00000000000E+00 -0.45593999997E+02  0.45594000000E+02  0.51100000000E-03 0. -1.
         23    2    1    2    0    0  0.00000000000E+00 -0.35527136788E-14  0.00000000000E+00  0.91188000000E+02  0.91188000000E+02 0.  0.
    9900012    2    3    3    0    0 -0.20336154633E+02 -0.29119950976E+02 -0.97082676531E+01  0.54367065860E+02  0.39999958241E+02 0.  0.
        -12    1    3    3    0    0  0.20336154633E+02  0.29119950976E+02  0.97082676531E+01  0.36820934140E+02  0.00000000000E+00 0.  1.
         11    1    4    4    0    0 -0.19274960169E+02 -0.24670942335E+02  0.19495170470E+01  0.31368457122E+02  0.51100000000E-03 0. -1.
        -11    1    4    4    0    0  0.11546261199E+01  0.32324295179E+01 -0.14200419067E+02  0.14609369048E+02  0.51100000000E-03 0.  1.
        -12    1    4    4    0    0 -0.22158205833E+01 -0.76814381593E+01  0.25426343665E+01  0.83892396899E+01  0.00000000000E+00 0.  1.
</event>
<event>
 8    1  0.2432279E-006  0.9118800E+02  0.7816164E-02  0.1184000E+00
        -11   -1    0    0    0    0  0.00000000000E+00  0.00000000000E+00  0.45593999997E+02  0.45594000000E+02  0.51100000000E-03 0.  1.
         11   -1    0    0    0    0 -0.00000000000E+00 -0.00000000000E+00 -0.45593999997E+02  0.45594000000E+02  0.51100000000E-03 0. -1.
         23    2    1    2    0    0  0.00000000000E+00 -0.66613381478E-15 -0.14210854715E-13  0.91188000000E+02  0.91188000000E+02 0.  0.
    9900012    2    3    3    0    0  0.17695943014E+02  0.84679461186E+00  0.32278732254E+02  0.54367081812E+02  0.39999994607E+02 0.  0.
         12    1    3    3    0    0 -0.17695943014E+02 -0.84679461186E+00 -0.32278732254E+02  0.36820918188E+02  0.00000000000E+00 0. -1.
         11    1    4    4    0    0 -0.36812486712E+01 -0.53009295421E+01  0.11157238473E+01  0.65495256129E+01  0.51100000000E-03 0. -1.
        -11    1    4    4    0    0  0.92735624759E+01 -0.61954244336E+01 -0.11082928537E+01  0.11207611620E+02  0.51100000000E-03 0.  1.
        -12    1    4    4    0    0  0.12103629209E+02  0.12343148588E+02  0.32271301260E+02  0.36609944580E+02  0.00000000000E+00 0.  1.
</event>
<event>
 8    1  0.2432279E-006  0.9118800E+02  0.7816164E-02  0.1184000E+00
        -11   -1    0    0    0    0  0.00000000000E+00  0.00000000000E+00  0.45593999997E+02  0.45594000000E+02  0.51100000000E-03 0. -1.
         11   -1    0    0    0    0 -0.00000000000E+00 -0.00000000000E+00 -0.45593999997E+02  0.45594000000E+02  0.51100000000E-03 0.  1.
         23    2    1    2    0    0  0.00000000000E+00  0.88817841970E-15 -0.71054273576E-14  0.91188000000E+02  0.91188000000E+02 0.  0.
    9900012    2    3    3    0    0  0.11313744020E+02  0.76590543691E+01 -0.34192357520E+02  0.54367092483E+02  0.40000018934E+02 0.  0.
         12    1    3    3    0    0 -0.11313744020E+02 -0.76590543691E+01  0.34192357520E+02  0.36820907517E+02  0.00000000000E+00 0. -1.
         11    1    4    4    0    0  0.38997463591E+00  0.70104996328E+01 -0.14695733519E+01  0.71734811226E+01  0.51100000000E-03 0. -1.
        -11    1    4    4    0    0  0.71751437271E+01 -0.29727553212E+01  0.49186090235E+01  0.91930776506E+01  0.51100000000E-03 0.  1.
        -12    1    4    4    0    0  0.37486256569E+01  0.36213100575E+01 -0.37641393192E+02  0.38000533710E+02  0.00000000000E+00 0.  1.
</event>
<event>
 8    1  0.2432279E-006  0.9118800E+02  0.7816164E-02  0.1184000E+00
        -11   -1    0    0    0    0  0.00000000000E+00  0.00000000000E+00  0.45593999997E+02  0.45594000000E+02  0.51100000000E-03 0.  1.
         11   -1    0    0    0    0 -0.00000000000E+00 -0.00000000000E+00 -0.45593999997E+02  0.45594000000E+02  0.51100000000E-03 0. -1.
         23    2    1    2    0    0 -0.35527136788E-14 -0.71054273576E-14 -0.10658141036E-13  0.91188000000E+02  0.91188000000E+02 0.  0.
    9900012    2    3    3    0    0  0.15996263349E+02  0.18230153755E+02  0.27704866853E+02  0.54367101119E+02  0.40000038621E+02 0.  0.
         12    1    3    3    0    0 -0.15996263349E+02 -0.18230153755E+02 -0.27704866853E+02  0.36820898881E+02  0.00000000000E+00 0. -1.
         11    1    4    4    0    0 -0.92163765602E+01 -0.26668033855E+01 -0.11373122518E+01  0.96616208069E+01  0.51100000000E-03 0. -1.
        -11    1    4    4    0    0  0.16682369244E+01 -0.31963617573E+00  0.42912600037E+01  0.46152025308E+01  0.51100000000E-03 0.  1.
        -12    1    4    4    0    0  0.23544402985E+02  0.21216593316E+02  0.24550919101E+02  0.40090277781E+02  0.00000000000E+00 0.  1.
</event>
<event>
 8    1  0.2432279E-006  0.9118800E+02  0.7816164E-02  0.1184000E+00
        -11   -1    0    0    0    0  0.00000000000E+00  0.00000000000E+00  0.45593999997E+02  0.45594000000E+02  0.51100000000E-03 0.  1.
         11   -1    0    0    0    0 -0.00000000000E+00 -0.00000000000E+00 -0.45593999997E+02  0.45594000000E+02  0.51100000000E-03 0. -1.
         23    2    1    2    0    0  0.00000000000E+00 -0.88817841970E-15  0.26645352591E-14  0.91188000000E+02  0.91188000000E+02 0.  0.
    9900012    2    3    3    0    0 -0.36276567886E+02  0.25900298951E+01  0.57516917781E+01  0.54367087589E+02  0.40000007777E+02 0.  0.
         12    1    3    3    0    0  0.36276567886E+02 -0.25900298951E+01 -0.57516917781E+01  0.36820912411E+02  0.00000000000E+00 0. -1.
         11    1    4    4    0    0 -0.28824899920E+01 -0.56644712073E+01 -0.46316388995E+01  0.78642902902E+01  0.51100000000E-03 0.  1.
        -11    1    4    4    0    0 -0.43120795086E+01  0.97365886671E+01 -0.68538755844E+01  0.12663759290E+02  0.51100000000E-03 0. -1.
        -12    1    4    4    0    0 -0.29081998386E+02 -0.14820875647E+01  0.17237206262E+02  0.33839038009E+02  0.00000000000E+00 0.  1.
</event>
<event>
 8    1  0.2432279E-006  0.9118800E+02  0.7816164E-02  0.1184000E+00
        -11   -1    0    0    0    0  0.00000000000E+00  0.00000000000E+00  0.45593999997E+02  0.45594000000E+02  0.51100000000E-03 0.  1.
         11   -1    0    0    0    0 -0.00000000000E+00 -0.00000000000E+00 -0.45593999997E+02  0.45594000000E+02  0.51100000000E-03 0. -1.
         23    2    1    2    0    0  0.17763568394E-14 -0.35527136788E-14 -0.35527136788E-14  0.91188000000E+02  0.91188000000E+02 0.  0.
    9900012    2    3    3    0    0 -0.14711448543E+02  0.27416789151E+02  0.19689405559E+02  0.54367085606E+02  0.40000003255E+02 0.  0.
         12    1    3    3    0    0  0.14711448543E+02 -0.27416789151E+02 -0.19689405559E+02  0.36820914394E+02  0.00000000000E+00 0. -1.
         11    1    4    4    0    0  0.54885413443E+01 -0.49547535467E+01 -0.61061093047E+00  0.74193338492E+01  0.51100000000E-03 0. -1.
        -11    1    4    4    0    0 -0.42440728240E+01  0.21816852574E+02  0.15871268580E+02  0.27310883855E+02  0.51100000000E-03 0.  1.
         12    1    4    4    0    0 -0.15955917063E+02  0.10554690124E+02  0.44287479097E+01  0.19636867901E+02  0.00000000000E+00 0. -1.
</event>
<event>
 8    1  0.2432279E-006  0.9118800E+02  0.7816164E-02  0.1184000E+00
        -11   -1    0    0    0    0  0.00000000000E+00  0.00000000000E+00  0.45593999997E+02  0.45594000000E+02  0.51100000000E-03 0. -1.
         11   -1    0    0    0    0 -0.00000000000E+00 -0.00000000000E+00 -0.45593999997E+02  0.45594000000E+02  0.51100000000E-03 0.  1.
         23    2    1    2    0    0  0.00000000000E+00 -0.17763568394E-14  0.00000000000E+00  0.91188000000E+02  0.91188000000E+02 0.  0.
    9900012    2    3    3    0    0 -0.11567384038E+02  0.13288956410E+02 -0.32332323921E+02  0.54367083307E+02  0.39999998015E+02 0.  0.
         12    1    3    3    0    0  0.11567384038E+02 -0.13288956410E+02  0.32332323921E+02  0.36820916693E+02  0.00000000000E+00 0. -1.
         11    1    4    4    0    0 -0.10925250403E+02  0.25264086770E+02 -0.28154555013E+02  0.39374028812E+02  0.51100000000E-03 0. -1.
        -11    1    4    4    0    0  0.82296921005E+00 -0.95401679122E+01 -0.62861315906E+01  0.11454585665E+02  0.51100000000E-03 0.  1.
         12    1    4    4    0    0 -0.14651028452E+01 -0.24349624469E+01  0.21083626819E+01  0.35384688303E+01  0.00000000000E+00 0. -1.
</event>
<event>
 8    1  0.2432279E-006  0.9118800E+02  0.7816164E-02  0.1184000E+00
        -11   -1    0    0    0    0  0.00000000000E+00  0.00000000000E+00  0.45593999997E+02  0.45594000000E+02  0.51100000000E-03 0. -1.
         11   -1    0    0    0    0 -0.00000000000E+00 -0.00000000000E+00 -0.45593999997E+02  0.45594000000E+02  0.51100000000E-03 0.  1.
         23    2    1    2    0    0  0.00000000000E+00  0.00000000000E+00  0.99920072216E-15  0.91188000000E+02  0.91188000000E+02 0.  0.
    9900012    2    3    3    0    0 -0.33586006119E+02  0.15065132500E+02  0.89493296250E+00  0.54367096572E+02  0.40000028255E+02 0.  0.
        -12    1    3    3    0    0  0.33586006119E+02 -0.15065132500E+02 -0.89493296250E+00  0.36820903428E+02  0.00000000000E+00 0.  1.
         11    1    4    4    0    0 -0.11357476107E+01  0.86503674824E+01  0.68659281647E+01  0.11102240767E+02  0.51100000000E-03 0. -1.
        -11    1    4    4    0    0 -0.27064613772E+02  0.78053386039E+01 -0.15559792232E+02  0.32179555061E+02  0.51100000000E-03 0.  1.
        -12    1    4    4    0    0 -0.53856447362E+01 -0.13905735860E+01  0.95887970296E+01  0.11085300745E+02  0.00000000000E+00 0.  1.
</event>
<event>
 8    1  0.2432279E-006  0.9118800E+02  0.7816164E-02  0.1184000E+00
        -11   -1    0    0    0    0  0.00000000000E+00  0.00000000000E+00  0.45593999997E+02  0.45594000000E+02  0.51100000000E-03 0.  1.
         11   -1    0    0    0    0 -0.00000000000E+00 -0.00000000000E+00 -0.45593999997E+02  0.45594000000E+02  0.51100000000E-03 0. -1.
         23    2    1    2    0    0 -0.13322676296E-14  0.22204460493E-15 -0.71054273576E-14  0.91188000000E+02  0.91188000000E+02 0.  0.
    9900012    2    3    3    0    0  0.26151954204E+01  0.16774407995E+01 -0.36689596474E+02  0.54367088222E+02  0.40000009220E+02 0.  0.
        -12    1    3    3    0    0 -0.26151954204E+01 -0.16774407995E+01  0.36689596474E+02  0.36820911778E+02  0.00000000000E+00 0.  1.
         11    1    4    4    0    0 -0.12618008410E+02 -0.44121362765E+01 -0.37477805467E+01  0.13882612940E+02  0.51100000000E-03 0. -1.
        -11    1    4    4    0    0  0.15502235014E+02 -0.80860455533E+00 -0.16511596345E+02  0.22662875940E+02  0.51100000000E-03 0.  1.
         12    1    4    4    0    0 -0.26903118362E+00  0.68981816314E+01 -0.16430219583E+02  0.17821599343E+02  0.00000000000E+00 0. -1.
</event>
<event>
 8    1  0.2432279E-006  0.9118800E+02  0.7816164E-02  0.1184000E+00
        -11   -1    0    0    0    0  0.00000000000E+00  0.00000000000E+00  0.45593999997E+02  0.45594000000E+02  0.51100000000E-03 0. -1.
         11   -1    0    0    0    0 -0.00000000000E+00 -0.00000000000E+00 -0.45593999997E+02  0.45594000000E+02  0.51100000000E-03 0.  1.
         23    2    1    2    0    0  0.88817841970E-15  0.00000000000E+00  0.00000000000E+00  0.91188000000E+02  0.91188000000E+02 0.  0.
    9900012    2    3    3    0    0 -0.51316825532E+01 -0.35447498596E+02  0.85393163541E+01  0.54367092266E+02  0.40000018439E+02 0.  0.
        -12    1    3    3    0    0  0.51316825532E+01  0.35447498596E+02 -0.85393163541E+01  0.36820907734E+02  0.00000000000E+00 0.  1.
         11    1    4    4    0    0 -0.88137340568E+01 -0.23691459114E+02  0.13266705431E+02  0.28547725237E+02  0.51100000000E-03 0. -1.
        -11    1    4    4    0    0 -0.34562957345E+01  0.43845063530E+01  0.32407023483E+01  0.64553875279E+01  0.51100000000E-03 0.  1.
        -12    1    4    4    0    0  0.71383472381E+01 -0.16140545835E+02 -0.79680914249E+01  0.19363979501E+02  0.00000000000E+00 0.  1.
</event>
<event>
 8    1  0.2432279E-006  0.9118800E+02  0.7816164E-02  0.1184000E+00
        -11   -1    0    0    0    0  0.00000000000E+00  0.00000000000E+00  0.45593999997E+02  0.45594000000E+02  0.51100000000E-03 0. -1.
         11   -1    0    0    0    0 -0.00000000000E+00 -0.00000000000E+00 -0.45593999997E+02  0.45594000000E+02  0.51100000000E-03 0.  1.
         23    2    1    2    0    0  0.35527136788E-14 -0.17763568394E-14  0.35527136788E-14  0.91188000000E+02  0.91188000000E+02 0.  0.
    9900012    2    3    3    0    0 -0.20080519439E+02  0.15911675468E+02  0.26445636280E+02  0.54367077206E+02  0.39999984106E+02 0.  0.
        -12    1    3    3    0    0  0.20080519439E+02 -0.15911675468E+02 -0.26445636280E+02  0.36820922794E+02  0.00000000000E+00 0.  1.
         11    1    4    4    0    0 -0.28951489356E+01  0.89291474612E+01  0.18511755169E+02  0.20755641196E+02  0.51100000000E-03 0. -1.
        -11    1    4    4    0    0 -0.17103903241E+02  0.15874602695E+02  0.81459708854E+01  0.24716459268E+02  0.51100000000E-03 0.  1.
         12    1    4    4    0    0 -0.81467262505E-01 -0.88920746883E+01 -0.21208977427E+00  0.88949767425E+01  0.00000000000E+00 0. -1.
</event>
<event>
 8    1  0.2432279E-006  0.9118800E+02  0.7816164E-02  0.1184000E+00
        -11   -1    0    0    0    0  0.00000000000E+00  0.00000000000E+00  0.45593999997E+02  0.45594000000E+02  0.51100000000E-03 0. -1.
         11   -1    0    0    0    0 -0.00000000000E+00 -0.00000000000E+00 -0.45593999997E+02  0.45594000000E+02  0.51100000000E-03 0.  1.
         23    2    1    2    0    0 -0.35527136788E-14 -0.35527136788E-14 -0.17763568394E-14  0.91188000000E+02  0.91188000000E+02 0.  0.
    9900012    2    3    3    0    0  0.29553776053E+02  0.15760859349E+02  0.15295345211E+02  0.54367109849E+02  0.40000058522E+02 0.  0.
        -12    1    3    3    0    0 -0.29553776053E+02 -0.15760859349E+02 -0.15295345211E+02  0.36820890151E+02  0.00000000000E+00 0.  1.
         11    1    4    4    0    0  0.12224227611E+02  0.83152389545E+01  0.11442528449E+02  0.18695090188E+02  0.51100000000E-03 0. -1.
        -11    1    4    4    0    0  0.14045310783E+02  0.31019140554E+01 -0.12111967215E+02  0.18804052113E+02  0.51100000000E-03 0.  1.
        -12    1    4    4    0    0  0.32842376584E+01  0.43437063395E+01  0.15964783977E+02  0.16867967548E+02  0.00000000000E+00 0.  1.
</event>
<event>
 8    1  0.2432279E-006  0.9118800E+02  0.7816164E-02  0.1184000E+00
        -11   -1    0    0    0    0  0.00000000000E+00  0.00000000000E+00  0.45593999997E+02  0.45594000000E+02  0.51100000000E-03 0.  1.
         11   -1    0    0    0    0 -0.00000000000E+00 -0.00000000000E+00 -0.45593999997E+02  0.45594000000E+02  0.51100000000E-03 0. -1.
         23    2    1    2    0    0  0.17763568394E-14  0.00000000000E+00  0.00000000000E+00  0.91188000000E+02  0.91188000000E+02 0.  0.
    9900012    2    3    3    0    0 -0.98215533636E+01 -0.31475916976E+02 -0.16388379712E+02  0.54367146540E+02  0.40000142166E+02 0.  0.
        -12    1    3    3    0    0  0.98215533636E+01  0.31475916976E+02  0.16388379712E+02  0.36820853460E+02  0.00000000000E+00 0.  1.
         11    1    4    4    0    0  0.11652136759E+01 -0.13057996864E+02 -0.49001932836E+01  0.13995745764E+02  0.51100000000E-03 0. -1.
        -11    1    4    4    0    0  0.14079731665E+01 -0.24598907020E+02 -0.53066606657E+01  0.25204151695E+02  0.51100000000E-03 0.  1.
        -12    1    4    4    0    0 -0.12394740206E+02  0.61809869072E+01 -0.61815257630E+01  0.15167249081E+02  0.00000000000E+00 0.  1.
</event>
<event>
 8    1  0.2432279E-006  0.9118800E+02  0.7816164E-02  0.1184000E+00
        -11   -1    0    0    0    0  0.00000000000E+00  0.00000000000E+00  0.45593999997E+02  0.45594000000E+02  0.51100000000E-03 0. -1.
         11   -1    0    0    0    0 -0.00000000000E+00 -0.00000000000E+00 -0.45593999997E+02  0.45594000000E+02  0.51100000000E-03 0.  1.
         23    2    1    2    0    0  0.35527136788E-14  0.35527136788E-14  0.00000000000E+00  0.91188000000E+02  0.91188000000E+02 0.  0.
    9900012    2    3    3    0    0 -0.24405074169E+02 -0.20028347621E+02  0.18948402094E+02  0.54367023702E+02  0.39999862133E+02 0.  0.
        -12    1    3    3    0    0  0.24405074169E+02  0.20028347621E+02 -0.18948402094E+02  0.36820976298E+02  0.00000000000E+00 0.  1.
         11    1    4    4    0    0 -0.12312542677E+02 -0.20431786723E+02  0.11394036263E+02  0.26436351460E+02  0.51100000000E-03 0. -1.
        -11    1    4    4    0    0  0.35832116659E+01 -0.11790570046E+01  0.11149449545E+02  0.11770293399E+02  0.51100000000E-03 0.  1.
         12    1    4    4    0    0 -0.15675743157E+02  0.15824961067E+01 -0.35950837137E+01  0.16160378844E+02  0.00000000000E+00 0. -1.
</event>
<event>
 8    1  0.2432279E-006  0.9118800E+02  0.7816164E-02  0.1184000E+00
        -11   -1    0    0    0    0  0.00000000000E+00  0.00000000000E+00  0.45593999997E+02  0.45594000000E+02  0.51100000000E-03 0.  1.
         11   -1    0    0    0    0 -0.00000000000E+00 -0.00000000000E+00 -0.45593999997E+02  0.45594000000E+02  0.51100000000E-03 0. -1.
         23    2    1    2    0    0  0.00000000000E+00 -0.17763568394E-14  0.35527136788E-14  0.91188000000E+02  0.91188000000E+02 0.  0.
    9900012    2    3    3    0    0  0.20431562728E+02  0.80333496643E+01  0.29560039716E+02  0.54367090040E+02  0.40000013363E+02 0.  0.
         12    1    3    3    0    0 -0.20431562728E+02 -0.80333496643E+01 -0.29560039716E+02  0.36820909960E+02  0.00000000000E+00 0. -1.
         11    1    4    4    0    0 -0.18997852072E+01 -0.18396089760E+01  0.13833207791E+01  0.29844466250E+01  0.51100000000E-03 0. -1.
        -11    1    4    4    0    0 -0.60571273591E+01 -0.73160748220E+01  0.88285715334E+01  0.12967552515E+02  0.51100000000E-03 0.  1.
         12    1    4    4    0    0  0.28388475294E+02  0.17189033462E+02  0.19348147403E+02  0.38415090900E+02  0.00000000000E+00 0. -1.
</event>
<event>
 8    1  0.2432279E-006  0.9118800E+02  0.7816164E-02  0.1184000E+00
        -11   -1    0    0    0    0  0.00000000000E+00  0.00000000000E+00  0.45593999997E+02  0.45594000000E+02  0.51100000000E-03 0. -1.
         11   -1    0    0    0    0 -0.00000000000E+00 -0.00000000000E+00 -0.45593999997E+02  0.45594000000E+02  0.51100000000E-03 0.  1.
         23    2    1    2    0    0  0.88817841970E-15 -0.88817841970E-15  0.71054273576E-14  0.91188000000E+02  0.91188000000E+02 0.  0.
    9900012    2    3    3    0    0 -0.60424745509E+01  0.48913547060E+01 -0.35990872676E+02  0.54367085216E+02  0.40000002367E+02 0.  0.
         12    1    3    3    0    0  0.60424745509E+01 -0.48913547060E+01  0.35990872676E+02  0.36820914784E+02  0.00000000000E+00 0. -1.
         11    1    4    4    0    0  0.21255438359E+00  0.79717834765E+01  0.54472548614E+01  0.96574891637E+01  0.51100000000E-03 0. -1.
        -11    1    4    4    0    0 -0.10224194435E+02 -0.14814624203E+01 -0.37489826342E+02  0.38887221065E+02  0.51100000000E-03 0.  1.
        -12    1    4    4    0    0  0.39691655009E+01 -0.15989663502E+01 -0.39483011954E+01  0.58223749873E+01  0.00000000000E+00 0.  1.
</event>
<event>
 8    1  0.2432279E-006  0.9118800E+02  0.7816164E-02  0.1184000E+00
        -11   -1    0    0    0    0  0.00000000000E+00  0.00000000000E+00  0.45593999997E+02  0.45594000000E+02  0.51100000000E-03 0.  1.
         11   -1    0    0    0    0 -0.00000000000E+00 -0.00000000000E+00 -0.45593999997E+02  0.45594000000E+02  0.51100000000E-03 0. -1.
         23    2    1    2    0    0  0.00000000000E+00  0.00000000000E+00  0.35527136788E-14  0.91188000000E+02  0.91188000000E+02 0.  0.
    9900012    2    3    3    0    0 -0.23687594483E+02 -0.17813756053E+02 -0.21848298331E+02  0.54367079627E+02  0.39999989627E+02 0.  0.
        -12    1    3    3    0    0  0.23687594483E+02  0.17813756053E+02  0.21848298331E+02  0.36820920373E+02  0.00000000000E+00 0.  1.
         11    1    4    4    0    0 -0.12198456999E+02  0.53358847510E+00 -0.13564961964E+02  0.18250897599E+02  0.51100000000E-03 0. -1.
        -11    1    4    4    0    0  0.60745447492E+01 -0.37066711231E+01 -0.10988207541E+02  0.13091226450E+02  0.51100000000E-03 0.  1.
        -12    1    4    4    0    0 -0.17563682233E+02 -0.14640673405E+02  0.27048711742E+01  0.23024955579E+02  0.00000000000E+00 0.  1.
</event>
<event>
 8    1  0.2432279E-006  0.9118800E+02  0.7816164E-02  0.1184000E+00
        -11   -1    0    0    0    0  0.00000000000E+00  0.00000000000E+00  0.45593999997E+02  0.45594000000E+02  0.51100000000E-03 0.  1.
         11   -1    0    0    0    0 -0.00000000000E+00 -0.00000000000E+00 -0.45593999997E+02  0.45594000000E+02  0.51100000000E-03 0. -1.
         23    2    1    2    0    0  0.00000000000E+00  0.35527136788E-14  0.00000000000E+00  0.91188000000E+02  0.91188000000E+02 0.  0.
    9900012    2    3    3    0    0 -0.23393595131E+02 -0.16683597855E+02 -0.23025634766E+02  0.54367046904E+02  0.39999915027E+02 0.  0.
        -12    1    3    3    0    0  0.23393595131E+02  0.16683597855E+02  0.23025634766E+02  0.36820953096E+02  0.00000000000E+00 0.  1.
         11    1    4    4    0    0 -0.10662089096E+02 -0.21462408293E+02 -0.15404175051E+02  0.28488659548E+02  0.51100000000E-03 0. -1.
        -11    1    4    4    0    0  0.33456685851E+01  0.49451127728E+01 -0.77708220492E+01  0.97996588817E+01  0.51100000000E-03 0.  1.
         12    1    4    4    0    0 -0.16077174620E+02 -0.16630233516E+00  0.14936233347E+00  0.16078728474E+02  0.00000000000E+00 0. -1.
</event>
<event>
 8    1  0.2432279E-006  0.9118800E+02  0.7816164E-02  0.1184000E+00
        -11   -1    0    0    0    0  0.00000000000E+00  0.00000000000E+00  0.45593999997E+02  0.45594000000E+02  0.51100000000E-03 0.  1.
         11   -1    0    0    0    0 -0.00000000000E+00 -0.00000000000E+00 -0.45593999997E+02  0.45594000000E+02  0.51100000000E-03 0. -1.
         23    2    1    2    0    0  0.00000000000E+00 -0.35527136788E-14 -0.44408920985E-15  0.91188000000E+02  0.91188000000E+02 0.  0.
    9900012    2    3    3    0    0 -0.32167155541E+02 -0.17808952927E+02 -0.19735016724E+01  0.54367090060E+02  0.40000013409E+02 0.  0.
        -12    1    3    3    0    0  0.32167155541E+02  0.17808952927E+02  0.19735016724E+01  0.36820909940E+02  0.00000000000E+00 0.  1.
         11    1    4    4    0    0 -0.22097203805E+02  0.33009055449E+01 -0.13542217160E+02  0.26126117953E+02  0.51100000000E-03 0. -1.
        -11    1    4    4    0    0  0.57058911021E+00 -0.10875314612E+02  0.61995791474E+01  0.12531273747E+02  0.51100000000E-03 0.  1.
         12    1    4    4    0    0 -0.10640540847E+02 -0.10234543860E+02  0.53691363402E+01  0.15709698360E+02  0.00000000000E+00 0. -1.
</event>
<event>
 8    1  0.2432279E-006  0.9118800E+02  0.7816164E-02  0.1184000E+00
        -11   -1    0    0    0    0  0.00000000000E+00  0.00000000000E+00  0.45593999997E+02  0.45594000000E+02  0.51100000000E-03 0. -1.
         11   -1    0    0    0    0 -0.00000000000E+00 -0.00000000000E+00 -0.45593999997E+02  0.45594000000E+02  0.51100000000E-03 0.  1.
         23    2    1    2    0    0  0.00000000000E+00  0.00000000000E+00 -0.35527136788E-14  0.91188000000E+02  0.91188000000E+02 0.  0.
    9900012    2    3    3    0    0  0.19598865809E+02 -0.17422668579E+02  0.25847925794E+02  0.54367079462E+02  0.39999989250E+02 0.  0.
        -12    1    3    3    0    0 -0.19598865809E+02  0.17422668579E+02 -0.25847925794E+02  0.36820920538E+02  0.00000000000E+00 0.  1.
         11    1    4    4    0    0  0.17133145718E+02 -0.44503830705E+01  0.30123322459E+02  0.34939449737E+02  0.51100000000E-03 0. -1.
        -11    1    4    4    0    0  0.32935434056E+01 -0.12190972413E+02 -0.83882598704E+01  0.15160149750E+02  0.51100000000E-03 0.  1.
        -12    1    4    4    0    0 -0.82782331520E+00 -0.78131309590E+00  0.41128632055E+01  0.42674799756E+01  0.00000000000E+00 0.  1.
</event>
<event>
 8    1  0.2432279E-006  0.9118800E+02  0.7816164E-02  0.1184000E+00
        -11   -1    0    0    0    0  0.00000000000E+00  0.00000000000E+00  0.45593999997E+02  0.45594000000E+02  0.51100000000E-03 0.  1.
         11   -1    0    0    0    0 -0.00000000000E+00 -0.00000000000E+00 -0.45593999997E+02  0.45594000000E+02  0.51100000000E-03 0. -1.
         23    2    1    2    0    0  0.00000000000E+00  0.00000000000E+00  0.00000000000E+00  0.91188000000E+02  0.91188000000E+02 0.  0.
    9900012    2    3    3    0    0  0.16024559535E+02  0.45783447647E+01 -0.32833445966E+02  0.54367042339E+02  0.39999904620E+02 0.  0.
        -12    1    3    3    0    0 -0.16024559535E+02 -0.45783447647E+01  0.32833445966E+02  0.36820957661E+02  0.00000000000E+00 0.  1.
         11    1    4    4    0    0  0.85957004569E+01 -0.37429832542E+01 -0.11181973459E+02  0.14592207533E+02  0.51100000000E-03 0. -1.
        -11    1    4    4    0    0  0.43093631513E+01 -0.13270744510E+01  0.75881916646E+01  0.88267995541E+01  0.51100000000E-03 0.  1.
        -12    1    4    4    0    0  0.31194959263E+01  0.96484024699E+01 -0.29239664172E+02  0.30948035252E+02  0.00000000000E+00 0.  1.
</event>
<event>
 8    1  0.2432279E-006  0.9118800E+02  0.7816164E-02  0.1184000E+00
        -11   -1    0    0    0    0  0.00000000000E+00  0.00000000000E+00  0.45593999997E+02  0.45594000000E+02  0.51100000000E-03 0.  1.
         11   -1    0    0    0    0 -0.00000000000E+00 -0.00000000000E+00 -0.45593999997E+02  0.45594000000E+02  0.51100000000E-03 0. -1.
         23    2    1    2    0    0  0.00000000000E+00  0.35527136788E-14  0.71054273576E-14  0.91188000000E+02  0.91188000000E+02 0.  0.
    9900012    2    3    3    0    0  0.17155052318E+02 -0.22912222627E+02 -0.23162787924E+02  0.54367075105E+02  0.39999979317E+02 0.  0.
        -12    1    3    3    0    0 -0.17155052318E+02  0.22912222627E+02  0.23162787924E+02  0.36820924895E+02  0.00000000000E+00 0.  1.
         11    1    4    4    0    0  0.72807148523E+01 -0.12116951412E+02 -0.32558970737E+02  0.35495293998E+02  0.51100000000E-03 0. -1.
        -11    1    4    4    0    0  0.97865435576E+01 -0.96386031569E+01  0.10485289173E+02  0.17280636415E+02  0.51100000000E-03 0.  1.
        -12    1    4    4    0    0  0.87793907846E-01 -0.11566680582E+01 -0.10891063596E+01  0.15911446916E+01  0.00000000000E+00 0.  1.
</event>
<event>
 8    1  0.2432279E-006  0.9118800E+02  0.7816164E-02  0.1184000E+00
        -11   -1    0    0    0    0  0.00000000000E+00  0.00000000000E+00  0.45593999997E+02  0.45594000000E+02  0.51100000000E-03 0.  1.
         11   -1    0    0    0    0 -0.00000000000E+00 -0.00000000000E+00 -0.45593999997E+02  0.45594000000E+02  0.51100000000E-03 0. -1.
         23    2    1    2    0    0  0.17763568394E-14  0.00000000000E+00 -0.71054273576E-14  0.91188000000E+02  0.91188000000E+02 0.  0.
    9900012    2    3    3    0    0  0.97122093928E+01  0.12332044442E+02 -0.33307246964E+02  0.54367095181E+02  0.40000025084E+02 0.  0.
        -12    1    3    3    0    0 -0.97122093928E+01 -0.12332044442E+02  0.33307246964E+02  0.36820904819E+02  0.00000000000E+00 0.  1.
         11    1    4    4    0    0  0.14973604925E+02 -0.76119948231E+01 -0.11795038336E+02  0.20524966242E+02  0.51100000000E-03 0. -1.
        -11    1    4    4    0    0  0.56427778133E+01  0.66939967238E+01 -0.93506860355E+01  0.12809600430E+02  0.51100000000E-03 0.  1.
        -12    1    4    4    0    0 -0.10904173346E+02  0.13250042541E+02 -0.12161522592E+02  0.21032528508E+02  0.00000000000E+00 0.  1.
</event>
<event>
 8    1  0.2432279E-006  0.9118800E+02  0.7816164E-02  0.1184000E+00
        -11   -1    0    0    0    0  0.00000000000E+00  0.00000000000E+00  0.45593999997E+02  0.45594000000E+02  0.51100000000E-03 0.  1.
         11   -1    0    0    0    0 -0.00000000000E+00 -0.00000000000E+00 -0.45593999997E+02  0.45594000000E+02  0.51100000000E-03 0. -1.
         23    2    1    2    0    0  0.44408920985E-15  0.22204460493E-14  0.00000000000E+00  0.91188000000E+02  0.91188000000E+02 0.  0.
    9900012    2    3    3    0    0 -0.21077150130E+01  0.38070371304E+01  0.36562820281E+02  0.54367138777E+02  0.40000124470E+02 0.  0.
         12    1    3    3    0    0  0.21077150130E+01 -0.38070371304E+01 -0.36562820281E+02  0.36820861223E+02  0.00000000000E+00 0. -1.
         11    1    4    4    0    0 -0.94641159838E+01  0.18602964191E+02  0.16931889340E+02  0.26876172438E+02  0.51100000000E-03 0. -1.
        -11    1    4    4    0    0  0.56042319770E+01 -0.15137644772E+01  0.67952445200E+01  0.89372393552E+01  0.51100000000E-03 0.  1.
        -12    1    4    4    0    0  0.17521689937E+01 -0.13282162584E+02  0.12835686421E+02  0.18553726983E+02  0.00000000000E+00 0.  1.
</event>
<event>
 8    1  0.2432279E-006  0.9118800E+02  0.7816164E-02  0.1184000E+00
        -11   -1    0    0    0    0  0.00000000000E+00  0.00000000000E+00  0.45593999997E+02  0.45594000000E+02  0.51100000000E-03 0.  1.
         11   -1    0    0    0    0 -0.00000000000E+00 -0.00000000000E+00 -0.45593999997E+02  0.45594000000E+02  0.51100000000E-03 0. -1.
         23    2    1    2    0    0 -0.71054273576E-14 -0.17763568394E-14 -0.17763568394E-14  0.91188000000E+02  0.91188000000E+02 0.  0.
    9900012    2    3    3    0    0  0.32343320736E+02  0.14703201589E+02  0.96698993959E+01  0.54367061832E+02  0.39999949059E+02 0.  0.
        -12    1    3    3    0    0 -0.32343320736E+02 -0.14703201589E+02 -0.96698993959E+01  0.36820938168E+02  0.00000000000E+00 0.  1.
         11    1    4    4    0    0 -0.10886473351E+00  0.52891876495E+01 -0.43881960135E+01  0.68733995982E+01  0.51100000000E-03 0. -1.
        -11    1    4    4    0    0  0.10203399087E+02 -0.80665243962E+01  0.14121883328E+02  0.19199108254E+02  0.51100000000E-03 0.  1.
         12    1    4    4    0    0  0.22248786383E+02  0.17480538336E+02 -0.63787918672E-01  0.28294553980E+02  0.00000000000E+00 0. -1.
</event>
<event>
 8    1  0.2432279E-006  0.9118800E+02  0.7816164E-02  0.1184000E+00
        -11   -1    0    0    0    0  0.00000000000E+00  0.00000000000E+00  0.45593999997E+02  0.45594000000E+02  0.51100000000E-03 0.  1.
         11   -1    0    0    0    0 -0.00000000000E+00 -0.00000000000E+00 -0.45593999997E+02  0.45594000000E+02  0.51100000000E-03 0. -1.
         23    2    1    2    0    0  0.71054273576E-14 -0.44408920985E-15 -0.35527136788E-14  0.91188000000E+02  0.91188000000E+02 0.  0.
    9900012    2    3    3    0    0  0.34953140619E+02 -0.32426027500E+01 -0.11114965744E+02  0.54367095948E+02  0.40000026834E+02 0.  0.
        -12    1    3    3    0    0 -0.34953140619E+02  0.32426027500E+01  0.11114965744E+02  0.36820904052E+02  0.00000000000E+00 0.  1.
         11    1    4    4    0    0  0.79010184746E+01 -0.96491305832E+00 -0.14963076726E+02  0.16948475315E+02  0.51100000000E-03 0. -1.
        -11    1    4    4    0    0  0.31742927454E+02  0.11693256158E+00  0.46812176744E+01  0.32086460006E+02  0.51100000000E-03 0.  1.
        -12    1    4    4    0    0 -0.46908053099E+01 -0.23946222532E+01 -0.83310669239E+00  0.53321606270E+01  0.00000000000E+00 0.  1.
</event>
<event>
 8    1  0.2432279E-006  0.9118800E+02  0.7816164E-02  0.1184000E+00
        -11   -1    0    0    0    0  0.00000000000E+00  0.00000000000E+00  0.45593999997E+02  0.45594000000E+02  0.51100000000E-03 0.  1.
         11   -1    0    0    0    0 -0.00000000000E+00 -0.00000000000E+00 -0.45593999997E+02  0.45594000000E+02  0.51100000000E-03 0. -1.
         23    2    1    2    0    0 -0.35527136788E-14  0.00000000000E+00 -0.44408920985E-15  0.91188000000E+02  0.91188000000E+02 0.  0.
    9900012    2    3    3    0    0 -0.30511121455E+02 -0.20289556510E+02  0.36315474919E+01  0.54367044377E+02  0.39999909265E+02 0.  0.
         12    1    3    3    0    0  0.30511121455E+02  0.20289556510E+02 -0.36315474919E+01  0.36820955623E+02  0.00000000000E+00 0. -1.
         11    1    4    4    0    0 -0.15478198898E+02  0.25322400385E+01  0.73817519580E+01  0.17334276534E+02  0.51100000000E-03 0. -1.
        -11    1    4    4    0    0 -0.19670075840E+02 -0.20834348535E+02  0.27725247157E+01  0.28786608970E+02  0.51100000000E-03 0.  1.
         12    1    4    4    0    0  0.46371532824E+01 -0.19874480135E+01 -0.65227291818E+01  0.82461588724E+01  0.00000000000E+00 0. -1.
</event>
<event>
 8    1  0.2432279E-006  0.9118800E+02  0.7816164E-02  0.1184000E+00
        -11   -1    0    0    0    0  0.00000000000E+00  0.00000000000E+00  0.45593999997E+02  0.45594000000E+02  0.51100000000E-03 0. -1.
         11   -1    0    0    0    0 -0.00000000000E+00 -0.00000000000E+00 -0.45593999997E+02  0.45594000000E+02  0.51100000000E-03 0.  1.
         23    2    1    2    0    0  0.00000000000E+00 -0.35527136788E-14 -0.35527136788E-14  0.91188000000E+02  0.91188000000E+02 0.  0.
    9900012    2    3    3    0    0 -0.20208486209E+02 -0.16803222509E+02 -0.25788555431E+02  0.54367071267E+02  0.39999970567E+02 0.  0.
         12    1    3    3    0    0  0.20208486209E+02  0.16803222509E+02  0.25788555431E+02  0.36820928733E+02  0.00000000000E+00 0. -1.
         11    1    4    4    0    0 -0.41625652216E+01 -0.11441317876E+02 -0.17227283074E+02  0.21095259807E+02  0.51100000000E-03 0. -1.
        -11    1    4    4    0    0 -0.16421978628E+02 -0.26290411111E+00 -0.16851757227E+02  0.23531515517E+02  0.51100000000E-03 0.  1.
         12    1    4    4    0    0  0.37605764069E+00 -0.50990005225E+01  0.82904848695E+01  0.97402959425E+01  0.00000000000E+00 0. -1.
</event>
<event>
 8    1  0.2432279E-006  0.9118800E+02  0.7816164E-02  0.1184000E+00
        -11   -1    0    0    0    0  0.00000000000E+00  0.00000000000E+00  0.45593999997E+02  0.45594000000E+02  0.51100000000E-03 0.  1.
         11   -1    0    0    0    0 -0.00000000000E+00 -0.00000000000E+00 -0.45593999997E+02  0.45594000000E+02  0.51100000000E-03 0. -1.
         23    2    1    2    0    0  0.00000000000E+00  0.00000000000E+00  0.44408920985E-15  0.91188000000E+02  0.91188000000E+02 0.  0.
    9900012    2    3    3    0    0  0.34198298631E+02 -0.13167426485E+02 -0.35881524167E+01  0.54367087636E+02  0.40000007885E+02 0.  0.
        -12    1    3    3    0    0 -0.34198298631E+02  0.13167426485E+02  0.35881524167E+01  0.36820912364E+02  0.00000000000E+00 0.  1.
         11    1    4    4    0    0  0.55498054197E+01  0.29168453015E+01 -0.14721779904E+01  0.64401579954E+01  0.51100000000E-03 0. -1.
        -11    1    4    4    0    0 -0.76471329595E+01 -0.71302486931E+01  0.35474074372E+00  0.10461593100E+02  0.51100000000E-03 0.  1.
        -12    1    4    4    0    0  0.36295626171E+02 -0.89540230936E+01 -0.24707151700E+01  0.37465336541E+02  0.00000000000E+00 0.  1.
</event>
<event>
 8    1  0.2432279E-006  0.9118800E+02  0.7816164E-02  0.1184000E+00
        -11   -1    0    0    0    0  0.00000000000E+00  0.00000000000E+00  0.45593999997E+02  0.45594000000E+02  0.51100000000E-03 0. -1.
         11   -1    0    0    0    0 -0.00000000000E+00 -0.00000000000E+00 -0.45593999997E+02  0.45594000000E+02  0.51100000000E-03 0.  1.
         23    2    1    2    0    0  0.00000000000E+00  0.00000000000E+00 -0.17763568394E-14  0.91188000000E+02  0.91188000000E+02 0.  0.
    9900012    2    3    3    0    0 -0.51003261834E+01  0.35903286708E+02 -0.63812876231E+01  0.54367079923E+02  0.39999990300E+02 0.  0.
         12    1    3    3    0    0  0.51003261834E+01 -0.35903286708E+02  0.63812876231E+01  0.36820920077E+02  0.00000000000E+00 0. -1.
         11    1    4    4    0    0 -0.72420166431E+01  0.54528844335E+01  0.98626019166E+01  0.13395957246E+02  0.51100000000E-03 0. -1.
        -11    1    4    4    0    0 -0.22051133807E+01  0.64319265378E+01 -0.15071572223E+02  0.16534342852E+02  0.51100000000E-03 0.  1.
        -12    1    4    4    0    0  0.43468038403E+01  0.24018475737E+02 -0.11723173167E+01  0.24436779825E+02  0.00000000000E+00 0.  1.
</event>
<event>
 8    1  0.2432279E-006  0.9118800E+02  0.7816164E-02  0.1184000E+00
        -11   -1    0    0    0    0  0.00000000000E+00  0.00000000000E+00  0.45593999997E+02  0.45594000000E+02  0.51100000000E-03 0.  1.
         11   -1    0    0    0    0 -0.00000000000E+00 -0.00000000000E+00 -0.45593999997E+02  0.45594000000E+02  0.51100000000E-03 0. -1.
         23    2    1    2    0    0  0.00000000000E+00  0.00000000000E+00  0.00000000000E+00  0.91188000000E+02  0.91188000000E+02 0.  0.
    9900012    2    3    3    0    0  0.11622708799E+01 -0.32071622542E+02 -0.18050969261E+02  0.54367118189E+02  0.40000077535E+02 0.  0.
        -12    1    3    3    0    0 -0.11622708799E+01  0.32071622542E+02  0.18050969261E+02  0.36820881811E+02  0.00000000000E+00 0.  1.
         11    1    4    4    0    0 -0.27534078110E+01 -0.24727085266E+02 -0.19244669640E+02  0.31454209737E+02  0.51100000000E-03 0. -1.
        -11    1    4    4    0    0  0.59118079062E+01 -0.75279143098E+01  0.10022791664E+02  0.13859124055E+02  0.51100000000E-03 0.  1.
         12    1    4    4    0    0 -0.19961292153E+01  0.18337703364E+00 -0.88290912852E+01  0.90537843968E+01  0.00000000000E+00 0. -1.
</event>
<event>
 8    1  0.2432279E-006  0.9118800E+02  0.7816164E-02  0.1184000E+00
        -11   -1    0    0    0    0  0.00000000000E+00  0.00000000000E+00  0.45593999997E+02  0.45594000000E+02  0.51100000000E-03 0. -1.
         11   -1    0    0    0    0 -0.00000000000E+00 -0.00000000000E+00 -0.45593999997E+02  0.45594000000E+02  0.51100000000E-03 0.  1.
         23    2    1    2    0    0 -0.17763568394E-14 -0.35527136788E-14  0.00000000000E+00  0.91188000000E+02  0.91188000000E+02 0.  0.
    9900012    2    3    3    0    0  0.86006542863E+01 -0.22067938964E+02  0.28192459832E+02  0.54367082363E+02  0.39999995862E+02 0.  0.
        -12    1    3    3    0    0 -0.86006542863E+01  0.22067938964E+02 -0.28192459832E+02  0.36820917637E+02  0.00000000000E+00 0.  1.
         11    1    4    4    0    0  0.69427641588E+01 -0.77223908615E+01  0.73538004825E+01  0.12724609093E+02  0.51100000000E-03 0. -1.
        -11    1    4    4    0    0  0.55515228904E+01 -0.22399456913E+02  0.22847434274E+02  0.32473994666E+02  0.51100000000E-03 0.  1.
        -12    1    4    4    0    0 -0.38936327629E+01  0.80539088098E+01 -0.20087749243E+01  0.91684786036E+01  0.00000000000E+00 0.  1.
</event>
<event>
 8    1  0.2432279E-006  0.9118800E+02  0.7816164E-02  0.1184000E+00
        -11   -1    0    0    0    0  0.00000000000E+00  0.00000000000E+00  0.45593999997E+02  0.45594000000E+02  0.51100000000E-03 0.  1.
         11   -1    0    0    0    0 -0.00000000000E+00 -0.00000000000E+00 -0.45593999997E+02  0.45594000000E+02  0.51100000000E-03 0. -1.
         23    2    1    2    0    0  0.00000000000E+00  0.00000000000E+00 -0.71054273576E-14  0.91188000000E+02  0.91188000000E+02 0.  0.
    9900012    2    3    3    0    0 -0.13240692193E+02  0.84402819929E+01  0.33304992843E+02  0.54367124968E+02  0.40000092989E+02 0.  0.
         12    1    3    3    0    0  0.13240692193E+02 -0.84402819929E+01 -0.33304992843E+02  0.36820875032E+02  0.00000000000E+00 0. -1.
         11    1    4    4    0    0  0.39441430034E+01 -0.99330612622E+00 -0.78448990295E-01  0.40680555056E+01  0.51100000000E-03 0. -1.
        -11    1    4    4    0    0  0.36303341394E+01  0.42697701413E+01  0.27493395931E+02  0.28058814713E+02  0.51100000000E-03 0.  1.
         12    1    4    4    0    0 -0.20815169336E+02  0.51638179777E+01  0.58900459025E+01  0.22240254749E+02  0.00000000000E+00 0. -1.
</event>
<event>
 8    1  0.2432279E-006  0.9118800E+02  0.7816164E-02  0.1184000E+00
        -11   -1    0    0    0    0  0.00000000000E+00  0.00000000000E+00  0.45593999997E+02  0.45594000000E+02  0.51100000000E-03 0. -1.
         11   -1    0    0    0    0 -0.00000000000E+00 -0.00000000000E+00 -0.45593999997E+02  0.45594000000E+02  0.51100000000E-03 0.  1.
         23    2    1    2    0    0  0.00000000000E+00  0.00000000000E+00  0.35527136788E-14  0.91188000000E+02  0.91188000000E+02 0.  0.
    9900012    2    3    3    0    0  0.32330994155E+02 -0.20653822207E+01 -0.17499181830E+02  0.54367077259E+02  0.39999984226E+02 0.  0.
         12    1    3    3    0    0 -0.32330994155E+02  0.20653822207E+01  0.17499181830E+02  0.36820922741E+02  0.00000000000E+00 0. -1.
         11    1    4    4    0    0 -0.23442860648E+01 -0.65644037858E+00 -0.54508425584E+01  0.59697802290E+01  0.51100000000E-03 0. -1.
        -11    1    4    4    0    0  0.26412275784E+02 -0.11244401519E+02  0.27072184056E+01  0.28833555267E+02  0.51100000000E-03 0.  1.
         12    1    4    4    0    0  0.82630044366E+01  0.98354596766E+01 -0.14755557678E+02  0.19563741762E+02  0.00000000000E+00 0. -1.
</event>
<event>
 8    1  0.2432279E-006  0.9118800E+02  0.7816164E-02  0.1184000E+00
        -11   -1    0    0    0    0  0.00000000000E+00  0.00000000000E+00  0.45593999997E+02  0.45594000000E+02  0.51100000000E-03 0.  1.
         11   -1    0    0    0    0 -0.00000000000E+00 -0.00000000000E+00 -0.45593999997E+02  0.45594000000E+02  0.51100000000E-03 0. -1.
         23    2    1    2    0    0  0.00000000000E+00  0.88817841970E-15 -0.71054273576E-14  0.91188000000E+02  0.91188000000E+02 0.  0.
    9900012    2    3    3    0    0  0.51504708163E+01  0.18494215396E+00 -0.36458364920E+02  0.54367164514E+02  0.40000183143E+02 0.  0.
        -12    1    3    3    0    0 -0.51504708163E+01 -0.18494215396E+00  0.36458364920E+02  0.36820835486E+02  0.00000000000E+00 0.  1.
         11    1    4    4    0    0  0.11978002130E+02  0.21451224978E+01 -0.96102034695E+01  0.15505808478E+02  0.51100000000E-03 0. -1.
        -11    1    4    4    0    0 -0.38911817214E+01 -0.14264994008E+02 -0.18593563053E+02  0.23756092618E+02  0.51100000000E-03 0.  1.
         12    1    4    4    0    0 -0.29363495924E+01  0.12304813664E+02 -0.82545983976E+01  0.15105263418E+02  0.00000000000E+00 0. -1.
</event>
<event>
 8    1  0.2432279E-006  0.9118800E+02  0.7816164E-02  0.1184000E+00
        -11   -1    0    0    0    0  0.00000000000E+00  0.00000000000E+00  0.45593999997E+02  0.45594000000E+02  0.51100000000E-03 0.  1.
         11   -1    0    0    0    0 -0.00000000000E+00 -0.00000000000E+00 -0.45593999997E+02  0.45594000000E+02  0.51100000000E-03 0. -1.
         23    2    1    2    0    0  0.17763568394E-14  0.00000000000E+00 -0.35527136788E-14  0.91188000000E+02  0.91188000000E+02 0.  0.
    9900012    2    3    3    0    0  0.10479177345E+02 -0.26598348138E+02 -0.23205512791E+02  0.54367067022E+02  0.39999960890E+02 0.  0.
         12    1    3    3    0    0 -0.10479177345E+02  0.26598348138E+02  0.23205512791E+02  0.36820932978E+02  0.00000000000E+00 0. -1.
         11    1    4    4    0    0 -0.28928960184E+01 -0.29407882895E+02 -0.14242956524E+02  0.32803265608E+02  0.51100000000E-03 0. -1.
        -11    1    4    4    0    0  0.10861877200E+02 -0.42496139176E+01 -0.76737345831E+01  0.13961582915E+02  0.51100000000E-03 0.  1.
        -12    1    4    4    0    0  0.25101961630E+01  0.70591486746E+01 -0.12888216835E+01  0.76022184997E+01  0.00000000000E+00 0.  1.
</event>
<event>
 8    1  0.2432279E-006  0.9118800E+02  0.7816164E-02  0.1184000E+00
        -11   -1    0    0    0    0  0.00000000000E+00  0.00000000000E+00  0.45593999997E+02  0.45594000000E+02  0.51100000000E-03 0. -1.
         11   -1    0    0    0    0 -0.00000000000E+00 -0.00000000000E+00 -0.45593999997E+02  0.45594000000E+02  0.51100000000E-03 0.  1.
         23    2    1    2    0    0  0.00000000000E+00  0.00000000000E+00 -0.71054273576E-14  0.91188000000E+02  0.91188000000E+02 0.  0.
    9900012    2    3    3    0    0 -0.24898138698E+02 -0.29277681305E+01  0.26968338627E+02  0.54367076259E+02  0.39999981947E+02 0.  0.
        -12    1    3    3    0    0  0.24898138698E+02  0.29277681305E+01 -0.26968338627E+02  0.36820923741E+02  0.00000000000E+00 0.  1.
         11    1    4    4    0    0 -0.47314384533E+01 -0.44850957463E+01  0.91587114906E+01  0.11242090114E+02  0.51100000000E-03 0. -1.
        -11    1    4    4    0    0 -0.20351665028E+02 -0.74742416482E+01 -0.15759869692E+01  0.21737945920E+02  0.51100000000E-03 0.  1.
        -12    1    4    4    0    0  0.18496478355E+00  0.90315692640E+01  0.19385614106E+02  0.21387040225E+02  0.00000000000E+00 0.  1.
</event>
<event>
 8    1  0.2432279E-006  0.9118800E+02  0.7816164E-02  0.1184000E+00
        -11   -1    0    0    0    0  0.00000000000E+00  0.00000000000E+00  0.45593999997E+02  0.45594000000E+02  0.51100000000E-03 0.  1.
         11   -1    0    0    0    0 -0.00000000000E+00 -0.00000000000E+00 -0.45593999997E+02  0.45594000000E+02  0.51100000000E-03 0. -1.
         23    2    1    2    0    0  0.00000000000E+00  0.35527136788E-14  0.00000000000E+00  0.91188000000E+02  0.91188000000E+02 0.  0.
    9900012    2    3    3    0    0  0.16442223325E+02  0.24962185814E+02 -0.21501666699E+02  0.54367094263E+02  0.40000022991E+02 0.  0.
        -12    1    3    3    0    0 -0.16442223325E+02 -0.24962185814E+02  0.21501666699E+02  0.36820905737E+02  0.00000000000E+00 0.  1.
         11    1    4    4    0    0  0.17522118237E+02  0.95060758868E+01 -0.16219914031E+02  0.25699722133E+02  0.51100000000E-03 0. -1.
        -11    1    4    4    0    0  0.88651890441E+01 -0.51449796974E+00 -0.41975368675E+01  0.98221993954E+01  0.51100000000E-03 0.  1.
        -12    1    4    4    0    0 -0.99450839558E+01  0.15970607897E+02 -0.10842158002E+01  0.18845172734E+02  0.00000000000E+00 0.  1.
</event>
<event>
 8    1  0.2432279E-006  0.9118800E+02  0.7816164E-02  0.1184000E+00
        -11   -1    0    0    0    0  0.00000000000E+00  0.00000000000E+00  0.45593999997E+02  0.45594000000E+02  0.51100000000E-03 0. -1.
         11   -1    0    0    0    0 -0.00000000000E+00 -0.00000000000E+00 -0.45593999997E+02  0.45594000000E+02  0.51100000000E-03 0.  1.
         23    2    1    2    0    0 -0.56898930012E-15  0.17763568394E-14 -0.71054273576E-14  0.91188000000E+02  0.91188000000E+02 0.  0.
    9900012    2    3    3    0    0 -0.11529340107E+00  0.11722748001E+02 -0.34904787360E+02  0.54367078041E+02  0.39999986010E+02 0.  0.
         12    1    3    3    0    0  0.11529340107E+00 -0.11722748001E+02  0.34904787360E+02  0.36820921959E+02  0.00000000000E+00 0. -1.
         11    1    4    4    0    0  0.17667198163E+01 -0.11714357868E+02 -0.20826804048E+01  0.12028509347E+02  0.51100000000E-03 0. -1.
        -11    1    4    4    0    0  0.31734749596E+01  0.17685724850E+01 -0.91797604195E+01  0.98725272132E+01  0.51100000000E-03 0.  1.
        -12    1    4    4    0    0 -0.50554881769E+01  0.21668533384E+02 -0.23642346536E+02  0.32466041481E+02  0.00000000000E+00 0.  1.
</event>
<event>
 8    1  0.2432279E-006  0.9118800E+02  0.7816164E-02  0.1184000E+00
        -11   -1    0    0    0    0  0.00000000000E+00  0.00000000000E+00  0.45593999997E+02  0.45594000000E+02  0.51100000000E-03 0.  1.
         11   -1    0    0    0    0 -0.00000000000E+00 -0.00000000000E+00 -0.45593999997E+02  0.45594000000E+02  0.51100000000E-03 0. -1.
         23    2    1    2    0    0 -0.35527136788E-14  0.17763568394E-14  0.00000000000E+00  0.91188000000E+02  0.91188000000E+02 0.  0.
    9900012    2    3    3    0    0  0.31036798797E+02 -0.14791467223E+02  0.13179905614E+02  0.54367078038E+02  0.39999986003E+02 0.  0.
         12    1    3    3    0    0 -0.31036798797E+02  0.14791467223E+02 -0.13179905614E+02  0.36820921962E+02  0.00000000000E+00 0. -1.
         11    1    4    4    0    0 -0.13864422083E+00 -0.21858413488E+00  0.72291557567E+01  0.72337883892E+01  0.51100000000E-03 0. -1.
        -11    1    4    4    0    0  0.33616359924E+02 -0.43453297252E+01  0.10771082408E+02  0.35566244692E+02  0.51100000000E-03 0.  1.
         12    1    4    4    0    0 -0.24409169066E+01 -0.10227553363E+02 -0.48203325508E+01  0.11567044957E+02  0.00000000000E+00 0. -1.
</event>
<event>
 8    1  0.2432279E-006  0.9118800E+02  0.7816164E-02  0.1184000E+00
        -11   -1    0    0    0    0  0.00000000000E+00  0.00000000000E+00  0.45593999997E+02  0.45594000000E+02  0.51100000000E-03 0.  1.
         11   -1    0    0    0    0 -0.00000000000E+00 -0.00000000000E+00 -0.45593999997E+02  0.45594000000E+02  0.51100000000E-03 0. -1.
         23    2    1    2    0    0  0.61062266354E-15 -0.35527136788E-14  0.00000000000E+00  0.91188000000E+02  0.91188000000E+02 0.  0.
    9900012    2    3    3    0    0  0.45079807954E+00 -0.24078206130E+02 -0.27853466938E+02  0.54367097651E+02  0.40000030715E+02 0.  0.
        -12    1    3    3    0    0 -0.45079807954E+00  0.24078206130E+02  0.27853466938E+02  0.36820902349E+02  0.00000000000E+00 0.  1.
         11    1    4    4    0    0  0.36440084177E+01  0.14759730509E+01  0.23001900562E+01  0.45550157355E+01  0.51100000000E-03 0. -1.
        -11    1    4    4    0    0 -0.68181071096E+01 -0.19749867139E+00  0.33818972341E+01  0.76133316916E+01  0.51100000000E-03 0.  1.
         12    1    4    4    0    0  0.36248967714E+01 -0.25356680509E+02 -0.33535554228E+02  0.42198750224E+02  0.00000000000E+00 0. -1.
</event>
<event>
 8    1  0.2432279E-006  0.9118800E+02  0.7816164E-02  0.1184000E+00
        -11   -1    0    0    0    0  0.00000000000E+00  0.00000000000E+00  0.45593999997E+02  0.45594000000E+02  0.51100000000E-03 0. -1.
         11   -1    0    0    0    0 -0.00000000000E+00 -0.00000000000E+00 -0.45593999997E+02  0.45594000000E+02  0.51100000000E-03 0.  1.
         23    2    1    2    0    0  0.17763568394E-14 -0.71054273576E-14  0.17763568394E-14  0.91188000000E+02  0.91188000000E+02 0.  0.
    9900012    2    3    3    0    0 -0.95883884081E+01  0.34223586423E+02 -0.96223064779E+01  0.54367084180E+02  0.40000000004E+02 0.  0.
        -12    1    3    3    0    0  0.95883884081E+01 -0.34223586423E+02  0.96223064779E+01  0.36820915820E+02  0.00000000000E+00 0.  1.
         11    1    4    4    0    0  0.18902966833E+01  0.14920503380E+02  0.29457607453E+01  0.15325539119E+02  0.51100000000E-03 0. -1.
        -11    1    4    4    0    0 -0.18161657214E+02  0.55197805377E+01 -0.14101897642E+02  0.23646929765E+02  0.51100000000E-03 0.  1.
        -12    1    4    4    0    0  0.66829721228E+01  0.13783302505E+02  0.15338304184E+01  0.15394615295E+02  0.00000000000E+00 0.  1.
</event>
<event>
 8    1  0.2432279E-006  0.9118800E+02  0.7816164E-02  0.1184000E+00
        -11   -1    0    0    0    0  0.00000000000E+00  0.00000000000E+00  0.45593999997E+02  0.45594000000E+02  0.51100000000E-03 0. -1.
         11   -1    0    0    0    0 -0.00000000000E+00 -0.00000000000E+00 -0.45593999997E+02  0.45594000000E+02  0.51100000000E-03 0.  1.
         23    2    1    2    0    0  0.88817841970E-15  0.88817841970E-15  0.00000000000E+00  0.91188000000E+02  0.91188000000E+02 0.  0.
    9900012    2    3    3    0    0 -0.63069913851E+01  0.70638718694E+01 -0.35582342796E+02  0.54367088211E+02  0.40000009194E+02 0.  0.
         12    1    3    3    0    0  0.63069913851E+01 -0.70638718694E+01  0.35582342796E+02  0.36820911789E+02  0.00000000000E+00 0. -1.
         11    1    4    4    0    0  0.11127176631E+02 -0.68778002566E+01 -0.10298133078E+02  0.16648415580E+02  0.51100000000E-03 0. -1.
        -11    1    4    4    0    0 -0.71630284159E+01  0.84037409657E+00 -0.18291764134E+02  0.19662244026E+02  0.51100000000E-03 0.  1.
         12    1    4    4    0    0 -0.10271139601E+02  0.13101298029E+02 -0.69924455834E+01  0.18056428606E+02  0.00000000000E+00 0. -1.
</event>
<event>
 8    1  0.2432279E-006  0.9118800E+02  0.7816164E-02  0.1184000E+00
        -11   -1    0    0    0    0  0.00000000000E+00  0.00000000000E+00  0.45593999997E+02  0.45594000000E+02  0.51100000000E-03 0. -1.
         11   -1    0    0    0    0 -0.00000000000E+00 -0.00000000000E+00 -0.45593999997E+02  0.45594000000E+02  0.51100000000E-03 0.  1.
         23    2    1    2    0    0 -0.88817841970E-15 -0.35527136788E-14  0.00000000000E+00  0.91188000000E+02  0.91188000000E+02 0.  0.
    9900012    2    3    3    0    0 -0.66228422004E+01 -0.14067317993E+02  0.33377099141E+02  0.54367051868E+02  0.39999926343E+02 0.  0.
        -12    1    3    3    0    0  0.66228422004E+01  0.14067317993E+02 -0.33377099141E+02  0.36820948132E+02  0.00000000000E+00 0.  1.
         11    1    4    4    0    0 -0.10268297867E+02 -0.21921768750E+02  0.28405576397E+02  0.37321289594E+02  0.51100000000E-03 0. -1.
        -11    1    4    4    0    0 -0.45122899263E+01  0.45847316258E+01 -0.87225096867E+00  0.64916366559E+01  0.51100000000E-03 0.  1.
         12    1    4    4    0    0  0.81577455930E+01  0.32697191316E+01  0.58437737119E+01  0.10554125618E+02  0.00000000000E+00 0. -1.
</event>
<event>
 8    1  0.2432279E-006  0.9118800E+02  0.7816164E-02  0.1184000E+00
        -11   -1    0    0    0    0  0.00000000000E+00  0.00000000000E+00  0.45593999997E+02  0.45594000000E+02  0.51100000000E-03 0.  1.
         11   -1    0    0    0    0 -0.00000000000E+00 -0.00000000000E+00 -0.45593999997E+02  0.45594000000E+02  0.51100000000E-03 0. -1.
         23    2    1    2    0    0 -0.35527136788E-14 -0.17763568394E-14  0.00000000000E+00  0.91188000000E+02  0.91188000000E+02 0.  0.
    9900012    2    3    3    0    0 -0.25338238233E+02 -0.14377321200E+02  0.22517674366E+02  0.54367090987E+02  0.40000015523E+02 0.  0.
        -12    1    3    3    0    0  0.25338238233E+02  0.14377321200E+02 -0.22517674366E+02  0.36820909013E+02  0.00000000000E+00 0.  1.
         11    1    4    4    0    0 -0.14279307805E+02 -0.40360935829E+01  0.19450094283E+02  0.24464154404E+02  0.51100000000E-03 0. -1.
        -11    1    4    4    0    0 -0.39684272885E+01 -0.45243176498E+01  0.14233439329E+02  0.15453435241E+02  0.51100000000E-03 0.  1.
         12    1    4    4    0    0 -0.70905031397E+01 -0.58169099677E+01 -0.11165859246E+02  0.14449501343E+02  0.00000000000E+00 0. -1.
</event>
<event>
 8    1  0.2432279E-006  0.9118800E+02  0.7816164E-02  0.1184000E+00
        -11   -1    0    0    0    0  0.00000000000E+00  0.00000000000E+00  0.45593999997E+02  0.45594000000E+02  0.51100000000E-03 0.  1.
         11   -1    0    0    0    0 -0.00000000000E+00 -0.00000000000E+00 -0.45593999997E+02  0.45594000000E+02  0.51100000000E-03 0. -1.
         23    2    1    2    0    0 -0.71054273576E-14  0.00000000000E+00 -0.17763568394E-14  0.91188000000E+02  0.91188000000E+02 0.  0.
    9900012    2    3    3    0    0  0.33326648376E+02  0.83659448357E+01 -0.13233449496E+02  0.54367099542E+02  0.40000035025E+02 0.  0.
        -12    1    3    3    0    0 -0.33326648376E+02 -0.83659448357E+01  0.13233449496E+02  0.36820900458E+02  0.00000000000E+00 0.  1.
         11    1    4    4    0    0  0.18568563882E+02  0.10270110527E+02 -0.17492314142E+00  0.21220210490E+02  0.51100000000E-03 0.  1.
        -11    1    4    4    0    0 -0.13778209791E+01  0.26998918584E+01 -0.15849263103E+02  0.16136509780E+02  0.51100000000E-03 0. -1.
         12    1    4    4    0    0  0.16135905473E+02 -0.46040575498E+01  0.27907367483E+01  0.17010379272E+02  0.00000000000E+00 0. -1.
</event>
<event>
 8    1  0.2432279E-006  0.9118800E+02  0.7816164E-02  0.1184000E+00
        -11   -1    0    0    0    0  0.00000000000E+00  0.00000000000E+00  0.45593999997E+02  0.45594000000E+02  0.51100000000E-03 0.  1.
         11   -1    0    0    0    0 -0.00000000000E+00 -0.00000000000E+00 -0.45593999997E+02  0.45594000000E+02  0.51100000000E-03 0. -1.
         23    2    1    2    0    0  0.00000000000E+00  0.00000000000E+00 -0.35527136788E-14  0.91188000000E+02  0.91188000000E+02 0.  0.
    9900012    2    3    3    0    0  0.25924857279E+02  0.13631707094E+02 -0.22312743006E+02  0.54367079810E+02  0.39999990042E+02 0.  0.
        -12    1    3    3    0    0 -0.25924857279E+02 -0.13631707094E+02  0.22312743006E+02  0.36820920190E+02  0.00000000000E+00 0.  1.
         11    1    4    4    0    0  0.17016634151E+02 -0.22162879655E+01 -0.17630418944E+02  0.24603037263E+02  0.51100000000E-03 0. -1.
        -11    1    4    4    0    0  0.32196755506E+00 -0.55908650853E+01  0.16116177429E+01  0.58274134501E+01  0.51100000000E-03 0.  1.
         12    1    4    4    0    0  0.85862555723E+01  0.21438860145E+02 -0.62939418049E+01  0.23936629096E+02  0.00000000000E+00 0. -1.
</event>
<event>
 8    1  0.2432279E-006  0.9118800E+02  0.7816164E-02  0.1184000E+00
        -11   -1    0    0    0    0  0.00000000000E+00  0.00000000000E+00  0.45593999997E+02  0.45594000000E+02  0.51100000000E-03 0.  1.
         11   -1    0    0    0    0 -0.00000000000E+00 -0.00000000000E+00 -0.45593999997E+02  0.45594000000E+02  0.51100000000E-03 0. -1.
         23    2    1    2    0    0 -0.35527136788E-14 -0.17763568394E-14 -0.35527136788E-14  0.91188000000E+02  0.91188000000E+02 0.  0.
    9900012    2    3    3    0    0  0.26039935826E+02 -0.14744352004E+02 -0.21454732533E+02  0.54367085808E+02  0.40000003716E+02 0.  0.
        -12    1    3    3    0    0 -0.26039935826E+02  0.14744352004E+02  0.21454732533E+02  0.36820914192E+02  0.00000000000E+00 0.  1.
         11    1    4    4    0    0 -0.48945914757E+01  0.50609678719E+01 -0.89711703474E+01  0.11404048368E+02  0.51100000000E-03 0. -1.
        -11    1    4    4    0    0  0.28768194795E+02 -0.20903823501E+02 -0.60313313983E+01  0.36068765261E+02  0.51100000000E-03 0.  1.
         12    1    4    4    0    0  0.21663325067E+01  0.10985036252E+01 -0.64522307875E+01  0.68942721791E+01  0.00000000000E+00 0. -1.
</event>
<event>
 8    1  0.2432279E-006  0.9118800E+02  0.7816164E-02  0.1184000E+00
        -11   -1    0    0    0    0  0.00000000000E+00  0.00000000000E+00  0.45593999997E+02  0.45594000000E+02  0.51100000000E-03 0.  1.
         11   -1    0    0    0    0 -0.00000000000E+00 -0.00000000000E+00 -0.45593999997E+02  0.45594000000E+02  0.51100000000E-03 0. -1.
         23    2    1    2    0    0  0.00000000000E+00 -0.35527136788E-14 -0.35527136788E-14  0.91188000000E+02  0.91188000000E+02 0.  0.
    9900012    2    3    3    0    0 -0.51546281556E+01  0.23281285606E+02  0.28056752461E+02  0.54367220411E+02  0.40000310570E+02 0.  0.
         12    1    3    3    0    0  0.51546281556E+01 -0.23281285606E+02 -0.28056752461E+02  0.36820779589E+02  0.00000000000E+00 0. -1.
         11    1    4    4    0    0 -0.49630631283E+00  0.28058023934E-01 -0.67475100942E+01  0.67657963272E+01  0.51100000000E-03 0. -1.
        -11    1    4    4    0    0 -0.35702564067E+01  0.26958885256E+02  0.24521784829E+02  0.36617566229E+02  0.51100000000E-03 0.  1.
        -12    1    4    4    0    0 -0.10880654361E+01 -0.37056576741E+01  0.10282477726E+02  0.10983857855E+02  0.00000000000E+00 0.  1.
</event>
<event>
 8    1  0.2432279E-006  0.9118800E+02  0.7816164E-02  0.1184000E+00
        -11   -1    0    0    0    0  0.00000000000E+00  0.00000000000E+00  0.45593999997E+02  0.45594000000E+02  0.51100000000E-03 0.  1.
         11   -1    0    0    0    0 -0.00000000000E+00 -0.00000000000E+00 -0.45593999997E+02  0.45594000000E+02  0.51100000000E-03 0. -1.
         23    2    1    2    0    0 -0.22204460493E-15 -0.53290705182E-14  0.00000000000E+00  0.91188000000E+02  0.91188000000E+02 0.  0.
    9900012    2    3    3    0    0 -0.18904086941E+01  0.10178160214E+02  0.35335688608E+02  0.54367089096E+02  0.40000011212E+02 0.  0.
         12    1    3    3    0    0  0.18904086941E+01 -0.10178160214E+02 -0.35335688608E+02  0.36820910904E+02  0.00000000000E+00 0. -1.
         11    1    4    4    0    0 -0.21200050913E+01  0.57159981526E+01 -0.27676164813E+01  0.66952787632E+01  0.51100000000E-03 0. -1.
        -11    1    4    4    0    0  0.45025477316E+01 -0.11168278076E+02  0.12381692878E+02  0.17271644104E+02  0.51100000000E-03 0.  1.
        -12    1    4    4    0    0 -0.42729513344E+01  0.15630440138E+02  0.25721612211E+02  0.30400166229E+02  0.00000000000E+00 0.  1.
</event>
<event>
 8    1  0.2432279E-006  0.9118800E+02  0.7816164E-02  0.1184000E+00
        -11   -1    0    0    0    0  0.00000000000E+00  0.00000000000E+00  0.45593999997E+02  0.45594000000E+02  0.51100000000E-03 0. -1.
         11   -1    0    0    0    0 -0.00000000000E+00 -0.00000000000E+00 -0.45593999997E+02  0.45594000000E+02  0.51100000000E-03 0.  1.
         23    2    1    2    0    0 -0.26645352591E-14  0.00000000000E+00  0.00000000000E+00  0.91188000000E+02  0.91188000000E+02 0.  0.
    9900012    2    3    3    0    0  0.65848522835E+01  0.35784925496E+02  0.56450741716E+01  0.54366972927E+02  0.39999746380E+02 0.  0.
        -12    1    3    3    0    0 -0.65848522835E+01 -0.35784925496E+02 -0.56450741716E+01  0.36821027073E+02  0.00000000000E+00 0.  1.
         11    1    4    4    0    0 -0.14651868421E+01  0.13772050505E+02  0.96569635960E+01  0.16884107727E+02  0.51100000000E-03 0. -1.
        -11    1    4    4    0    0 -0.79361305378E+01  0.66351070556E+01  0.72244749625E+01  0.12617442383E+02  0.51100000000E-03 0.  1.
        -12    1    4    4    0    0  0.15986169663E+02  0.15377767936E+02 -0.11236364387E+02  0.24865422816E+02  0.00000000000E+00 0.  1.
</event>
<event>
 8    1  0.2432279E-006  0.9118800E+02  0.7816164E-02  0.1184000E+00
        -11   -1    0    0    0    0  0.00000000000E+00  0.00000000000E+00  0.45593999997E+02  0.45594000000E+02  0.51100000000E-03 0.  1.
         11   -1    0    0    0    0 -0.00000000000E+00 -0.00000000000E+00 -0.45593999997E+02  0.45594000000E+02  0.51100000000E-03 0. -1.
         23    2    1    2    0    0  0.00000000000E+00  0.00000000000E+00 -0.35527136788E-14  0.91188000000E+02  0.91188000000E+02 0.  0.
    9900012    2    3    3    0    0 -0.16121558347E+02 -0.23518460087E+02  0.23297191204E+02  0.54367058589E+02  0.39999941666E+02 0.  0.
         12    1    3    3    0    0  0.16121558347E+02  0.23518460087E+02 -0.23297191204E+02  0.36820941411E+02  0.00000000000E+00 0. -1.
         11    1    4    4    0    0 -0.11329805583E+01  0.46693683435E+01 -0.52120372934E+00  0.48330424436E+01  0.51100000000E-03 0. -1.
        -11    1    4    4    0    0 -0.15971271252E+02 -0.39401631345E+01  0.18376475794E+02  0.24663763983E+02  0.51100000000E-03 0.  1.
        -12    1    4    4    0    0  0.98269346407E+00 -0.24247665296E+02  0.54419191397E+01  0.24870252163E+02  0.00000000000E+00 0.  1.
</event>
<event>
 8    1  0.2432279E-006  0.9118800E+02  0.7816164E-02  0.1184000E+00
        -11   -1    0    0    0    0  0.00000000000E+00  0.00000000000E+00  0.45593999997E+02  0.45594000000E+02  0.51100000000E-03 0. -1.
         11   -1    0    0    0    0 -0.00000000000E+00 -0.00000000000E+00 -0.45593999997E+02  0.45594000000E+02  0.51100000000E-03 0.  1.
         23    2    1    2    0    0 -0.17763568394E-14  0.00000000000E+00  0.71054273576E-14  0.91188000000E+02  0.91188000000E+02 0.  0.
    9900012    2    3    3    0    0  0.11121232685E+02 -0.12558435031E+02  0.32777806662E+02  0.54367072303E+02  0.39999972929E+02 0.  0.
        -12    1    3    3    0    0 -0.11121232685E+02  0.12558435031E+02 -0.32777806662E+02  0.36820927697E+02  0.00000000000E+00 0.  1.
         11    1    4    4    0    0 -0.90180635076E+00  0.45991058631E+01  0.15807872224E+02  0.16487991204E+02  0.51100000000E-03 0. -1.
        -11    1    4    4    0    0  0.73805849450E+01 -0.39660422408E+01 -0.64689239334E+01  0.10585343750E+02  0.51100000000E-03 0.  1.
        -12    1    4    4    0    0  0.46424540903E+01 -0.13191498654E+02  0.23438858371E+02  0.27293737349E+02  0.00000000000E+00 0.  1.
</event>
<event>
 8    1  0.2432279E-006  0.9118800E+02  0.7816164E-02  0.1184000E+00
        -11   -1    0    0    0    0  0.00000000000E+00  0.00000000000E+00  0.45593999997E+02  0.45594000000E+02  0.51100000000E-03 0.  1.
         11   -1    0    0    0    0 -0.00000000000E+00 -0.00000000000E+00 -0.45593999997E+02  0.45594000000E+02  0.51100000000E-03 0. -1.
         23    2    1    2    0    0 -0.35527136788E-14  0.00000000000E+00 -0.35527136788E-14  0.91188000000E+02  0.91188000000E+02 0.  0.
    9900012    2    3    3    0    0 -0.17255496606E+02  0.22879162023E+02  0.23120795245E+02  0.54367090306E+02  0.40000013970E+02 0.  0.
         12    1    3    3    0    0  0.17255496606E+02 -0.22879162023E+02 -0.23120795245E+02  0.36820909694E+02  0.00000000000E+00 0. -1.
         11    1    4    4    0    0 -0.16801591899E+01 -0.13319362176E+01 -0.61841994936E+01  0.65453275418E+01  0.51100000000E-03 0. -1.
        -11    1    4    4    0    0 -0.15767482028E+02  0.26441005995E+02  0.16707247236E+02  0.35026738329E+02  0.51100000000E-03 0.  1.
         12    1    4    4    0    0  0.19214461184E+00 -0.22299077545E+01  0.12597747502E+02  0.12795024435E+02  0.00000000000E+00 0. -1.
</event>
<event>
 8    1  0.2432279E-006  0.9118800E+02  0.7816164E-02  0.1184000E+00
        -11   -1    0    0    0    0  0.00000000000E+00  0.00000000000E+00  0.45593999997E+02  0.45594000000E+02  0.51100000000E-03 0. -1.
         11   -1    0    0    0    0 -0.00000000000E+00 -0.00000000000E+00 -0.45593999997E+02  0.45594000000E+02  0.51100000000E-03 0.  1.
         23    2    1    2    0    0  0.17763568394E-14  0.00000000000E+00  0.00000000000E+00  0.91188000000E+02  0.91188000000E+02 0.  0.
    9900012    2    3    3    0    0  0.96856151787E+01 -0.29710940965E+02 -0.19473808928E+02  0.54367076755E+02  0.39999983079E+02 0.  0.
         12    1    3    3    0    0 -0.96856151787E+01  0.29710940965E+02  0.19473808928E+02  0.36820923245E+02  0.00000000000E+00 0. -1.
         11    1    4    4    0    0 -0.55930580133E+01 -0.20863331497E+02  0.34906246474E+01  0.21880250451E+02  0.51100000000E-03 0. -1.
        -11    1    4    4    0    0  0.68958510357E+01 -0.45766530241E+01 -0.68770774088E+00  0.83049055749E+01  0.51100000000E-03 0.  1.
        -12    1    4    4    0    0  0.83828221563E+01 -0.42709564440E+01 -0.22276725835E+02  0.24181920729E+02  0.00000000000E+00 0.  1.
</event>
<event>
 8    1  0.2432279E-006  0.9118800E+02  0.7816164E-02  0.1184000E+00
        -11   -1    0    0    0    0  0.00000000000E+00  0.00000000000E+00  0.45593999997E+02  0.45594000000E+02  0.51100000000E-03 0. -1.
         11   -1    0    0    0    0 -0.00000000000E+00 -0.00000000000E+00 -0.45593999997E+02  0.45594000000E+02  0.51100000000E-03 0.  1.
         23    2    1    2    0    0  0.00000000000E+00 -0.35527136788E-14  0.00000000000E+00  0.91188000000E+02  0.91188000000E+02 0.  0.
    9900012    2    3    3    0    0  0.94781028619E+01 -0.30841267240E+02 -0.17741474470E+02  0.54367107627E+02  0.40000053457E+02 0.  0.
         12    1    3    3    0    0 -0.94781028619E+01  0.30841267240E+02  0.17741474470E+02  0.36820892373E+02  0.00000000000E+00 0. -1.
         11    1    4    4    0    0  0.13772937141E+02 -0.12618911929E+02 -0.14064342101E+01  0.18732559708E+02  0.51100000000E-03 0. -1.
        -11    1    4    4    0    0 -0.69962022673E+01  0.44175892183E+01 -0.75469019088E+01  0.11199003052E+02  0.51100000000E-03 0.  1.
         12    1    4    4    0    0  0.27013679881E+01 -0.22639944529E+02 -0.87881383508E+01  0.24435544867E+02  0.00000000000E+00 0. -1.
</event>
<event>
 8    1  0.2432279E-006  0.9118800E+02  0.7816164E-02  0.1184000E+00
        -11   -1    0    0    0    0  0.00000000000E+00  0.00000000000E+00  0.45593999997E+02  0.45594000000E+02  0.51100000000E-03 0.  1.
         11   -1    0    0    0    0 -0.00000000000E+00 -0.00000000000E+00 -0.45593999997E+02  0.45594000000E+02  0.51100000000E-03 0. -1.
         23    2    1    2    0    0  0.17763568394E-14  0.35527136788E-14 -0.35527136788E-14  0.91188000000E+02  0.91188000000E+02 0.  0.
    9900012    2    3    3    0    0  0.11140297801E+02  0.28788529647E+02 -0.20072232866E+02  0.54367079227E+02  0.39999988715E+02 0.  0.
        -12    1    3    3    0    0 -0.11140297801E+02 -0.28788529647E+02  0.20072232866E+02  0.36820920773E+02  0.00000000000E+00 0.  1.
         11    1    4    4    0    0 -0.65773980314E+00 -0.21440031829E+01 -0.39901229470E+01  0.45771664478E+01  0.51100000000E-03 0. -1.
        -11    1    4    4    0    0 -0.67729818617E+00 -0.54943314790E+01  0.35434600176E+01  0.65728624199E+01  0.51100000000E-03 0.  1.
         12    1    4    4    0    0  0.12475335790E+02  0.36426864309E+02 -0.19625569937E+02  0.43217050360E+02  0.00000000000E+00 0. -1.
</event>
<event>
 8    1  0.2432279E-006  0.9118800E+02  0.7816164E-02  0.1184000E+00
        -11   -1    0    0    0    0  0.00000000000E+00  0.00000000000E+00  0.45593999997E+02  0.45594000000E+02  0.51100000000E-03 0.  1.
         11   -1    0    0    0    0 -0.00000000000E+00 -0.00000000000E+00 -0.45593999997E+02  0.45594000000E+02  0.51100000000E-03 0. -1.
         23    2    1    2    0    0  0.35527136788E-14 -0.35527136788E-14 -0.35527136788E-14  0.91188000000E+02  0.91188000000E+02 0.  0.
    9900012    2    3    3    0    0 -0.24318882782E+02  0.19189297122E+02  0.19903329754E+02  0.54367085847E+02  0.40000003805E+02 0.  0.
         12    1    3    3    0    0  0.24318882782E+02 -0.19189297122E+02 -0.19903329754E+02  0.36820914153E+02  0.00000000000E+00 0. -1.
         11    1    4    4    0    0 -0.23542390249E+02 -0.58281502907E+01  0.13849216780E+02  0.27928699936E+02  0.51100000000E-03 0. -1.
        -11    1    4    4    0    0  0.89811847876E+00  0.33139932488E+00  0.49945579627E+00  0.10797678769E+01  0.51100000000E-03 0.  1.
        -12    1    4    4    0    0 -0.16746110124E+01  0.24686048087E+02  0.55546571771E+01  0.25358618033E+02  0.00000000000E+00 0.  1.
</event>
<event>
 8    1  0.2432279E-006  0.9118800E+02  0.7816164E-02  0.1184000E+00
        -11   -1    0    0    0    0  0.00000000000E+00  0.00000000000E+00  0.45593999997E+02  0.45594000000E+02  0.51100000000E-03 0. -1.
         11   -1    0    0    0    0 -0.00000000000E+00 -0.00000000000E+00 -0.45593999997E+02  0.45594000000E+02  0.51100000000E-03 0.  1.
         23    2    1    2    0    0  0.00000000000E+00  0.00000000000E+00  0.44408920985E-15  0.91188000000E+02  0.91188000000E+02 0.  0.
    9900012    2    3    3    0    0  0.82175316374E+01  0.35828560258E+02 -0.21367079987E+01  0.54367094560E+02  0.40000023668E+02 0.  0.
         12    1    3    3    0    0 -0.82175316374E+01 -0.35828560258E+02  0.21367079987E+01  0.36820905440E+02  0.00000000000E+00 0. -1.
         11    1    4    4    0    0 -0.25258534498E+01 -0.52075205839E+01 -0.21698296790E+01  0.61811299436E+01  0.51100000000E-03 0. -1.
        -11    1    4    4    0    0  0.34473286190E+00 -0.28867937688E+01  0.89105292795E+00  0.30407884818E+01  0.51100000000E-03 0.  1.
        -12    1    4    4    0    0  0.10398652225E+02  0.43922874611E+02 -0.85793124765E+00  0.45145176134E+02  0.00000000000E+00 0.  1.
</event>
<event>
 8    1  0.2432279E-006  0.9118800E+02  0.7816164E-02  0.1184000E+00
        -11   -1    0    0    0    0  0.00000000000E+00  0.00000000000E+00  0.45593999997E+02  0.45594000000E+02  0.51100000000E-03 0.  1.
         11   -1    0    0    0    0 -0.00000000000E+00 -0.00000000000E+00 -0.45593999997E+02  0.45594000000E+02  0.51100000000E-03 0. -1.
         23    2    1    2    0    0  0.17763568394E-14  0.17763568394E-14  0.00000000000E+00  0.91188000000E+02  0.91188000000E+02 0.  0.
    9900012    2    3    3    0    0  0.14584128004E+02  0.98545444785E+01 -0.32341513202E+02  0.54367050627E+02  0.39999923514E+02 0.  0.
        -12    1    3    3    0    0 -0.14584128004E+02 -0.98545444785E+01  0.32341513202E+02  0.36820949373E+02  0.00000000000E+00 0.  1.
         11    1    4    4    0    0  0.42503759084E+01 -0.95125039145E+01 -0.44432634170E+01  0.11326783133E+02  0.51100000000E-03 0. -1.
        -11    1    4    4    0    0 -0.42099968363E+01 -0.13041143577E+01  0.11306565585E+01  0.45500738602E+01  0.51100000000E-03 0.  1.
         12    1    4    4    0    0  0.14543748932E+02  0.20671162751E+02 -0.29028906344E+02  0.38490193634E+02  0.00000000000E+00 0. -1.
</event>
<event>
 8    1  0.2432279E-006  0.9118800E+02  0.7816164E-02  0.1184000E+00
        -11   -1    0    0    0    0  0.00000000000E+00  0.00000000000E+00  0.45593999997E+02  0.45594000000E+02  0.51100000000E-03 0.  1.
         11   -1    0    0    0    0 -0.00000000000E+00 -0.00000000000E+00 -0.45593999997E+02  0.45594000000E+02  0.51100000000E-03 0. -1.
         23    2    1    2    0    0 -0.35527136788E-14 -0.88817841970E-15  0.35527136788E-14  0.91188000000E+02  0.91188000000E+02 0.  0.
    9900012    2    3    3    0    0 -0.31061915996E+02 -0.38211537546E+01  0.19399710631E+02  0.54366910744E+02  0.39999604622E+02 0.  0.
         12    1    3    3    0    0  0.31061915996E+02  0.38211537546E+01 -0.19399710631E+02  0.36821089256E+02  0.00000000000E+00 0. -1.
         11    1    4    4    0    0 -0.29080929613E+01 -0.80891041635E+01 -0.52461040788E+01  0.10070363405E+02  0.51100000000E-03 0. -1.
        -11    1    4    4    0    0 -0.21219225771E+01  0.57337373243E+01 -0.25473692062E+01  0.66232461272E+01  0.51100000000E-03 0.  1.
        -12    1    4    4    0    0 -0.26031900458E+02 -0.14657869155E+01  0.27193183916E+02  0.37673301212E+02  0.00000000000E+00 0.  1.
</event>
<event>
 8    1  0.2432279E-006  0.9118800E+02  0.7816164E-02  0.1184000E+00
        -11   -1    0    0    0    0  0.00000000000E+00  0.00000000000E+00  0.45593999997E+02  0.45594000000E+02  0.51100000000E-03 0.  1.
         11   -1    0    0    0    0 -0.00000000000E+00 -0.00000000000E+00 -0.45593999997E+02  0.45594000000E+02  0.51100000000E-03 0. -1.
         23    2    1    2    0    0  0.35527136788E-14  0.00000000000E+00  0.00000000000E+00  0.91188000000E+02  0.91188000000E+02 0.  0.
    9900012    2    3    3    0    0 -0.19399980387E+02  0.30503219551E+02  0.69982027499E+01  0.54367075463E+02  0.39999980134E+02 0.  0.
         12    1    3    3    0    0  0.19399980387E+02 -0.30503219551E+02 -0.69982027499E+01  0.36820924537E+02  0.00000000000E+00 0. -1.
         11    1    4    4    0    0 -0.18896275472E+01  0.23098994458E+02 -0.10793077833E+01  0.23201274594E+02  0.51100000000E-03 0. -1.
        -11    1    4    4    0    0 -0.79903093631E+01  0.12810837707E+02 -0.32154761058E+01  0.15437029939E+02  0.51100000000E-03 0.  1.
         12    1    4    4    0    0 -0.95200434765E+01 -0.54066126142E+01  0.11292986639E+02  0.15728770930E+02  0.00000000000E+00 0. -1.
</event>
<event>
 8    1  0.2432279E-006  0.9118800E+02  0.7816164E-02  0.1184000E+00
        -11   -1    0    0    0    0  0.00000000000E+00  0.00000000000E+00  0.45593999997E+02  0.45594000000E+02  0.51100000000E-03 0.  1.
         11   -1    0    0    0    0 -0.00000000000E+00 -0.00000000000E+00 -0.45593999997E+02  0.45594000000E+02  0.51100000000E-03 0. -1.
         23    2    1    2    0    0  0.00000000000E+00 -0.17763568394E-14  0.00000000000E+00  0.91188000000E+02  0.91188000000E+02 0.  0.
    9900012    2    3    3    0    0  0.22169751547E+02 -0.12427272087E+02 -0.26642879561E+02  0.54367109102E+02  0.40000056821E+02 0.  0.
        -12    1    3    3    0    0 -0.22169751547E+02  0.12427272087E+02  0.26642879561E+02  0.36820890898E+02  0.00000000000E+00 0.  1.
         11    1    4    4    0    0  0.13819898396E+02 -0.75366472268E+01 -0.27984618648E+01  0.15988184142E+02  0.51100000000E-03 0. -1.
        -11    1    4    4    0    0  0.16390229157E+02 -0.85017269724E+01 -0.77407688663E+01  0.20020950932E+02  0.51100000000E-03 0.  1.
        -12    1    4    4    0    0 -0.80403760052E+01  0.36111021127E+01 -0.16103648830E+02  0.18357974028E+02  0.00000000000E+00 0.  1.
</event>
<event>
 8    1  0.2432279E-006  0.9118800E+02  0.7816164E-02  0.1184000E+00
        -11   -1    0    0    0    0  0.00000000000E+00  0.00000000000E+00  0.45593999997E+02  0.45594000000E+02  0.51100000000E-03 0. -1.
         11   -1    0    0    0    0 -0.00000000000E+00 -0.00000000000E+00 -0.45593999997E+02  0.45594000000E+02  0.51100000000E-03 0.  1.
         23    2    1    2    0    0  0.17763568394E-14 -0.35527136788E-14 -0.35527136788E-14  0.91188000000E+02  0.91188000000E+02 0.  0.
    9900012    2    3    3    0    0 -0.13375096874E+02  0.24778783945E+02  0.23725480290E+02  0.54367085221E+02  0.40000002378E+02 0.  0.
        -12    1    3    3    0    0  0.13375096874E+02 -0.24778783945E+02 -0.23725480290E+02  0.36820914779E+02  0.00000000000E+00 0.  1.
         11    1    4    4    0    0 -0.87550859653E+00  0.14378036409E+01  0.12301780485E+02  0.12416424525E+02  0.51100000000E-03 0. -1.
        -11    1    4    4    0    0  0.51901522693E+00 -0.71519316431E+01  0.27423411525E+01  0.76772350682E+01  0.51100000000E-03 0.  1.
        -12    1    4    4    0    0 -0.13018603504E+02  0.30492911947E+02  0.86813586528E+01  0.34273425628E+02  0.00000000000E+00 0.  1.
</event>
<event>
 8    1  0.2432279E-006  0.9118800E+02  0.7816164E-02  0.1184000E+00
        -11   -1    0    0    0    0  0.00000000000E+00  0.00000000000E+00  0.45593999997E+02  0.45594000000E+02  0.51100000000E-03 0.  1.
         11   -1    0    0    0    0 -0.00000000000E+00 -0.00000000000E+00 -0.45593999997E+02  0.45594000000E+02  0.51100000000E-03 0. -1.
         23    2    1    2    0    0 -0.71054273576E-14  0.00000000000E+00 -0.44408920985E-15  0.91188000000E+02  0.91188000000E+02 0.  0.
    9900012    2    3    3    0    0 -0.32061882664E+02  0.17787063071E+02 -0.33819870584E+01  0.54367058009E+02  0.39999940342E+02 0.  0.
        -12    1    3    3    0    0  0.32061882664E+02 -0.17787063071E+02  0.33819870584E+01  0.36820941991E+02  0.00000000000E+00 0.  1.
         11    1    4    4    0    0 -0.29391124230E+02  0.13621478993E+02 -0.53229084100E+01  0.32828588573E+02  0.51100000000E-03 0. -1.
        -11    1    4    4    0    0 -0.40669020724E+01  0.20899934670E+01  0.11120660592E+02  0.12024011702E+02  0.51100000000E-03 0.  1.
         12    1    4    4    0    0  0.13961436385E+01  0.20755906103E+01 -0.91797392401E+01  0.95144577332E+01  0.00000000000E+00 0. -1.
</event>
<event>
 8    1  0.2432279E-006  0.9118800E+02  0.7816164E-02  0.1184000E+00
        -11   -1    0    0    0    0  0.00000000000E+00  0.00000000000E+00  0.45593999997E+02  0.45594000000E+02  0.51100000000E-03 0.  1.
         11   -1    0    0    0    0 -0.00000000000E+00 -0.00000000000E+00 -0.45593999997E+02  0.45594000000E+02  0.51100000000E-03 0. -1.
         23    2    1    2    0    0  0.00000000000E+00  0.00000000000E+00 -0.88817841970E-15  0.91188000000E+02  0.91188000000E+02 0.  0.
    9900012    2    3    3    0    0  0.36122666067E+02 -0.38782455567E+01  0.59909240671E+01  0.54367096106E+02  0.40000027193E+02 0.  0.
         12    1    3    3    0    0 -0.36122666067E+02  0.38782455567E+01 -0.59909240671E+01  0.36820903894E+02  0.00000000000E+00 0. -1.
         11    1    4    4    0    0  0.13340829196E+02  0.32777794929E+01 -0.10728719752E+02  0.17430633661E+02  0.51100000000E-03 0. -1.
        -11    1    4    4    0    0  0.78466732797E+01 -0.13884152227E+02  0.47232793740E+01  0.16632778870E+02  0.51100000000E-03 0.  1.
        -12    1    4    4    0    0  0.14935163591E+02  0.67281271777E+01  0.11996364445E+02  0.20303683575E+02  0.00000000000E+00 0.  1.
</event>
<event>
 8    1  0.2432279E-006  0.9118800E+02  0.7816164E-02  0.1184000E+00
        -11   -1    0    0    0    0  0.00000000000E+00  0.00000000000E+00  0.45593999997E+02  0.45594000000E+02  0.51100000000E-03 0. -1.
         11   -1    0    0    0    0 -0.00000000000E+00 -0.00000000000E+00 -0.45593999997E+02  0.45594000000E+02  0.51100000000E-03 0.  1.
         23    2    1    2    0    0  0.00000000000E+00  0.00000000000E+00  0.00000000000E+00  0.91188000000E+02  0.91188000000E+02 0.  0.
    9900012    2    3    3    0    0 -0.13521176806E+02 -0.21008647284E+01  0.34183969667E+02  0.54367086961E+02  0.40000006346E+02 0.  0.
        -12    1    3    3    0    0  0.13521176806E+02  0.21008647284E+01 -0.34183969667E+02  0.36820913039E+02  0.00000000000E+00 0.  1.
         11    1    4    4    0    0  0.67612428667E+01 -0.18587958755E+01  0.31182762984E+02  0.31961449198E+02  0.51100000000E-03 0. -1.
        -11    1    4    4    0    0 -0.74852688005E+01  0.26345217785E+01 -0.22945315609E+01  0.82604376011E+01  0.51100000000E-03 0.  1.
         12    1    4    4    0    0 -0.12797150872E+02 -0.28765906314E+01  0.52957382436E+01  0.14145200163E+02  0.00000000000E+00 0. -1.
</event>
<event>
 8    1  0.2432279E-006  0.9118800E+02  0.7816164E-02  0.1184000E+00
        -11   -1    0    0    0    0  0.00000000000E+00  0.00000000000E+00  0.45593999997E+02  0.45594000000E+02  0.51100000000E-03 0.  1.
         11   -1    0    0    0    0 -0.00000000000E+00 -0.00000000000E+00 -0.45593999997E+02  0.45594000000E+02  0.51100000000E-03 0. -1.
         23    2    1    2    0    0  0.00000000000E+00  0.00000000000E+00  0.00000000000E+00  0.91188000000E+02  0.91188000000E+02 0.  0.
    9900012    2    3    3    0    0  0.23708843753E+02 -0.10229305557E+02  0.26249414295E+02  0.54367085901E+02  0.40000003927E+02 0.  0.
         12    1    3    3    0    0 -0.23708843753E+02  0.10229305557E+02 -0.26249414295E+02  0.36820914099E+02  0.00000000000E+00 0. -1.
         11    1    4    4    0    0  0.36613548224E+01 -0.91598247117E+01 -0.55719246954E+01  0.11329353598E+02  0.51100000000E-03 0. -1.
        -11    1    4    4    0    0  0.20443863056E+02 -0.80455326698E+01  0.23458734144E+02  0.32140229316E+02  0.51100000000E-03 0.  1.
         12    1    4    4    0    0 -0.39637412528E+00  0.69760518249E+01  0.83626048468E+01  0.10897502986E+02  0.00000000000E+00 0. -1.
</event>
<event>
 8    1  0.2432279E-006  0.9118800E+02  0.7816164E-02  0.1184000E+00
        -11   -1    0    0    0    0  0.00000000000E+00  0.00000000000E+00  0.45593999997E+02  0.45594000000E+02  0.51100000000E-03 0.  1.
         11   -1    0    0    0    0 -0.00000000000E+00 -0.00000000000E+00 -0.45593999997E+02  0.45594000000E+02  0.51100000000E-03 0. -1.
         23    2    1    2    0    0  0.00000000000E+00  0.44408920985E-15  0.00000000000E+00  0.91188000000E+02  0.91188000000E+02 0.  0.
    9900012    2    3    3    0    0  0.66809242389E+01  0.20108184322E+01 -0.36153843368E+02  0.54367101997E+02  0.40000040623E+02 0.  0.
        -12    1    3    3    0    0 -0.66809242389E+01 -0.20108184322E+01  0.36153843368E+02  0.36820898003E+02  0.00000000000E+00 0.  1.
         11    1    4    4    0    0 -0.53598398978E+01 -0.58044066586E+01 -0.25398227778E+02  0.26598665285E+02  0.51100000000E-03 0. -1.
        -11    1    4    4    0    0  0.97690949259E+01  0.14973977688E+02 -0.91658274355E+01  0.20091481188E+02  0.51100000000E-03 0.  1.
        -12    1    4    4    0    0  0.22716692108E+01 -0.71587525972E+01 -0.15897881545E+01  0.76769555247E+01  0.00000000000E+00 0.  1.
</event>
<event>
 8    1  0.2432279E-006  0.9118800E+02  0.7816164E-02  0.1184000E+00
        -11   -1    0    0    0    0  0.00000000000E+00  0.00000000000E+00  0.45593999997E+02  0.45594000000E+02  0.51100000000E-03 0. -1.
         11   -1    0    0    0    0 -0.00000000000E+00 -0.00000000000E+00 -0.45593999997E+02  0.45594000000E+02  0.51100000000E-03 0.  1.
         23    2    1    2    0    0  0.00000000000E+00 -0.35527136788E-14  0.00000000000E+00  0.91188000000E+02  0.91188000000E+02 0.  0.
    9900012    2    3    3    0    0 -0.62246890100E+01  0.31877353904E+02  0.17345501563E+02  0.54367097381E+02  0.40000030100E+02 0.  0.
        -12    1    3    3    0    0  0.62246890100E+01 -0.31877353904E+02 -0.17345501563E+02  0.36820902619E+02  0.00000000000E+00 0.  1.
         11    1    4    4    0    0  0.15913421941E+01 -0.17285661292E+01 -0.39954359907E+01  0.46350641699E+01  0.51100000000E-03 0. -1.
        -11    1    4    4    0    0  0.48338397668E+01 -0.31824950828E+01  0.11450263044E+01  0.58996073889E+01  0.51100000000E-03 0.  1.
         12    1    4    4    0    0 -0.12649870971E+02  0.36788415116E+02  0.20195911249E+02  0.43832425823E+02  0.00000000000E+00 0. -1.
</event>
<event>
 8    1  0.2432279E-006  0.9118800E+02  0.7816164E-02  0.1184000E+00
        -11   -1    0    0    0    0  0.00000000000E+00  0.00000000000E+00  0.45593999997E+02  0.45594000000E+02  0.51100000000E-03 0.  1.
         11   -1    0    0    0    0 -0.00000000000E+00 -0.00000000000E+00 -0.45593999997E+02  0.45594000000E+02  0.51100000000E-03 0. -1.
         23    2    1    2    0    0 -0.44408920985E-15 -0.35527136788E-14  0.00000000000E+00  0.91188000000E+02  0.91188000000E+02 0.  0.
    9900012    2    3    3    0    0 -0.37308274634E+01  0.22833821142E+02 -0.28643982808E+02  0.54367079145E+02  0.39999988527E+02 0.  0.
        -12    1    3    3    0    0  0.37308274634E+01 -0.22833821142E+02  0.28643982808E+02  0.36820920855E+02  0.00000000000E+00 0.  1.
         11    1    4    4    0    0 -0.12931490655E+02  0.13186762051E+02 -0.10431808801E+02  0.21211713252E+02  0.51100000000E-03 0. -1.
        -11    1    4    4    0    0  0.13172118382E+02  0.83275272795E+01 -0.22365509208E+02  0.27259281276E+02  0.51100000000E-03 0.  1.
        -12    1    4    4    0    0 -0.39714551903E+01  0.13195318107E+01  0.41533352003E+01  0.58960846173E+01  0.00000000000E+00 0.  1.
</event>
<event>
 8    1  0.2432279E-006  0.9118800E+02  0.7816164E-02  0.1184000E+00
        -11   -1    0    0    0    0  0.00000000000E+00  0.00000000000E+00  0.45593999997E+02  0.45594000000E+02  0.51100000000E-03 0.  1.
         11   -1    0    0    0    0 -0.00000000000E+00 -0.00000000000E+00 -0.45593999997E+02  0.45594000000E+02  0.51100000000E-03 0. -1.
         23    2    1    2    0    0  0.00000000000E+00  0.00000000000E+00  0.00000000000E+00  0.91188000000E+02  0.91188000000E+02 0.  0.
    9900012    2    3    3    0    0  0.21065069148E+02  0.22700913517E+02 -0.19917642836E+02  0.54367066975E+02  0.39999960782E+02 0.  0.
        -12    1    3    3    0    0 -0.21065069148E+02 -0.22700913517E+02  0.19917642836E+02  0.36820933025E+02  0.00000000000E+00 0.  1.
         11    1    4    4    0    0  0.15560036292E+01  0.62411517203E+00 -0.59106511008E+01  0.61438150801E+01  0.51100000000E-03 0. -1.
        -11    1    4    4    0    0 -0.44977794348E+01  0.97883028143E+01 -0.17983011267E+02  0.20962575851E+02  0.51100000000E-03 0.  1.
        -12    1    4    4    0    0  0.24006844954E+02  0.12288495530E+02  0.39760195317E+01  0.27260676043E+02  0.00000000000E+00 0.  1.
</event>
<event>
 8    1  0.2432279E-006  0.9118800E+02  0.7816164E-02  0.1184000E+00
        -11   -1    0    0    0    0  0.00000000000E+00  0.00000000000E+00  0.45593999997E+02  0.45594000000E+02  0.51100000000E-03 0.  1.
         11   -1    0    0    0    0 -0.00000000000E+00 -0.00000000000E+00 -0.45593999997E+02  0.45594000000E+02  0.51100000000E-03 0. -1.
         23    2    1    2    0    0  0.71054273576E-14  0.00000000000E+00 -0.88817841970E-15  0.91188000000E+02  0.91188000000E+02 0.  0.
    9900012    2    3    3    0    0 -0.31083584259E+02 -0.18686179446E+02  0.63574803984E+01  0.54367081086E+02  0.39999992951E+02 0.  0.
         12    1    3    3    0    0  0.31083584259E+02  0.18686179446E+02 -0.63574803984E+01  0.36820918914E+02  0.00000000000E+00 0. -1.
         11    1    4    4    0    0 -0.71590728448E+01 -0.15721711581E+02  0.53957197188E-01  0.17275052842E+02  0.51100000000E-03 0. -1.
        -11    1    4    4    0    0 -0.19829193935E+02 -0.11364151370E+02  0.12333768662E+02  0.25970420061E+02  0.51100000000E-03 0.  1.
         12    1    4    4    0    0 -0.40953174789E+01  0.83996835055E+01 -0.60302454607E+01  0.11121608182E+02  0.00000000000E+00 0. -1.
</event>
<event>
 8    1  0.2432279E-006  0.9118800E+02  0.7816164E-02  0.1184000E+00
        -11   -1    0    0    0    0  0.00000000000E+00  0.00000000000E+00  0.45593999997E+02  0.45594000000E+02  0.51100000000E-03 0. -1.
         11   -1    0    0    0    0 -0.00000000000E+00 -0.00000000000E+00 -0.45593999997E+02  0.45594000000E+02  0.51100000000E-03 0.  1.
         23    2    1    2    0    0  0.35527136788E-14  0.00000000000E+00  0.00000000000E+00  0.91188000000E+02  0.91188000000E+02 0.  0.
    9900012    2    3    3    0    0  0.25012727850E+02 -0.19844703840E+02 -0.18339322326E+02  0.54367087894E+02  0.40000008471E+02 0.  0.
         12    1    3    3    0    0 -0.25012727850E+02  0.19844703840E+02  0.18339322326E+02  0.36820912106E+02  0.00000000000E+00 0. -1.
         11    1    4    4    0    0  0.10119863692E+02 -0.19265751734E+02  0.40620689349E+01  0.22137778464E+02  0.51100000000E-03 0. -1.
        -11    1    4    4    0    0  0.93121351706E+01 -0.63629206800E+01 -0.36932075189E+01  0.11867704203E+02  0.51100000000E-03 0.  1.
        -12    1    4    4    0    0  0.55807289867E+01  0.57839685735E+01 -0.18708183742E+02  0.20361605227E+02  0.00000000000E+00 0.  1.
</event>
<event>
 8    1  0.2432279E-006  0.9118800E+02  0.7816164E-02  0.1184000E+00
        -11   -1    0    0    0    0  0.00000000000E+00  0.00000000000E+00  0.45593999997E+02  0.45594000000E+02  0.51100000000E-03 0.  1.
         11   -1    0    0    0    0 -0.00000000000E+00 -0.00000000000E+00 -0.45593999997E+02  0.45594000000E+02  0.51100000000E-03 0. -1.
         23    2    1    2    0    0  0.00000000000E+00  0.26645352591E-14  0.00000000000E+00  0.91188000000E+02  0.91188000000E+02 0.  0.
    9900012    2    3    3    0    0 -0.35587142190E+02 -0.47394636592E+01  0.81775724647E+01  0.54367083438E+02  0.39999998313E+02 0.  0.
         12    1    3    3    0    0  0.35587142190E+02  0.47394636592E+01 -0.81775724647E+01  0.36820916562E+02  0.00000000000E+00 0. -1.
         11    1    4    4    0    0 -0.38717780483E+02 -0.13968051494E+02  0.74160445429E+00  0.41167013075E+02  0.51100000000E-03 0. -1.
        -11    1    4    4    0    0 -0.20927989523E+00  0.49460797565E+01  0.15411521975E+01  0.51848484442E+01  0.51100000000E-03 0.  1.
         12    1    4    4    0    0  0.33399181880E+01  0.42825080781E+01  0.58948158130E+01  0.80152219190E+01  0.00000000000E+00 0. -1.
</event>
<event>
 8    1  0.2432279E-006  0.9118800E+02  0.7816164E-02  0.1184000E+00
        -11   -1    0    0    0    0  0.00000000000E+00  0.00000000000E+00  0.45593999997E+02  0.45594000000E+02  0.51100000000E-03 0. -1.
         11   -1    0    0    0    0 -0.00000000000E+00 -0.00000000000E+00 -0.45593999997E+02  0.45594000000E+02  0.51100000000E-03 0.  1.
         23    2    1    2    0    0  0.00000000000E+00 -0.17763568394E-14  0.44408920985E-15  0.91188000000E+02  0.91188000000E+02 0.  0.
    9900012    2    3    3    0    0 -0.35297193720E+02 -0.10130834262E+02 -0.26933559831E+01  0.54367084017E+02  0.39999999635E+02 0.  0.
        -12    1    3    3    0    0  0.35297193720E+02  0.10130834262E+02  0.26933559831E+01  0.36820915983E+02  0.00000000000E+00 0.  1.
         11    1    4    4    0    0 -0.12393251104E+02 -0.11012703291E+02  0.50529830405E+01  0.17332193876E+02  0.51100000000E-03 0. -1.
        -11    1    4    4    0    0  0.39537130905E+01  0.68083363862E+01  0.15074999854E+01  0.80160993018E+01  0.51100000000E-03 0.  1.
         12    1    4    4    0    0 -0.26857655706E+02 -0.59264673574E+01 -0.92538390090E+01  0.29018790840E+02  0.00000000000E+00 0. -1.
</event>
<event>
 8    1  0.2432279E-006  0.9118800E+02  0.7816164E-02  0.1184000E+00
        -11   -1    0    0    0    0  0.00000000000E+00  0.00000000000E+00  0.45593999997E+02  0.45594000000E+02  0.51100000000E-03 0.  1.
         11   -1    0    0    0    0 -0.00000000000E+00 -0.00000000000E+00 -0.45593999997E+02  0.45594000000E+02  0.51100000000E-03 0. -1.
         23    2    1    2    0    0  0.88817841970E-15 -0.17763568394E-14  0.71054273576E-14  0.91188000000E+02  0.91188000000E+02 0.  0.
    9900012    2    3    3    0    0 -0.60206433226E+01  0.12580102447E+02 -0.34077450428E+02  0.54367085410E+02  0.40000002809E+02 0.  0.
        -12    1    3    3    0    0  0.60206433226E+01 -0.12580102447E+02  0.34077450428E+02  0.36820914590E+02  0.00000000000E+00 0.  1.
         11    1    4    4    0    0 -0.84464782846E+00 -0.53891064426E+01 -0.88104978379E+01  0.10362469330E+02  0.51100000000E-03 0. -1.
        -11    1    4    4    0    0 -0.34930678707E+01  0.17204141912E+02  0.10842731888E+01  0.17588623331E+02  0.51100000000E-03 0.  1.
        -12    1    4    4    0    0 -0.16829276235E+01  0.76506697782E+00 -0.26351225779E+02  0.26415992749E+02  0.00000000000E+00 0.  1.
</event>
<event>
 8    1  0.2432279E-006  0.9118800E+02  0.7816164E-02  0.1184000E+00
        -11   -1    0    0    0    0  0.00000000000E+00  0.00000000000E+00  0.45593999997E+02  0.45594000000E+02  0.51100000000E-03 0.  1.
         11   -1    0    0    0    0 -0.00000000000E+00 -0.00000000000E+00 -0.45593999997E+02  0.45594000000E+02  0.51100000000E-03 0. -1.
         23    2    1    2    0    0  0.00000000000E+00  0.00000000000E+00  0.71054273576E-14  0.91188000000E+02  0.91188000000E+02 0.  0.
    9900012    2    3    3    0    0  0.62209895055E+01  0.12009243110E+02 -0.34247004853E+02  0.54367082413E+02  0.39999995978E+02 0.  0.
        -12    1    3    3    0    0 -0.62209895055E+01 -0.12009243110E+02  0.34247004853E+02  0.36820917587E+02  0.00000000000E+00 0.  1.
         11    1    4    4    0    0  0.86590568386E+01  0.10271206463E+02 -0.27426241435E+02  0.30539739146E+02  0.51100000000E-03 0. -1.
        -11    1    4    4    0    0  0.73806585891E-01 -0.42167704810E+01  0.72250998700E+01  0.83659230868E+01  0.51100000000E-03 0.  1.
        -12    1    4    4    0    0 -0.25118739190E+01  0.59548071277E+01 -0.14045863288E+02  0.15461420181E+02  0.00000000000E+00 0.  1.
</event>
<event>
 8    1  0.2432279E-006  0.9118800E+02  0.7816164E-02  0.1184000E+00
        -11   -1    0    0    0    0  0.00000000000E+00  0.00000000000E+00  0.45593999997E+02  0.45594000000E+02  0.51100000000E-03 0.  1.
         11   -1    0    0    0    0 -0.00000000000E+00 -0.00000000000E+00 -0.45593999997E+02  0.45594000000E+02  0.51100000000E-03 0. -1.
         23    2    1    2    0    0  0.00000000000E+00  0.00000000000E+00  0.00000000000E+00  0.91188000000E+02  0.91188000000E+02 0.  0.
    9900012    2    3    3    0    0 -0.30540968039E+02 -0.16562972836E+02  0.12194320923E+02  0.54367024175E+02  0.39999863211E+02 0.  0.
         12    1    3    3    0    0  0.30540968039E+02  0.16562972836E+02 -0.12194320923E+02  0.36820975825E+02  0.00000000000E+00 0. -1.
         11    1    4    4    0    0 -0.80789962567E+01  0.53109320715E+01 -0.34947504869E+01  0.10280537983E+02  0.51100000000E-03 0. -1.
        -11    1    4    4    0    0 -0.28683147831E+02 -0.17691589188E+02  0.12605807659E+02  0.35980851636E+02  0.51100000000E-03 0.  1.
         12    1    4    4    0    0  0.62211760481E+01 -0.41823157192E+01  0.30832637516E+01  0.81056345562E+01  0.00000000000E+00 0. -1.
</event>
<event>
 8    1  0.2432279E-006  0.9118800E+02  0.7816164E-02  0.1184000E+00
        -11   -1    0    0    0    0  0.00000000000E+00  0.00000000000E+00  0.45593999997E+02  0.45594000000E+02  0.51100000000E-03 0.  1.
         11   -1    0    0    0    0 -0.00000000000E+00 -0.00000000000E+00 -0.45593999997E+02  0.45594000000E+02  0.51100000000E-03 0. -1.
         23    2    1    2    0    0  0.00000000000E+00  0.35527136788E-14  0.00000000000E+00  0.91188000000E+02  0.91188000000E+02 0.  0.
    9900012    2    3    3    0    0 -0.10075946296E+02  0.29903666235E+02 -0.18974338083E+02  0.54367089450E+02  0.40000012018E+02 0.  0.
         12    1    3    3    0    0  0.10075946296E+02 -0.29903666235E+02  0.18974338083E+02  0.36820910550E+02  0.00000000000E+00 0. -1.
         11    1    4    4    0    0 -0.13815315567E+02  0.82680679330E+01 -0.12967085299E+02  0.20672909640E+02  0.51100000000E-03 0. -1.
        -11    1    4    4    0    0  0.48485924732E+01  0.24823049959E+02  0.16298386433E+01  0.25344605590E+02  0.51100000000E-03 0.  1.
        -12    1    4    4    0    0 -0.11092232015E+01 -0.31874516571E+01 -0.76370914271E+01  0.83495742193E+01  0.00000000000E+00 0.  1.
</event>
<event>
 8    1  0.2432279E-006  0.9118800E+02  0.7816164E-02  0.1184000E+00
        -11   -1    0    0    0    0  0.00000000000E+00  0.00000000000E+00  0.45593999997E+02  0.45594000000E+02  0.51100000000E-03 0.  1.
         11   -1    0    0    0    0 -0.00000000000E+00 -0.00000000000E+00 -0.45593999997E+02  0.45594000000E+02  0.51100000000E-03 0. -1.
         23    2    1    2    0    0  0.00000000000E+00  0.00000000000E+00  0.00000000000E+00  0.91188000000E+02  0.91188000000E+02 0.  0.
    9900012    2    3    3    0    0 -0.26150321255E+01  0.35212509229E+02  0.10441646534E+02  0.54366984512E+02  0.39999772792E+02 0.  0.
         12    1    3    3    0    0  0.26150321255E+01 -0.35212509229E+02 -0.10441646534E+02  0.36821015488E+02  0.00000000000E+00 0. -1.
         11    1    4    4    0    0  0.69661851591E+01  0.25077006442E+02  0.31285401869E+01  0.26213961007E+02  0.51100000000E-03 0. -1.
        -11    1    4    4    0    0 -0.64889540489E+01  0.13455453296E+02  0.13733085358E+02  0.20291707216E+02  0.51100000000E-03 0.  1.
        -12    1    4    4    0    0 -0.30922632357E+01 -0.33199505087E+01 -0.64199790101E+01  0.78613162886E+01  0.00000000000E+00 0.  1.
</event>
<event>
 8    1  0.2432279E-006  0.9118800E+02  0.7816164E-02  0.1184000E+00
        -11   -1    0    0    0    0  0.00000000000E+00  0.00000000000E+00  0.45593999997E+02  0.45594000000E+02  0.51100000000E-03 0. -1.
         11   -1    0    0    0    0 -0.00000000000E+00 -0.00000000000E+00 -0.45593999997E+02  0.45594000000E+02  0.51100000000E-03 0.  1.
         23    2    1    2    0    0 -0.11102230246E-15 -0.88817841970E-15  0.71054273576E-14  0.91188000000E+02  0.91188000000E+02 0.  0.
    9900012    2    3    3    0    0 -0.96175567052E+00  0.71977204070E+01 -0.36097717999E+02  0.54367117368E+02  0.40000075664E+02 0.  0.
         12    1    3    3    0    0  0.96175567052E+00 -0.71977204070E+01  0.36097717999E+02  0.36820882632E+02  0.00000000000E+00 0. -1.
         11    1    4    4    0    0  0.31690482222E+01 -0.43453610245E+01 -0.89557626361E+01  0.10446564685E+02  0.51100000000E-03 0. -1.
        -11    1    4    4    0    0  0.99717347926E+01  0.18828350813E+01 -0.24635658820E+02  0.26643878255E+02  0.51100000000E-03 0.  1.
        -12    1    4    4    0    0 -0.14102538685E+02  0.96602463502E+01 -0.25062965432E+01  0.17276674428E+02  0.00000000000E+00 0.  1.
</event>
<event>
 8    1  0.2432279E-006  0.9118800E+02  0.7816164E-02  0.1184000E+00
        -11   -1    0    0    0    0  0.00000000000E+00  0.00000000000E+00  0.45593999997E+02  0.45594000000E+02  0.51100000000E-03 0.  1.
         11   -1    0    0    0    0 -0.00000000000E+00 -0.00000000000E+00 -0.45593999997E+02  0.45594000000E+02  0.51100000000E-03 0. -1.
         23    2    1    2    0    0  0.00000000000E+00  0.00000000000E+00  0.35527136788E-14  0.91188000000E+02  0.91188000000E+02 0.  0.
    9900012    2    3    3    0    0  0.17535880463E+02  0.64839296705E+01 -0.31721153662E+02  0.54367081526E+02  0.39999993956E+02 0.  0.
        -12    1    3    3    0    0 -0.17535880463E+02 -0.64839296705E+01  0.31721153662E+02  0.36820918474E+02  0.00000000000E+00 0.  1.
         11    1    4    4    0    0 -0.16000240732E+01  0.12863498750E+02 -0.27350505526E+02  0.30266810699E+02  0.51100000000E-03 0. -1.
        -11    1    4    4    0    0  0.89102285978E+01  0.33630511284E+01 -0.97187110742E+00  0.95732345771E+01  0.51100000000E-03 0.  1.
         12    1    4    4    0    0  0.10225675939E+02 -0.97426202077E+01 -0.33987770284E+01  0.14527036250E+02  0.00000000000E+00 0. -1.
</event>
<event>
 8    1  0.2432279E-006  0.9118800E+02  0.7816164E-02  0.1184000E+00
        -11   -1    0    0    0    0  0.00000000000E+00  0.00000000000E+00  0.45593999997E+02  0.45594000000E+02  0.51100000000E-03 0.  1.
         11   -1    0    0    0    0 -0.00000000000E+00 -0.00000000000E+00 -0.45593999997E+02  0.45594000000E+02  0.51100000000E-03 0. -1.
         23    2    1    2    0    0 -0.17763568394E-14  0.88817841970E-15  0.71054273576E-14  0.91188000000E+02  0.91188000000E+02 0.  0.
    9900012    2    3    3    0    0  0.88339935932E+01  0.62529332602E+01  0.35194339796E+02  0.54367079712E+02  0.39999989820E+02 0.  0.
         12    1    3    3    0    0 -0.88339935932E+01 -0.62529332602E+01 -0.35194339796E+02  0.36820920288E+02  0.00000000000E+00 0. -1.
         11    1    4    4    0    0  0.22323931060E+02  0.26046305586E+01  0.12831627624E+02  0.25880352897E+02  0.51100000000E-03 0.  1.
        -11    1    4    4    0    0 -0.32948744585E+01 -0.37217655175E+01  0.77239371131E+01  0.91851478515E+01  0.51100000000E-03 0. -1.
         12    1    4    4    0    0 -0.10195063008E+02  0.73700682190E+01  0.14638775059E+02  0.19301578964E+02  0.00000000000E+00 0. -1.
</event>
<event>
 8    1  0.2432279E-006  0.9118800E+02  0.7816164E-02  0.1184000E+00
        -11   -1    0    0    0    0  0.00000000000E+00  0.00000000000E+00  0.45593999997E+02  0.45594000000E+02  0.51100000000E-03 0.  1.
         11   -1    0    0    0    0 -0.00000000000E+00 -0.00000000000E+00 -0.45593999997E+02  0.45594000000E+02  0.51100000000E-03 0. -1.
         23    2    1    2    0    0  0.17763568394E-14  0.00000000000E+00  0.00000000000E+00  0.91188000000E+02  0.91188000000E+02 0.  0.
    9900012    2    3    3    0    0  0.61951710440E+01 -0.26604508641E+02 -0.24690074350E+02  0.54367084806E+02  0.40000001432E+02 0.  0.
        -12    1    3    3    0    0 -0.61951710440E+01  0.26604508641E+02  0.24690074350E+02  0.36820915194E+02  0.00000000000E+00 0.  1.
         11    1    4    4    0    0 -0.56951168084E+01 -0.15575767093E+02 -0.17296084776E+02  0.23962333459E+02  0.51100000000E-03 0. -1.
        -11    1    4    4    0    0  0.25999702673E+01 -0.86539187022E+01  0.81318902410E+01  0.12156388997E+02  0.51100000000E-03 0.  1.
         12    1    4    4    0    0  0.92903175852E+01 -0.23748228463E+01 -0.15525879816E+02  0.18248362349E+02  0.00000000000E+00 0. -1.
</event>
<event>
 8    1  0.2432279E-006  0.9118800E+02  0.7816164E-02  0.1184000E+00
        -11   -1    0    0    0    0  0.00000000000E+00  0.00000000000E+00  0.45593999997E+02  0.45594000000E+02  0.51100000000E-03 0. -1.
         11   -1    0    0    0    0 -0.00000000000E+00 -0.00000000000E+00 -0.45593999997E+02  0.45594000000E+02  0.51100000000E-03 0.  1.
         23    2    1    2    0    0  0.00000000000E+00  0.00000000000E+00 -0.35527136788E-14  0.91188000000E+02  0.91188000000E+02 0.  0.
    9900012    2    3    3    0    0  0.19208961206E+02  0.49762864406E+01  0.31016636309E+02  0.54367090922E+02  0.40000015376E+02 0.  0.
        -12    1    3    3    0    0 -0.19208961206E+02 -0.49762864406E+01 -0.31016636309E+02  0.36820909078E+02  0.00000000000E+00 0.  1.
         11    1    4    4    0    0 -0.66140097274E+01  0.82967654182E+01  0.23562019508E+02  0.25840863079E+02  0.51100000000E-03 0. -1.
        -11    1    4    4    0    0  0.85976631728E+01 -0.45450987506E+01  0.20211745695E-01  0.97251294830E+01  0.51100000000E-03 0.  1.
         12    1    4    4    0    0  0.17225307761E+02  0.12246197731E+01  0.74344050550E+01  0.18801098361E+02  0.00000000000E+00 0. -1.
</event>
<event>
 8    1  0.2432279E-006  0.9118800E+02  0.7816164E-02  0.1184000E+00
        -11   -1    0    0    0    0  0.00000000000E+00  0.00000000000E+00  0.45593999997E+02  0.45594000000E+02  0.51100000000E-03 0.  1.
         11   -1    0    0    0    0 -0.00000000000E+00 -0.00000000000E+00 -0.45593999997E+02  0.45594000000E+02  0.51100000000E-03 0. -1.
         23    2    1    2    0    0  0.17763568394E-14  0.35527136788E-14  0.00000000000E+00  0.91188000000E+02  0.91188000000E+02 0.  0.
    9900012    2    3    3    0    0  0.13022067063E+02 -0.31472260977E+02  0.13989351653E+02  0.54367090163E+02  0.40000013644E+02 0.  0.
         12    1    3    3    0    0 -0.13022067063E+02  0.31472260977E+02 -0.13989351653E+02  0.36820909837E+02  0.00000000000E+00 0. -1.
         11    1    4    4    0    0 -0.34691502434E+01 -0.86282213716E+01  0.11910409096E+02  0.15110891852E+02  0.51100000000E-03 0. -1.
        -11    1    4    4    0    0 -0.71231208754E+01 -0.37711174513E+01 -0.27576585593E+01  0.85185009731E+01  0.51100000000E-03 0.  1.
         12    1    4    4    0    0  0.23614338182E+02 -0.19072922154E+02  0.48366011158E+01  0.30737697338E+02  0.00000000000E+00 0. -1.
</event>
<event>
 8    1  0.2432279E-006  0.9118800E+02  0.7816164E-02  0.1184000E+00
        -11   -1    0    0    0    0  0.00000000000E+00  0.00000000000E+00  0.45593999997E+02  0.45594000000E+02  0.51100000000E-03 0. -1.
         11   -1    0    0    0    0 -0.00000000000E+00 -0.00000000000E+00 -0.45593999997E+02  0.45594000000E+02  0.51100000000E-03 0.  1.
         23    2    1    2    0    0 -0.17763568394E-14  0.00000000000E+00  0.35527136788E-14  0.91188000000E+02  0.91188000000E+02 0.  0.
    9900012    2    3    3    0    0 -0.85889642596E+01 -0.18502595331E+02  0.30653957542E+02  0.54367062287E+02  0.39999950096E+02 0.  0.
        -12    1    3    3    0    0  0.85889642596E+01  0.18502595331E+02 -0.30653957542E+02  0.36820937713E+02  0.00000000000E+00 0.  1.
         11    1    4    4    0    0  0.16205448525E+01 -0.18324182619E+02  0.12693968158E+02  0.22350361566E+02  0.51100000000E-03 0. -1.
        -11    1    4    4    0    0 -0.16448946102E+01  0.88622076263E+01  0.17346174350E+02  0.19548252279E+02  0.51100000000E-03 0.  1.
        -12    1    4    4    0    0 -0.85646145019E+01 -0.90406203385E+01  0.61381503432E+00  0.12468448443E+02  0.00000000000E+00 0.  1.
</event>
<event>
 8    1  0.2432279E-006  0.9118800E+02  0.7816164E-02  0.1184000E+00
        -11   -1    0    0    0    0  0.00000000000E+00  0.00000000000E+00  0.45593999997E+02  0.45594000000E+02  0.51100000000E-03 0.  1.
         11   -1    0    0    0    0 -0.00000000000E+00 -0.00000000000E+00 -0.45593999997E+02  0.45594000000E+02  0.51100000000E-03 0. -1.
         23    2    1    2    0    0 -0.15543122345E-14  0.17763568394E-14 -0.71054273576E-14  0.91188000000E+02  0.91188000000E+02 0.  0.
    9900012    2    3    3    0    0 -0.17912696842E+01 -0.12703996847E+02  0.34513468768E+02  0.54367085979E+02  0.40000004106E+02 0.  0.
         12    1    3    3    0    0  0.17912696842E+01  0.12703996847E+02 -0.34513468768E+02  0.36820914021E+02  0.00000000000E+00 0. -1.
         11    1    4    4    0    0 -0.42576111558E+01 -0.80248618370E+01  0.51562036677E+00  0.90989848269E+01  0.51100000000E-03 0. -1.
        -11    1    4    4    0    0  0.99069960239E+01 -0.14503254296E+02  0.19785879044E+02  0.26457021095E+02  0.51100000000E-03 0.  1.
        -12    1    4    4    0    0 -0.74406545523E+01  0.98241192862E+01  0.14211969357E+02  0.18811080057E+02  0.00000000000E+00 0.  1.
</event>
<event>
 8    1  0.2432279E-006  0.9118800E+02  0.7816164E-02  0.1184000E+00
        -11   -1    0    0    0    0  0.00000000000E+00  0.00000000000E+00  0.45593999997E+02  0.45594000000E+02  0.51100000000E-03 0. -1.
         11   -1    0    0    0    0 -0.00000000000E+00 -0.00000000000E+00 -0.45593999997E+02  0.45594000000E+02  0.51100000000E-03 0.  1.
         23    2    1    2    0    0  0.00000000000E+00  0.00000000000E+00  0.35527136788E-14  0.91188000000E+02  0.91188000000E+02 0.  0.
    9900012    2    3    3    0    0  0.26271497939E+02  0.13364357041E+02 -0.22067718932E+02  0.54367056749E+02  0.39999937470E+02 0.  0.
         12    1    3    3    0    0 -0.26271497939E+02 -0.13364357041E+02  0.22067718932E+02  0.36820943251E+02  0.00000000000E+00 0. -1.
         11    1    4    4    0    0 -0.28586324017E+00 -0.37516090695E+01  0.76453809360E+01  0.85210409176E+01  0.51100000000E-03 0. -1.
        -11    1    4    4    0    0 -0.17759183581E+01  0.11744791292E+01 -0.61628791607E+00  0.22165509911E+01  0.51100000000E-03 0.  1.
        -12    1    4    4    0    0  0.28333279537E+02  0.15941486981E+02 -0.29096811952E+02  0.43629464840E+02  0.00000000000E+00 0.  1.
</event>
<event>
 8    1  0.2432279E-006  0.9118800E+02  0.7816164E-02  0.1184000E+00
        -11   -1    0    0    0    0  0.00000000000E+00  0.00000000000E+00  0.45593999997E+02  0.45594000000E+02  0.51100000000E-03 0.  1.
         11   -1    0    0    0    0 -0.00000000000E+00 -0.00000000000E+00 -0.45593999997E+02  0.45594000000E+02  0.51100000000E-03 0. -1.
         23    2    1    2    0    0  0.00000000000E+00  0.35527136788E-14  0.35527136788E-14  0.91188000000E+02  0.91188000000E+02 0.  0.
    9900012    2    3    3    0    0 -0.10749424281E+02  0.24940244676E+02  0.24863852707E+02  0.54367121435E+02  0.40000084935E+02 0.  0.
         12    1    3    3    0    0  0.10749424281E+02 -0.24940244676E+02 -0.24863852707E+02  0.36820878565E+02  0.00000000000E+00 0. -1.
         11    1    4    4    0    0  0.39460316277E+01 -0.49035679978E+01  0.27866008112E+01  0.68834067916E+01  0.51100000000E-03 0. -1.
        -11    1    4    4    0    0 -0.17278755640E+02  0.65108177342E+01  0.81095546576E+01  0.20167077653E+02  0.51100000000E-03 0.  1.
        -12    1    4    4    0    0  0.25832997319E+01  0.23332994939E+02  0.13967697238E+02  0.27316636991E+02  0.00000000000E+00 0.  1.
</event>
<event>
 8    1  0.2432279E-006  0.9118800E+02  0.7816164E-02  0.1184000E+00
        -11   -1    0    0    0    0  0.00000000000E+00  0.00000000000E+00  0.45593999997E+02  0.45594000000E+02  0.51100000000E-03 0.  1.
         11   -1    0    0    0    0 -0.00000000000E+00 -0.00000000000E+00 -0.45593999997E+02  0.45594000000E+02  0.51100000000E-03 0. -1.
         23    2    1    2    0    0 -0.17763568394E-14 -0.17763568394E-14  0.00000000000E+00  0.91188000000E+02  0.91188000000E+02 0.  0.
    9900012    2    3    3    0    0  0.12647324218E+02  0.70895407471E+01 -0.33846158236E+02  0.54367097985E+02  0.40000031477E+02 0.  0.
        -12    1    3    3    0    0 -0.12647324218E+02 -0.70895407471E+01  0.33846158236E+02  0.36820902015E+02  0.00000000000E+00 0.  1.
         11    1    4    4    0    0 -0.66799375686E+01 -0.90734629943E+00 -0.21995001958E+02  0.23004889798E+02  0.51100000000E-03 0. -1.
        -11    1    4    4    0    0 -0.27267443204E+01  0.32163187157E+00  0.26978317233E+01  0.38492697903E+01  0.51100000000E-03 0.  1.
         12    1    4    4    0    0  0.22054006107E+02  0.76752551750E+01 -0.14548988001E+02  0.27512938397E+02  0.00000000000E+00 0. -1.
</event>
<event>
 8    1  0.2432279E-006  0.9118800E+02  0.7816164E-02  0.1184000E+00
        -11   -1    0    0    0    0  0.00000000000E+00  0.00000000000E+00  0.45593999997E+02  0.45594000000E+02  0.51100000000E-03 0. -1.
         11   -1    0    0    0    0 -0.00000000000E+00 -0.00000000000E+00 -0.45593999997E+02  0.45594000000E+02  0.51100000000E-03 0.  1.
         23    2    1    2    0    0 -0.17763568394E-14  0.00000000000E+00  0.00000000000E+00  0.91188000000E+02  0.91188000000E+02 0.  0.
    9900012    2    3    3    0    0  0.12133256835E+02  0.10493543464E+01 -0.34748555468E+02  0.54367093261E+02  0.40000020707E+02 0.  0.
         12    1    3    3    0    0 -0.12133256835E+02 -0.10493543464E+01  0.34748555468E+02  0.36820906739E+02  0.00000000000E+00 0. -1.
         11    1    4    4    0    0  0.46658846325E+01 -0.68545831780E+00  0.65073556808E+01  0.80365422121E+01  0.51100000000E-03 0. -1.
        -11    1    4    4    0    0  0.74466037787E+00  0.69887254923E+01 -0.39517216114E+01  0.80630581693E+01  0.51100000000E-03 0.  1.
         12    1    4    4    0    0  0.67227118249E+01 -0.52539128282E+01 -0.37304189537E+02  0.38267492880E+02  0.00000000000E+00 0. -1.
</event>
<event>
 8    1  0.2432279E-006  0.9118800E+02  0.7816164E-02  0.1184000E+00
        -11   -1    0    0    0    0  0.00000000000E+00  0.00000000000E+00  0.45593999997E+02  0.45594000000E+02  0.51100000000E-03 0. -1.
         11   -1    0    0    0    0 -0.00000000000E+00 -0.00000000000E+00 -0.45593999997E+02  0.45594000000E+02  0.51100000000E-03 0.  1.
         23    2    1    2    0    0  0.35527136788E-14  0.00000000000E+00  0.35527136788E-14  0.91188000000E+02  0.91188000000E+02 0.  0.
    9900012    2    3    3    0    0  0.19615199553E+02 -0.52606259148E+01 -0.30713998281E+02  0.54367082997E+02  0.39999997309E+02 0.  0.
         12    1    3    3    0    0 -0.19615199553E+02  0.52606259148E+01  0.30713998281E+02  0.36820917003E+02  0.00000000000E+00 0. -1.
         11    1    4    4    0    0  0.24595268667E+00 -0.35479153901E+01 -0.53313609545E+01  0.64087133051E+01  0.51100000000E-03 0. -1.
        -11    1    4    4    0    0  0.12762493123E+02  0.68915577450E+01  0.52783268857E+01  0.15434880428E+02  0.51100000000E-03 0.  1.
        -12    1    4    4    0    0  0.66067537437E+01 -0.86042682697E+01 -0.30660964212E+02  0.32523489264E+02  0.00000000000E+00 0.  1.
</event>
<event>
 8    1  0.2432279E-006  0.9118800E+02  0.7816164E-02  0.1184000E+00
        -11   -1    0    0    0    0  0.00000000000E+00  0.00000000000E+00  0.45593999997E+02  0.45594000000E+02  0.51100000000E-03 0.  1.
         11   -1    0    0    0    0 -0.00000000000E+00 -0.00000000000E+00 -0.45593999997E+02  0.45594000000E+02  0.51100000000E-03 0. -1.
         23    2    1    2    0    0  0.00000000000E+00  0.00000000000E+00  0.00000000000E+00  0.91188000000E+02  0.91188000000E+02 0.  0.
    9900012    2    3    3    0    0  0.26823013461E+02  0.16086223705E+02  0.19430373414E+02  0.54367081282E+02  0.39999993399E+02 0.  0.
         12    1    3    3    0    0 -0.26823013461E+02 -0.16086223705E+02 -0.19430373414E+02  0.36820918718E+02  0.00000000000E+00 0. -1.
         11    1    4    4    0    0  0.46909056338E+01 -0.75361908075E+01  0.64410583786E+01  0.10967497474E+02  0.51100000000E-03 0. -1.
        -11    1    4    4    0    0  0.11338349745E+02  0.13214019029E+02  0.20277736280E+02  0.26727421551E+02  0.51100000000E-03 0.  1.
        -12    1    4    4    0    0  0.10793758082E+02  0.10408395484E+02 -0.72884212448E+01  0.16672162257E+02  0.00000000000E+00 0.  1.
</event>
<event>
 8    1  0.2432279E-006  0.9118800E+02  0.7816164E-02  0.1184000E+00
        -11   -1    0    0    0    0  0.00000000000E+00  0.00000000000E+00  0.45593999997E+02  0.45594000000E+02  0.51100000000E-03 0.  1.
         11   -1    0    0    0    0 -0.00000000000E+00 -0.00000000000E+00 -0.45593999997E+02  0.45594000000E+02  0.51100000000E-03 0. -1.
         23    2    1    2    0    0  0.35527136788E-14  0.35527136788E-14 -0.17763568394E-14  0.91188000000E+02  0.91188000000E+02 0.  0.
    9900012    2    3    3    0    0 -0.31035663273E+02 -0.17264702440E+02  0.97208874675E+01  0.54367109214E+02  0.40000057074E+02 0.  0.
         12    1    3    3    0    0  0.31035663273E+02  0.17264702440E+02 -0.97208874675E+01  0.36820890786E+02  0.00000000000E+00 0. -1.
         11    1    4    4    0    0  0.38328804721E-01 -0.40743532625E+01  0.70460299306E+01  0.81393096543E+01  0.51100000000E-03 0.  1.
        -11    1    4    4    0    0 -0.28759077204E+02 -0.14147584160E+02 -0.97910166144E+01  0.33512723939E+02  0.51100000000E-03 0. -1.
         12    1    4    4    0    0 -0.23149148738E+01  0.95723498234E+00  0.12465874151E+02  0.12715075621E+02  0.00000000000E+00 0. -1.
</event>
<event>
 8    1  0.2432279E-006  0.9118800E+02  0.7816164E-02  0.1184000E+00
        -11   -1    0    0    0    0  0.00000000000E+00  0.00000000000E+00  0.45593999997E+02  0.45594000000E+02  0.51100000000E-03 0. -1.
         11   -1    0    0    0    0 -0.00000000000E+00 -0.00000000000E+00 -0.45593999997E+02  0.45594000000E+02  0.51100000000E-03 0.  1.
         23    2    1    2    0    0  0.35527136788E-14 -0.14432899320E-14 -0.35527136788E-14  0.91188000000E+02  0.91188000000E+02 0.  0.
    9900012    2    3    3    0    0 -0.20031716037E+02  0.92922433471E+00 -0.30881163963E+02  0.54367090275E+02  0.40000013901E+02 0.  0.
         12    1    3    3    0    0  0.20031716037E+02 -0.92922433471E+00  0.30881163963E+02  0.36820909725E+02  0.00000000000E+00 0. -1.
         11    1    4    4    0    0  0.88398106134E-01  0.34495147105E-01  0.79004099671E+00  0.79571928338E+00  0.51100000000E-03 0. -1.
        -11    1    4    4    0    0 -0.16905610809E+02  0.18635943481E+02 -0.19150684970E+02  0.31620354225E+02  0.51100000000E-03 0.  1.
        -12    1    4    4    0    0 -0.32145033350E+01 -0.17741214293E+02 -0.12520519989E+02  0.21951016767E+02  0.00000000000E+00 0.  1.
</event>
<event>
 8    1  0.2432279E-006  0.9118800E+02  0.7816164E-02  0.1184000E+00
        -11   -1    0    0    0    0  0.00000000000E+00  0.00000000000E+00  0.45593999997E+02  0.45594000000E+02  0.51100000000E-03 0. -1.
         11   -1    0    0    0    0 -0.00000000000E+00 -0.00000000000E+00 -0.45593999997E+02  0.45594000000E+02  0.51100000000E-03 0.  1.
         23    2    1    2    0    0  0.00000000000E+00 -0.35527136788E-14  0.35527136788E-14  0.91188000000E+02  0.91188000000E+02 0.  0.
    9900012    2    3    3    0    0  0.16819484749E+02  0.22683045396E+02 -0.23629732100E+02  0.54367084004E+02  0.39999999604E+02 0.  0.
         12    1    3    3    0    0 -0.16819484749E+02 -0.22683045396E+02  0.23629732100E+02  0.36820915996E+02  0.00000000000E+00 0. -1.
         11    1    4    4    0    0  0.14935405618E+02  0.64948694543E+01  0.50032696532E+01  0.17037675243E+02  0.51100000000E-03 0. -1.
        -11    1    4    4    0    0  0.92840273939E+01  0.98547490226E+01 -0.12191120847E+02  0.18219019478E+02  0.51100000000E-03 0.  1.
        -12    1    4    4    0    0 -0.73999482634E+01  0.63334269193E+01 -0.16441880906E+02  0.19110389283E+02  0.00000000000E+00 0.  1.
</event>
<event>
 8    1  0.2432279E-006  0.9118800E+02  0.7816164E-02  0.1184000E+00
        -11   -1    0    0    0    0  0.00000000000E+00  0.00000000000E+00  0.45593999997E+02  0.45594000000E+02  0.51100000000E-03 0. -1.
         11   -1    0    0    0    0 -0.00000000000E+00 -0.00000000000E+00 -0.45593999997E+02  0.45594000000E+02  0.51100000000E-03 0.  1.
         23    2    1    2    0    0 -0.44408920985E-15 -0.71054273576E-14 -0.88817841970E-15  0.91188000000E+02  0.91188000000E+02 0.  0.
    9900012    2    3    3    0    0 -0.37663794708E+01 -0.36562666506E+02 -0.21829643924E+01  0.54367088415E+02  0.40000009661E+02 0.  0.
         12    1    3    3    0    0  0.37663794708E+01  0.36562666506E+02  0.21829643924E+01  0.36820911585E+02  0.00000000000E+00 0. -1.
         11    1    4    4    0    0  0.68174540773E+01  0.11310065767E+01 -0.19249153715E+01  0.71737128058E+01  0.51100000000E-03 0.  1.
        -11    1    4    4    0    0 -0.12439479771E+02 -0.69563082306E+01  0.65040575735E+01  0.15666322043E+02  0.51100000000E-03 0. -1.
         12    1    4    4    0    0  0.18556462234E+01 -0.30737364853E+02 -0.67621065944E+01  0.31527053566E+02  0.00000000000E+00 0. -1.
</event>
<event>
 8    1  0.2432279E-006  0.9118800E+02  0.7816164E-02  0.1184000E+00
        -11   -1    0    0    0    0  0.00000000000E+00  0.00000000000E+00  0.45593999997E+02  0.45594000000E+02  0.51100000000E-03 0.  1.
         11   -1    0    0    0    0 -0.00000000000E+00 -0.00000000000E+00 -0.45593999997E+02  0.45594000000E+02  0.51100000000E-03 0. -1.
         23    2    1    2    0    0  0.17763568394E-14 -0.35527136788E-14 -0.35527136788E-14  0.91188000000E+02  0.91188000000E+02 0.  0.
    9900012    2    3    3    0    0 -0.86509425995E+01  0.20962219177E+02  0.29009095392E+02  0.54367067691E+02  0.39999962414E+02 0.  0.
         12    1    3    3    0    0  0.86509425995E+01 -0.20962219177E+02 -0.29009095392E+02  0.36820932309E+02  0.00000000000E+00 0. -1.
         11    1    4    4    0    0 -0.51993262054E+01  0.11397207021E+02  0.14434685479E+02  0.19112547345E+02  0.51100000000E-03 0. -1.
        -11    1    4    4    0    0 -0.16379164145E+02  0.87157445591E+01  0.11852003199E+02  0.22016157735E+02  0.51100000000E-03 0.  1.
         12    1    4    4    0    0  0.12927547751E+02  0.84926759669E+00  0.27224067140E+01  0.13238362611E+02  0.00000000000E+00 0. -1.
</event>
<event>
 8    1  0.2432279E-006  0.9118800E+02  0.7816164E-02  0.1184000E+00
        -11   -1    0    0    0    0  0.00000000000E+00  0.00000000000E+00  0.45593999997E+02  0.45594000000E+02  0.51100000000E-03 0.  1.
         11   -1    0    0    0    0 -0.00000000000E+00 -0.00000000000E+00 -0.45593999997E+02  0.45594000000E+02  0.51100000000E-03 0. -1.
         23    2    1    2    0    0  0.00000000000E+00  0.00000000000E+00  0.00000000000E+00  0.91188000000E+02  0.91188000000E+02 0.  0.
    9900012    2    3    3    0    0  0.19030838063E+02 -0.13473914858E+02  0.28496677013E+02  0.54367085022E+02  0.40000001925E+02 0.  0.
         12    1    3    3    0    0 -0.19030838063E+02  0.13473914858E+02 -0.28496677013E+02  0.36820914978E+02  0.00000000000E+00 0. -1.
         11    1    4    4    0    0  0.43770562788E+01 -0.12104445920E+02  0.82605298765E+01  0.15294201084E+02  0.51100000000E-03 0. -1.
        -11    1    4    4    0    0  0.20500432619E+02 -0.87219468033E+01  0.19573638105E+02  0.29655815661E+02  0.51100000000E-03 0.  1.
        -12    1    4    4    0    0 -0.58466508342E+01  0.73524778646E+01  0.66250903190E+00  0.94170682775E+01  0.00000000000E+00 0.  1.
</event>
<event>
 8    1  0.2432279E-006  0.9118800E+02  0.7816164E-02  0.1184000E+00
        -11   -1    0    0    0    0  0.00000000000E+00  0.00000000000E+00  0.45593999997E+02  0.45594000000E+02  0.51100000000E-03 0.  1.
         11   -1    0    0    0    0 -0.00000000000E+00 -0.00000000000E+00 -0.45593999997E+02  0.45594000000E+02  0.51100000000E-03 0. -1.
         23    2    1    2    0    0  0.35527136788E-14 -0.88817841970E-15  0.35527136788E-14  0.91188000000E+02  0.91188000000E+02 0.  0.
    9900012    2    3    3    0    0  0.21801325949E+02 -0.56889440616E+01 -0.29122470487E+02  0.54367079520E+02  0.39999989382E+02 0.  0.
        -12    1    3    3    0    0 -0.21801325949E+02  0.56889440616E+01  0.29122470487E+02  0.36820920480E+02  0.00000000000E+00 0.  1.
         11    1    4    4    0    0 -0.27333763304E+01 -0.74243052124E+01 -0.11050139352E+02  0.13590336052E+02  0.51100000000E-03 0. -1.
        -11    1    4    4    0    0  0.36416964774E+01 -0.52724529237E+00 -0.19374925445E+02  0.19721249380E+02  0.51100000000E-03 0.  1.
        -12    1    4    4    0    0  0.20893005802E+02  0.22626064432E+01  0.13025943098E+01  0.21055494088E+02  0.00000000000E+00 0.  1.
</event>
<event>
 8    1  0.2432279E-006  0.9118800E+02  0.7816164E-02  0.1184000E+00
        -11   -1    0    0    0    0  0.00000000000E+00  0.00000000000E+00  0.45593999997E+02  0.45594000000E+02  0.51100000000E-03 0. -1.
         11   -1    0    0    0    0 -0.00000000000E+00 -0.00000000000E+00 -0.45593999997E+02  0.45594000000E+02  0.51100000000E-03 0.  1.
         23    2    1    2    0    0  0.00000000000E+00  0.00000000000E+00 -0.71054273576E-14  0.91188000000E+02  0.91188000000E+02 0.  0.
    9900012    2    3    3    0    0  0.12792737556E+02  0.72618567744E+01  0.33754865172E+02  0.54367087182E+02  0.40000006848E+02 0.  0.
        -12    1    3    3    0    0 -0.12792737556E+02 -0.72618567744E+01 -0.33754865172E+02  0.36820912818E+02  0.00000000000E+00 0.  1.
         11    1    4    4    0    0 -0.15027697245E+01  0.95469639282E+01  0.85094017021E+01  0.12876830149E+02  0.51100000000E-03 0.  1.
        -11    1    4    4    0    0  0.20567570949E+02  0.52918130148E+01  0.23183321911E+02  0.31440335157E+02  0.51100000000E-03 0. -1.
        -12    1    4    4    0    0 -0.62720636681E+01 -0.75769201686E+01  0.20621415590E+01  0.10049921876E+02  0.00000000000E+00 0.  1.
</event>
<event>
 8    1  0.2432279E-006  0.9118800E+02  0.7816164E-02  0.1184000E+00
        -11   -1    0    0    0    0  0.00000000000E+00  0.00000000000E+00  0.45593999997E+02  0.45594000000E+02  0.51100000000E-03 0. -1.
         11   -1    0    0    0    0 -0.00000000000E+00 -0.00000000000E+00 -0.45593999997E+02  0.45594000000E+02  0.51100000000E-03 0.  1.
         23    2    1    2    0    0  0.00000000000E+00  0.00000000000E+00  0.00000000000E+00  0.91188000000E+02  0.91188000000E+02 0.  0.
    9900012    2    3    3    0    0  0.54929687040E+01  0.35055727580E+02  0.98337501572E+01  0.54367090403E+02  0.40000014193E+02 0.  0.
        -12    1    3    3    0    0 -0.54929687040E+01 -0.35055727580E+02 -0.98337501572E+01  0.36820909597E+02  0.00000000000E+00 0.  1.
         11    1    4    4    0    0  0.10692632896E+02  0.17482075494E+02 -0.23818570383E+00  0.20494196605E+02  0.51100000000E-03 0.  1.
        -11    1    4    4    0    0 -0.36274171375E+01 -0.64841102035E+01  0.57144350932E+01  0.93731856333E+01  0.51100000000E-03 0. -1.
         12    1    4    4    0    0 -0.15722470544E+01  0.24057762290E+02  0.43575007679E+01  0.24499708165E+02  0.00000000000E+00 0. -1.
</event>
<event>
 8    1  0.2432279E-006  0.9118800E+02  0.7816164E-02  0.1184000E+00
        -11   -1    0    0    0    0  0.00000000000E+00  0.00000000000E+00  0.45593999997E+02  0.45594000000E+02  0.51100000000E-03 0.  1.
         11   -1    0    0    0    0 -0.00000000000E+00 -0.00000000000E+00 -0.45593999997E+02  0.45594000000E+02  0.51100000000E-03 0. -1.
         23    2    1    2    0    0  0.00000000000E+00  0.00000000000E+00  0.17763568394E-14  0.91188000000E+02  0.91188000000E+02 0.  0.
    9900012    2    3    3    0    0  0.65918182324E+01  0.33155346823E+02 -0.14596260686E+02  0.54367083165E+02  0.39999997692E+02 0.  0.
        -12    1    3    3    0    0 -0.65918182324E+01 -0.33155346823E+02  0.14596260686E+02  0.36820916835E+02  0.00000000000E+00 0.  1.
         11    1    4    4    0    0 -0.66462953559E+01  0.26856092542E+02 -0.14969060731E+02  0.31456251016E+02  0.51100000000E-03 0. -1.
        -11    1    4    4    0    0  0.12540081644E+02  0.11177294754E+02 -0.28280647036E+01  0.17034773726E+02  0.51100000000E-03 0.  1.
         12    1    4    4    0    0  0.69803194390E+00 -0.48780404732E+01  0.32008647488E+01  0.58760584232E+01  0.00000000000E+00 0. -1.
</event>
<event>
 8    1  0.2432279E-006  0.9118800E+02  0.7816164E-02  0.1184000E+00
        -11   -1    0    0    0    0  0.00000000000E+00  0.00000000000E+00  0.45593999997E+02  0.45594000000E+02  0.51100000000E-03 0.  1.
         11   -1    0    0    0    0 -0.00000000000E+00 -0.00000000000E+00 -0.45593999997E+02  0.45594000000E+02  0.51100000000E-03 0. -1.
         23    2    1    2    0    0  0.71054273576E-14  0.17763568394E-14 -0.44408920985E-15  0.91188000000E+02  0.91188000000E+02 0.  0.
    9900012    2    3    3    0    0 -0.35173741870E+02 -0.10600694247E+02  0.24928278512E+01  0.54367068095E+02  0.39999963337E+02 0.  0.
         12    1    3    3    0    0  0.35173741870E+02  0.10600694247E+02 -0.24928278512E+01  0.36820931905E+02  0.00000000000E+00 0. -1.
         11    1    4    4    0    0 -0.18238984272E+02 -0.11402240369E+02  0.29590259417E+01  0.21712380512E+02  0.51100000000E-03 0. -1.
        -11    1    4    4    0    0 -0.19396953590E+01  0.85538207441E+01  0.95978085737E+01  0.13001853602E+02  0.51100000000E-03 0.  1.
         12    1    4    4    0    0 -0.14995062238E+02 -0.77522746216E+01 -0.10064006664E+02  0.19652833981E+02  0.00000000000E+00 0. -1.
</event>
<event>
 8    1  0.2432279E-006  0.9118800E+02  0.7816164E-02  0.1184000E+00
        -11   -1    0    0    0    0  0.00000000000E+00  0.00000000000E+00  0.45593999997E+02  0.45594000000E+02  0.51100000000E-03 0.  1.
         11   -1    0    0    0    0 -0.00000000000E+00 -0.00000000000E+00 -0.45593999997E+02  0.45594000000E+02  0.51100000000E-03 0. -1.
         23    2    1    2    0    0  0.00000000000E+00  0.00000000000E+00 -0.35527136788E-14  0.91188000000E+02  0.91188000000E+02 0.  0.
    9900012    2    3    3    0    0  0.28285433959E+02 -0.18598673185E+02  0.14484605023E+02  0.54367079300E+02  0.39999988881E+02 0.  0.
         12    1    3    3    0    0 -0.28285433959E+02  0.18598673185E+02 -0.14484605023E+02  0.36820920700E+02  0.00000000000E+00 0. -1.
         11    1    4    4    0    0 -0.46527408338E+01 -0.93264688563E+00 -0.49058698801E+01  0.68253488571E+01  0.51100000000E-03 0. -1.
        -11    1    4    4    0    0  0.21358154768E+02 -0.17000394887E+02  0.30003050539E+01  0.27462447671E+02  0.51100000000E-03 0.  1.
         12    1    4    4    0    0  0.11580020025E+02 -0.66563141231E+00  0.16390169849E+02  0.20079282772E+02  0.00000000000E+00 0. -1.
</event>
<event>
 8    1  0.2432279E-006  0.9118800E+02  0.7816164E-02  0.1184000E+00
        -11   -1    0    0    0    0  0.00000000000E+00  0.00000000000E+00  0.45593999997E+02  0.45594000000E+02  0.51100000000E-03 0.  1.
         11   -1    0    0    0    0 -0.00000000000E+00 -0.00000000000E+00 -0.45593999997E+02  0.45594000000E+02  0.51100000000E-03 0. -1.
         23    2    1    2    0    0  0.00000000000E+00  0.00000000000E+00  0.00000000000E+00  0.91188000000E+02  0.91188000000E+02 0.  0.
    9900012    2    3    3    0    0  0.26640951454E+02 -0.20503892202E+02  0.15020998003E+02  0.54367078355E+02  0.39999986726E+02 0.  0.
         12    1    3    3    0    0 -0.26640951454E+02  0.20503892202E+02 -0.15020998003E+02  0.36820921645E+02  0.00000000000E+00 0. -1.
         11    1    4    4    0    0  0.57413497406E+01  0.73531646409E+01 -0.35313939283E+00  0.93357824939E+01  0.51100000000E-03 0. -1.
        -11    1    4    4    0    0 -0.11065380418E+01 -0.96903359748E+01 -0.39980959847E+01  0.10540958662E+02  0.51100000000E-03 0.  1.
        -12    1    4    4    0    0  0.22006139755E+02 -0.18166720868E+02  0.19372233380E+02  0.34490337200E+02  0.00000000000E+00 0.  1.
</event>
<event>
 8    1  0.2432279E-006  0.9118800E+02  0.7816164E-02  0.1184000E+00
        -11   -1    0    0    0    0  0.00000000000E+00  0.00000000000E+00  0.45593999997E+02  0.45594000000E+02  0.51100000000E-03 0. -1.
         11   -1    0    0    0    0 -0.00000000000E+00 -0.00000000000E+00 -0.45593999997E+02  0.45594000000E+02  0.51100000000E-03 0.  1.
         23    2    1    2    0    0  0.17763568394E-14  0.00000000000E+00 -0.11102230246E-14  0.91188000000E+02  0.91188000000E+02 0.  0.
    9900012    2    3    3    0    0 -0.15926197181E+02 -0.33182405725E+02 -0.10303710320E+01  0.54367116376E+02  0.40000073403E+02 0.  0.
         12    1    3    3    0    0  0.15926197181E+02  0.33182405725E+02  0.10303710320E+01  0.36820883624E+02  0.00000000000E+00 0. -1.
         11    1    4    4    0    0 -0.86650876853E+01  0.48884100396E+01  0.83937431855E+01  0.13016728553E+02  0.51100000000E-03 0. -1.
        -11    1    4    4    0    0 -0.43271298929E+01 -0.91472418489E+01  0.16265042412E+01  0.10248980577E+02  0.51100000000E-03 0.  1.
        -12    1    4    4    0    0 -0.29339796030E+01 -0.28923573916E+02 -0.11050618459E+02  0.31101407246E+02  0.00000000000E+00 0.  1.
</event>
<event>
 8    1  0.2432279E-006  0.9118800E+02  0.7816164E-02  0.1184000E+00
        -11   -1    0    0    0    0  0.00000000000E+00  0.00000000000E+00  0.45593999997E+02  0.45594000000E+02  0.51100000000E-03 0. -1.
         11   -1    0    0    0    0 -0.00000000000E+00 -0.00000000000E+00 -0.45593999997E+02  0.45594000000E+02  0.51100000000E-03 0.  1.
         23    2    1    2    0    0  0.00000000000E+00 -0.35527136788E-14  0.00000000000E+00  0.91188000000E+02  0.91188000000E+02 0.  0.
    9900012    2    3    3    0    0  0.20067908024E+02  0.21873105404E+02  0.21785846122E+02  0.54367125979E+02  0.40000095294E+02 0.  0.
        -12    1    3    3    0    0 -0.20067908024E+02 -0.21873105404E+02 -0.21785846122E+02  0.36820874021E+02  0.00000000000E+00 0.  1.
         11    1    4    4    0    0  0.11068700940E+02  0.18934611842E+02  0.45557949311E+00  0.21937256416E+02  0.51100000000E-03 0. -1.
        -11    1    4    4    0    0 -0.26319947726E+01  0.18289422325E+01 -0.36468052526E+01  0.48550607601E+01  0.51100000000E-03 0.  1.
        -12    1    4    4    0    0  0.11631201856E+02  0.11095513292E+01  0.24977071881E+02  0.27574808803E+02  0.00000000000E+00 0.  1.
</event>
<event>
 8    1  0.2432279E-006  0.9118800E+02  0.7816164E-02  0.1184000E+00
        -11   -1    0    0    0    0  0.00000000000E+00  0.00000000000E+00  0.45593999997E+02  0.45594000000E+02  0.51100000000E-03 0. -1.
         11   -1    0    0    0    0 -0.00000000000E+00 -0.00000000000E+00 -0.45593999997E+02  0.45594000000E+02  0.51100000000E-03 0.  1.
         23    2    1    2    0    0  0.00000000000E+00  0.00000000000E+00 -0.44408920985E-15  0.91188000000E+02  0.91188000000E+02 0.  0.
    9900012    2    3    3    0    0 -0.29546407468E+02 -0.21646206516E+02 -0.37724378636E+01  0.54367085587E+02  0.40000003212E+02 0.  0.
        -12    1    3    3    0    0  0.29546407468E+02  0.21646206516E+02  0.37724378636E+01  0.36820914413E+02  0.00000000000E+00 0.  1.
         11    1    4    4    0    0 -0.26030716440E+02 -0.26109012349E+02  0.41215124753E+01  0.37098053717E+02  0.51100000000E-03 0. -1.
        -11    1    4    4    0    0 -0.47491982144E+01 -0.30404437547E+01 -0.78493178002E+01  0.96649351831E+01  0.51100000000E-03 0.  1.
         12    1    4    4    0    0  0.12335071870E+01  0.75032495877E+01 -0.44632538697E-01  0.76040966866E+01  0.00000000000E+00 0. -1.
</event>
<event>
 8    1  0.2432279E-006  0.9118800E+02  0.7816164E-02  0.1184000E+00
        -11   -1    0    0    0    0  0.00000000000E+00  0.00000000000E+00  0.45593999997E+02  0.45594000000E+02  0.51100000000E-03 0. -1.
         11   -1    0    0    0    0 -0.00000000000E+00 -0.00000000000E+00 -0.45593999997E+02  0.45594000000E+02  0.51100000000E-03 0.  1.
         23    2    1    2    0    0  0.00000000000E+00  0.17763568394E-14  0.00000000000E+00  0.91188000000E+02  0.91188000000E+02 0.  0.
    9900012    2    3    3    0    0 -0.14632779228E+02 -0.92633199840E+01 -0.32493883866E+02  0.54367084561E+02  0.40000000873E+02 0.  0.
         12    1    3    3    0    0  0.14632779228E+02  0.92633199840E+01  0.32493883866E+02  0.36820915439E+02  0.00000000000E+00 0. -1.
         11    1    4    4    0    0 -0.61007626471E+01  0.37872286656E+01  0.27896767035E+01  0.77035512728E+01  0.51100000000E-03 0. -1.
        -11    1    4    4    0    0 -0.82248871822E+01 -0.54200805064E+01 -0.37451441428E+02  0.38725140506E+02  0.51100000000E-03 0.  1.
         12    1    4    4    0    0 -0.30712939911E+00 -0.76304681432E+01  0.21678808586E+01  0.79383927825E+01  0.00000000000E+00 0. -1.
</event>
<event>
 8    1  0.2432279E-006  0.9118800E+02  0.7816164E-02  0.1184000E+00
        -11   -1    0    0    0    0  0.00000000000E+00  0.00000000000E+00  0.45593999997E+02  0.45594000000E+02  0.51100000000E-03 0.  1.
         11   -1    0    0    0    0 -0.00000000000E+00 -0.00000000000E+00 -0.45593999997E+02  0.45594000000E+02  0.51100000000E-03 0. -1.
         23    2    1    2    0    0  0.00000000000E+00  0.71054273576E-14  0.17763568394E-14  0.91188000000E+02  0.91188000000E+02 0.  0.
    9900012    2    3    3    0    0  0.94052094949E+01 -0.33827125467E+02 -0.11092860030E+02  0.54367028711E+02  0.39999873553E+02 0.  0.
        -12    1    3    3    0    0 -0.94052094949E+01  0.33827125467E+02  0.11092860030E+02  0.36820971289E+02  0.00000000000E+00 0.  1.
         11    1    4    4    0    0  0.90635360995E+01 -0.12726439469E+02 -0.11024663474E+02  0.19122059334E+02  0.51100000000E-03 0. -1.
        -11    1    4    4    0    0 -0.10647939088E+02  0.82080080457E+00 -0.82551540594E+00  0.10711386313E+02  0.51100000000E-03 0.  1.
        -12    1    4    4    0    0  0.10989612484E+02 -0.21921486802E+02  0.75731884955E+00  0.24533583065E+02  0.00000000000E+00 0.  1.
</event>
<event>
 8    1  0.2432279E-006  0.9118800E+02  0.7816164E-02  0.1184000E+00
        -11   -1    0    0    0    0  0.00000000000E+00  0.00000000000E+00  0.45593999997E+02  0.45594000000E+02  0.51100000000E-03 0. -1.
         11   -1    0    0    0    0 -0.00000000000E+00 -0.00000000000E+00 -0.45593999997E+02  0.45594000000E+02  0.51100000000E-03 0.  1.
         23    2    1    2    0    0  0.71054273576E-14  0.00000000000E+00  0.00000000000E+00  0.91188000000E+02  0.91188000000E+02 0.  0.
    9900012    2    3    3    0    0  0.28448882689E+02  0.85551363093E+01 -0.21754388182E+02  0.54367045521E+02  0.39999911875E+02 0.  0.
         12    1    3    3    0    0 -0.28448882689E+02 -0.85551363093E+01  0.21754388182E+02  0.36820954479E+02  0.00000000000E+00 0. -1.
         11    1    4    4    0    0  0.18536434038E+02 -0.78790966089E+01 -0.34768523801E+01  0.20439375063E+02  0.51100000000E-03 0. -1.
        -11    1    4    4    0    0  0.65854705845E+01  0.13952352366E+02 -0.25207957046E+00  0.15430492661E+02  0.51100000000E-03 0.  1.
        -12    1    4    4    0    0  0.33269780664E+01  0.24818805518E+01 -0.18025456232E+02  0.18497177798E+02  0.00000000000E+00 0.  1.
</event>
<event>
 8    1  0.2432279E-006  0.9118800E+02  0.7816164E-02  0.1184000E+00
        -11   -1    0    0    0    0  0.00000000000E+00  0.00000000000E+00  0.45593999997E+02  0.45594000000E+02  0.51100000000E-03 0. -1.
         11   -1    0    0    0    0 -0.00000000000E+00 -0.00000000000E+00 -0.45593999997E+02  0.45594000000E+02  0.51100000000E-03 0.  1.
         23    2    1    2    0    0 -0.71054273576E-14  0.55511151231E-15  0.00000000000E+00  0.91188000000E+02  0.91188000000E+02 0.  0.
    9900012    2    3    3    0    0 -0.35005909923E+02 -0.57530526089E+00  0.11403283674E+02  0.54367087678E+02  0.40000007980E+02 0.  0.
        -12    1    3    3    0    0  0.35005909923E+02  0.57530526089E+00 -0.11403283674E+02  0.36820912322E+02  0.00000000000E+00 0.  1.
         11    1    4    4    0    0 -0.89547328399E+01 -0.13130473195E+02  0.81667678513E+01  0.17868762239E+02  0.51100000000E-03 0. -1.
        -11    1    4    4    0    0 -0.24753863975E+02  0.12540853769E+02  0.10087183992E+02  0.29525888235E+02  0.51100000000E-03 0.  1.
        -12    1    4    4    0    0 -0.12973131084E+01  0.14314165277E-01 -0.68506681693E+01  0.69724372039E+01  0.00000000000E+00 0.  1.
</event>
<event>
 8    1  0.2432279E-006  0.9118800E+02  0.7816164E-02  0.1184000E+00
        -11   -1    0    0    0    0  0.00000000000E+00  0.00000000000E+00  0.45593999997E+02  0.45594000000E+02  0.51100000000E-03 0. -1.
         11   -1    0    0    0    0 -0.00000000000E+00 -0.00000000000E+00 -0.45593999997E+02  0.45594000000E+02  0.51100000000E-03 0.  1.
         23    2    1    2    0    0 -0.17763568394E-14  0.00000000000E+00  0.00000000000E+00  0.91188000000E+02  0.91188000000E+02 0.  0.
    9900012    2    3    3    0    0 -0.13346236323E+02  0.33671278415E+02  0.66259682440E+01  0.54367075660E+02  0.39999980582E+02 0.  0.
        -12    1    3    3    0    0  0.13346236323E+02 -0.33671278415E+02 -0.66259682440E+01  0.36820924340E+02  0.00000000000E+00 0.  1.
         11    1    4    4    0    0  0.22407518998E+01  0.24743182446E+02 -0.89537014389E+01  0.26408612541E+02  0.51100000000E-03 0. -1.
        -11    1    4    4    0    0 -0.15476361556E+02  0.14617806880E+01  0.12205698530E+02  0.19764454120E+02  0.51100000000E-03 0.  1.
        -12    1    4    4    0    0 -0.11062666658E+00  0.74663152808E+01  0.33739711533E+01  0.81940089989E+01  0.00000000000E+00 0.  1.
</event>
<event>
 8    1  0.2432279E-006  0.9118800E+02  0.7816164E-02  0.1184000E+00
        -11   -1    0    0    0    0  0.00000000000E+00  0.00000000000E+00  0.45593999997E+02  0.45594000000E+02  0.51100000000E-03 0. -1.
         11   -1    0    0    0    0 -0.00000000000E+00 -0.00000000000E+00 -0.45593999997E+02  0.45594000000E+02  0.51100000000E-03 0.  1.
         23    2    1    2    0    0 -0.13322676296E-14  0.00000000000E+00  0.00000000000E+00  0.91188000000E+02  0.91188000000E+02 0.  0.
    9900012    2    3    3    0    0 -0.26796219728E+01  0.28562753291E+02 -0.23081785014E+02  0.54367081368E+02  0.39999993594E+02 0.  0.
        -12    1    3    3    0    0  0.26796219728E+01 -0.28562753291E+02  0.23081785014E+02  0.36820918632E+02  0.00000000000E+00 0.  1.
         11    1    4    4    0    0 -0.11800117402E+02  0.16851498079E+02 -0.91949368772E+01  0.22533588765E+02  0.51100000000E-03 0. -1.
        -11    1    4    4    0    0  0.44495357722E+01 -0.75739600579E+01 -0.47814699167E+01  0.10001284636E+02  0.51100000000E-03 0.  1.
         12    1    4    4    0    0  0.46709596573E+01  0.19285215270E+02 -0.91053782203E+01  0.21832207966E+02  0.00000000000E+00 0. -1.
</event>
<event>
 8    1  0.2432279E-006  0.9118800E+02  0.7816164E-02  0.1184000E+00
        -11   -1    0    0    0    0  0.00000000000E+00  0.00000000000E+00  0.45593999997E+02  0.45594000000E+02  0.51100000000E-03 0. -1.
         11   -1    0    0    0    0 -0.00000000000E+00 -0.00000000000E+00 -0.45593999997E+02  0.45594000000E+02  0.51100000000E-03 0.  1.
         23    2    1    2    0    0  0.00000000000E+00  0.35527136788E-14 -0.35527136788E-14  0.91188000000E+02  0.91188000000E+02 0.  0.
    9900012    2    3    3    0    0  0.18600041151E+02  0.26727381422E+02  0.17189077913E+02  0.54367097675E+02  0.40000030770E+02 0.  0.
         12    1    3    3    0    0 -0.18600041151E+02 -0.26727381422E+02 -0.17189077913E+02  0.36820902325E+02  0.00000000000E+00 0. -1.
         11    1    4    4    0    0  0.25183595530E+01 -0.55919249839E+01 -0.17939033884E+01  0.63898239015E+01  0.51100000000E-03 0. -1.
        -11    1    4    4    0    0  0.14363598345E+01  0.27363060607E+02  0.17345868592E+02  0.32429606424E+02  0.51100000000E-03 0.  1.
         12    1    4    4    0    0  0.14645321764E+02  0.49562457990E+01  0.16371127096E+01  0.15547667349E+02  0.00000000000E+00 0. -1.
</event>
<event>
 8    1  0.2432279E-006  0.9118800E+02  0.7816164E-02  0.1184000E+00
        -11   -1    0    0    0    0  0.00000000000E+00  0.00000000000E+00  0.45593999997E+02  0.45594000000E+02  0.51100000000E-03 0. -1.
         11   -1    0    0    0    0 -0.00000000000E+00 -0.00000000000E+00 -0.45593999997E+02  0.45594000000E+02  0.51100000000E-03 0.  1.
         23    2    1    2    0    0  0.00000000000E+00  0.00000000000E+00  0.00000000000E+00  0.91188000000E+02  0.91188000000E+02 0.  0.
    9900012    2    3    3    0    0 -0.13459008702E+02  0.33515884755E+02 -0.71638030520E+01  0.54367088545E+02  0.40000009957E+02 0.  0.
        -12    1    3    3    0    0  0.13459008702E+02 -0.33515884755E+02  0.71638030520E+01  0.36820911455E+02  0.00000000000E+00 0.  1.
         11    1    4    4    0    0 -0.96050369934E+01  0.12566465854E+02 -0.21868239319E+01  0.15967310321E+02  0.51100000000E-03 0. -1.
        -11    1    4    4    0    0  0.10497154759E+02  0.19019790526E+02  0.28979383400E+01  0.21916677133E+02  0.51100000000E-03 0.  1.
        -12    1    4    4    0    0 -0.14351126468E+02  0.19296283752E+01 -0.78749174601E+01  0.16483101091E+02  0.00000000000E+00 0.  1.
</event>
<event>
 8    1  0.2432279E-006  0.9118800E+02  0.7816164E-02  0.1184000E+00
        -11   -1    0    0    0    0  0.00000000000E+00  0.00000000000E+00  0.45593999997E+02  0.45594000000E+02  0.51100000000E-03 0.  1.
         11   -1    0    0    0    0 -0.00000000000E+00 -0.00000000000E+00 -0.45593999997E+02  0.45594000000E+02  0.51100000000E-03 0. -1.
         23    2    1    2    0    0  0.00000000000E+00  0.00000000000E+00 -0.17763568394E-14  0.91188000000E+02  0.91188000000E+02 0.  0.
    9900012    2    3    3    0    0 -0.19460849526E+02  0.28782395598E+02 -0.12191337891E+02  0.54367086375E+02  0.40000005010E+02 0.  0.
        -12    1    3    3    0    0  0.19460849526E+02 -0.28782395598E+02  0.12191337891E+02  0.36820913625E+02  0.00000000000E+00 0.  1.
         11    1    4    4    0    0 -0.47278780831E+01  0.19664407229E+02 -0.74639506706E+01  0.21558114545E+02  0.51100000000E-03 0. -1.
        -11    1    4    4    0    0 -0.13167303728E+02 -0.57685233517E+01 -0.93430656273E+01  0.17144871673E+02  0.51100000000E-03 0.  1.
        -12    1    4    4    0    0 -0.15656677149E+01  0.14886511720E+02  0.46156784068E+01  0.15664100157E+02  0.00000000000E+00 0.  1.
</event>
<event>
 8    1  0.2432279E-006  0.9118800E+02  0.7816164E-02  0.1184000E+00
        -11   -1    0    0    0    0  0.00000000000E+00  0.00000000000E+00  0.45593999997E+02  0.45594000000E+02  0.51100000000E-03 0. -1.
         11   -1    0    0    0    0 -0.00000000000E+00 -0.00000000000E+00 -0.45593999997E+02  0.45594000000E+02  0.51100000000E-03 0.  1.
         23    2    1    2    0    0  0.17763568394E-14  0.55511151231E-15  0.00000000000E+00  0.91188000000E+02  0.91188000000E+02 0.  0.
    9900012    2    3    3    0    0  0.11585364924E+02  0.69909247506E+00  0.34943814636E+02  0.54367087572E+02  0.40000007738E+02 0.  0.
        -12    1    3    3    0    0 -0.11585364924E+02 -0.69909247506E+00 -0.34943814636E+02  0.36820912428E+02  0.00000000000E+00 0.  1.
         11    1    4    4    0    0  0.95863185356E+01  0.21192939383E+01  0.20218317266E+02  0.22475970795E+02  0.51100000000E-03 0.  1.
        -11    1    4    4    0    0  0.68492734291E+01 -0.13304022689E+02  0.10850048587E+02  0.18483320070E+02  0.51100000000E-03 0. -1.
        -12    1    4    4    0    0 -0.48502270403E+01  0.11883821225E+02  0.38754487828E+01  0.13407796707E+02  0.00000000000E+00 0.  1.
</event>
<event>
 8    1  0.2432279E-006  0.9118800E+02  0.7816164E-02  0.1184000E+00
        -11   -1    0    0    0    0  0.00000000000E+00  0.00000000000E+00  0.45593999997E+02  0.45594000000E+02  0.51100000000E-03 0. -1.
         11   -1    0    0    0    0 -0.00000000000E+00 -0.00000000000E+00 -0.45593999997E+02  0.45594000000E+02  0.51100000000E-03 0.  1.
         23    2    1    2    0    0  0.00000000000E+00  0.17763568394E-14  0.00000000000E+00  0.91188000000E+02  0.91188000000E+02 0.  0.
    9900012    2    3    3    0    0 -0.74021033512E+01 -0.14953107923E+02  0.32823681555E+02  0.54367073323E+02  0.39999975253E+02 0.  0.
        -12    1    3    3    0    0  0.74021033512E+01  0.14953107923E+02 -0.32823681555E+02  0.36820926677E+02  0.00000000000E+00 0.  1.
         11    1    4    4    0    0 -0.12126286432E+02 -0.17406310609E+02  0.20574426021E+02  0.29552216127E+02  0.51100000000E-03 0.  1.
        -11    1    4    4    0    0  0.69385869332E+01 -0.74430701771E+01  0.10318143985E+02  0.14491631304E+02  0.51100000000E-03 0. -1.
        -12    1    4    4    0    0 -0.22144038527E+01  0.98962728630E+01  0.19311115487E+01  0.10323225892E+02  0.00000000000E+00 0.  1.
</event>
<event>
 8    1  0.2432279E-006  0.9118800E+02  0.7816164E-02  0.1184000E+00
        -11   -1    0    0    0    0  0.00000000000E+00  0.00000000000E+00  0.45593999997E+02  0.45594000000E+02  0.51100000000E-03 0.  1.
         11   -1    0    0    0    0 -0.00000000000E+00 -0.00000000000E+00 -0.45593999997E+02  0.45594000000E+02  0.51100000000E-03 0. -1.
         23    2    1    2    0    0  0.00000000000E+00  0.13322676296E-14  0.00000000000E+00  0.91188000000E+02  0.91188000000E+02 0.  0.
    9900012    2    3    3    0    0 -0.27711483905E+02  0.23224862721E+01 -0.24134353991E+02  0.54366982561E+02  0.39999768343E+02 0.  0.
        -12    1    3    3    0    0  0.27711483905E+02 -0.23224862721E+01  0.24134353991E+02  0.36821017439E+02  0.00000000000E+00 0.  1.
         11    1    4    4    0    0 -0.27185105960E+02 -0.13029824322E+02 -0.12556327871E+02  0.32656816713E+02  0.51100000000E-03 0. -1.
        -11    1    4    4    0    0 -0.21795494219E+01  0.52949790469E+01 -0.98198304781E+01  0.11367335205E+02  0.51100000000E-03 0.  1.
         12    1    4    4    0    0  0.16531714776E+01  0.10057331548E+02 -0.17581956422E+01  0.10342830643E+02  0.00000000000E+00 0. -1.
</event>
<event>
 8    1  0.2432279E-006  0.9118800E+02  0.7816164E-02  0.1184000E+00
        -11   -1    0    0    0    0  0.00000000000E+00  0.00000000000E+00  0.45593999997E+02  0.45594000000E+02  0.51100000000E-03 0. -1.
         11   -1    0    0    0    0 -0.00000000000E+00 -0.00000000000E+00 -0.45593999997E+02  0.45594000000E+02  0.51100000000E-03 0.  1.
         23    2    1    2    0    0  0.88817841970E-15  0.00000000000E+00  0.35527136788E-14  0.91188000000E+02  0.91188000000E+02 0.  0.
    9900012    2    3    3    0    0 -0.45129301609E+01 -0.26706953868E+02 -0.24942945596E+02  0.54367102964E+02  0.40000042827E+02 0.  0.
         12    1    3    3    0    0  0.45129301609E+01  0.26706953868E+02  0.24942945596E+02  0.36820897036E+02  0.00000000000E+00 0. -1.
         11    1    4    4    0    0  0.33167481742E+01 -0.86464197076E+01 -0.12058541770E+02  0.15204269864E+02  0.51100000000E-03 0. -1.
        -11    1    4    4    0    0 -0.14648270650E+02 -0.23568773116E+02 -0.12370272312E+02  0.30382273394E+02  0.51100000000E-03 0.  1.
        -12    1    4    4    0    0  0.68185923145E+01  0.55082389564E+01 -0.51413151411E+00  0.87805597068E+01  0.00000000000E+00 0.  1.
</event>
<event>
 8    1  0.2432279E-006  0.9118800E+02  0.7816164E-02  0.1184000E+00
        -11   -1    0    0    0    0  0.00000000000E+00  0.00000000000E+00  0.45593999997E+02  0.45594000000E+02  0.51100000000E-03 0.  1.
         11   -1    0    0    0    0 -0.00000000000E+00 -0.00000000000E+00 -0.45593999997E+02  0.45594000000E+02  0.51100000000E-03 0. -1.
         23    2    1    2    0    0  0.00000000000E+00  0.71054273576E-14  0.00000000000E+00  0.91188000000E+02  0.91188000000E+02 0.  0.
    9900012    2    3    3    0    0 -0.13108223889E+02 -0.34400749788E+02  0.73450276771E+00  0.54367128014E+02  0.40000099934E+02 0.  0.
         12    1    3    3    0    0  0.13108223889E+02  0.34400749788E+02 -0.73450276771E+00  0.36820871986E+02  0.00000000000E+00 0. -1.
         11    1    4    4    0    0  0.18399634969E+01 -0.19636889724E+01 -0.44896865513E+01  0.52343887552E+01  0.51100000000E-03 0. -1.
        -11    1    4    4    0    0 -0.23809444068E+02 -0.27406562129E+02 -0.24343695908E+01  0.36385923516E+02  0.51100000000E-03 0.  1.
        -12    1    4    4    0    0  0.88612566820E+01 -0.50304986865E+01  0.76585589099E+01  0.12746815743E+02  0.00000000000E+00 0.  1.
</event>
<event>
 8    1  0.2432279E-006  0.9118800E+02  0.7816164E-02  0.1184000E+00
        -11   -1    0    0    0    0  0.00000000000E+00  0.00000000000E+00  0.45593999997E+02  0.45594000000E+02  0.51100000000E-03 0. -1.
         11   -1    0    0    0    0 -0.00000000000E+00 -0.00000000000E+00 -0.45593999997E+02  0.45594000000E+02  0.51100000000E-03 0.  1.
         23    2    1    2    0    0  0.00000000000E+00 -0.17763568394E-14  0.00000000000E+00  0.91188000000E+02  0.91188000000E+02 0.  0.
    9900012    2    3    3    0    0  0.21627649325E+02 -0.14019955119E+02  0.26295733872E+02  0.54367082348E+02  0.39999995830E+02 0.  0.
        -12    1    3    3    0    0 -0.21627649325E+02  0.14019955119E+02 -0.26295733872E+02  0.36820917652E+02  0.00000000000E+00 0.  1.
         11    1    4    4    0    0  0.21614178779E+02 -0.63432271813E+01  0.27086396369E+02  0.35228995499E+02  0.51100000000E-03 0. -1.
        -11    1    4    4    0    0  0.77537314759E+01 -0.72644369608E+01  0.21632688975E+01  0.10843068235E+02  0.51100000000E-03 0.  1.
         12    1    4    4    0    0 -0.77402609308E+01 -0.41229097723E+00 -0.29539313949E+01  0.82950186143E+01  0.00000000000E+00 0. -1.
</event>
<event>
 8    1  0.2432279E-006  0.9118800E+02  0.7816164E-02  0.1184000E+00
        -11   -1    0    0    0    0  0.00000000000E+00  0.00000000000E+00  0.45593999997E+02  0.45594000000E+02  0.51100000000E-03 0.  1.
         11   -1    0    0    0    0 -0.00000000000E+00 -0.00000000000E+00 -0.45593999997E+02  0.45594000000E+02  0.51100000000E-03 0. -1.
         23    2    1    2    0    0 -0.17763568394E-14  0.00000000000E+00  0.71054273576E-14  0.91188000000E+02  0.91188000000E+02 0.  0.
    9900012    2    3    3    0    0  0.10583352913E+02  0.97093787058E+01 -0.33904279340E+02  0.54367088125E+02  0.40000008998E+02 0.  0.
        -12    1    3    3    0    0 -0.10583352913E+02 -0.97093787058E+01  0.33904279340E+02  0.36820911875E+02  0.00000000000E+00 0.  1.
         11    1    4    4    0    0 -0.46574843223E+01 -0.48898547396E+01 -0.24805969268E+02  0.25708732975E+02  0.51100000000E-03 0. -1.
        -11    1    4    4    0    0  0.13916858834E+01 -0.33907717561E+01  0.10167997049E+01  0.38036830311E+01  0.51100000000E-03 0.  1.
        -12    1    4    4    0    0  0.13849151352E+02  0.17990005201E+02 -0.10115109777E+02  0.24854672119E+02  0.00000000000E+00 0.  1.
</event>
<event>
 8    1  0.2432279E-006  0.9118800E+02  0.7816164E-02  0.1184000E+00
        -11   -1    0    0    0    0  0.00000000000E+00  0.00000000000E+00  0.45593999997E+02  0.45594000000E+02  0.51100000000E-03 0. -1.
         11   -1    0    0    0    0 -0.00000000000E+00 -0.00000000000E+00 -0.45593999997E+02  0.45594000000E+02  0.51100000000E-03 0.  1.
         23    2    1    2    0    0  0.00000000000E+00  0.00000000000E+00  0.35527136788E-14  0.91188000000E+02  0.91188000000E+02 0.  0.
    9900012    2    3    3    0    0  0.16620056048E+02 -0.24566347585E+02  0.21818524410E+02  0.54367086050E+02  0.40000004268E+02 0.  0.
        -12    1    3    3    0    0 -0.16620056048E+02  0.24566347585E+02 -0.21818524410E+02  0.36820913950E+02  0.00000000000E+00 0.  1.
         11    1    4    4    0    0  0.12933953812E+02 -0.80911052131E+01  0.11191129131E+02  0.18920743016E+02  0.51100000000E-03 0. -1.
        -11    1    4    4    0    0  0.52249967050E+01  0.73294916927E+01 -0.72102511832E+00  0.90300562857E+01  0.51100000000E-03 0.  1.
        -12    1    4    4    0    0 -0.15388944692E+01 -0.23804734065E+02  0.11348420397E+02  0.26416286749E+02  0.00000000000E+00 0.  1.
</event>
<event>
 8    1  0.2432279E-006  0.9118800E+02  0.7816164E-02  0.1184000E+00
        -11   -1    0    0    0    0  0.00000000000E+00  0.00000000000E+00  0.45593999997E+02  0.45594000000E+02  0.51100000000E-03 0. -1.
         11   -1    0    0    0    0 -0.00000000000E+00 -0.00000000000E+00 -0.45593999997E+02  0.45594000000E+02  0.51100000000E-03 0.  1.
         23    2    1    2    0    0  0.00000000000E+00  0.00000000000E+00  0.00000000000E+00  0.91188000000E+02  0.91188000000E+02 0.  0.
    9900012    2    3    3    0    0 -0.89795680042E+01 -0.35315981612E+02 -0.52850651142E+01  0.54367039773E+02  0.39999898771E+02 0.  0.
         12    1    3    3    0    0  0.89795680042E+01  0.35315981612E+02  0.52850651142E+01  0.36820960227E+02  0.00000000000E+00 0. -1.
         11    1    4    4    0    0  0.83389310685E+01 -0.14619146101E+01  0.16548361514E+01  0.86263230082E+01  0.51100000000E-03 0. -1.
        -11    1    4    4    0    0 -0.12309340746E+02 -0.37185406621E+02 -0.65362424696E+01  0.39711419026E+02  0.51100000000E-03 0.  1.
        -12    1    4    4    0    0 -0.50091583272E+01  0.33313396193E+01 -0.40365879600E+00  0.60292977394E+01  0.00000000000E+00 0.  1.
</event>
<event>
 8    1  0.2432279E-006  0.9118800E+02  0.7816164E-02  0.1184000E+00
        -11   -1    0    0    0    0  0.00000000000E+00  0.00000000000E+00  0.45593999997E+02  0.45594000000E+02  0.51100000000E-03 0. -1.
         11   -1    0    0    0    0 -0.00000000000E+00 -0.00000000000E+00 -0.45593999997E+02  0.45594000000E+02  0.51100000000E-03 0.  1.
         23    2    1    2    0    0  0.00000000000E+00  0.00000000000E+00  0.00000000000E+00  0.91188000000E+02  0.91188000000E+02 0.  0.
    9900012    2    3    3    0    0  0.11851907790E+02  0.17342575168E+02 -0.30241472539E+02  0.54367091632E+02  0.40000016993E+02 0.  0.
         12    1    3    3    0    0 -0.11851907790E+02 -0.17342575168E+02  0.30241472539E+02  0.36820908368E+02  0.00000000000E+00 0. -1.
         11    1    4    4    0    0  0.19147941969E+02  0.15384301445E+02 -0.63680710428E+01  0.25374647616E+02  0.51100000000E-03 0. -1.
        -11    1    4    4    0    0  0.31681994664E+01  0.20252453776E+01 -0.14379740794E+02  0.14863245011E+02  0.51100000000E-03 0.  1.
         12    1    4    4    0    0 -0.10464233645E+02 -0.66971653967E-01 -0.94936607025E+01  0.14129199005E+02  0.00000000000E+00 0. -1.
</event>
<event>
 8    1  0.2432279E-006  0.9118800E+02  0.7816164E-02  0.1184000E+00
        -11   -1    0    0    0    0  0.00000000000E+00  0.00000000000E+00  0.45593999997E+02  0.45594000000E+02  0.51100000000E-03 0.  1.
         11   -1    0    0    0    0 -0.00000000000E+00 -0.00000000000E+00 -0.45593999997E+02  0.45594000000E+02  0.51100000000E-03 0. -1.
         23    2    1    2    0    0 -0.35527136788E-14  0.00000000000E+00  0.00000000000E+00  0.91188000000E+02  0.91188000000E+02 0.  0.
    9900012    2    3    3    0    0 -0.23647459332E+02 -0.27811508136E+02  0.48059555699E+01  0.54367088460E+02  0.40000009763E+02 0.  0.
         12    1    3    3    0    0  0.23647459332E+02  0.27811508136E+02 -0.48059555699E+01  0.36820911540E+02  0.00000000000E+00 0. -1.
         11    1    4    4    0    0 -0.18051060283E+02 -0.20959279820E+02 -0.44815110543E+01  0.28021708183E+02  0.51100000000E-03 0. -1.
        -11    1    4    4    0    0 -0.57573037493E+01 -0.14956621897E+02  0.86564582696E+01  0.18214866321E+02  0.51100000000E-03 0.  1.
         12    1    4    4    0    0  0.16090469944E+00  0.81043935818E+01  0.63100835471E+00  0.81305139564E+01  0.00000000000E+00 0. -1.
</event>
<event>
 8    1  0.2432279E-006  0.9118800E+02  0.7816164E-02  0.1184000E+00
        -11   -1    0    0    0    0  0.00000000000E+00  0.00000000000E+00  0.45593999997E+02  0.45594000000E+02  0.51100000000E-03 0.  1.
         11   -1    0    0    0    0 -0.00000000000E+00 -0.00000000000E+00 -0.45593999997E+02  0.45594000000E+02  0.51100000000E-03 0. -1.
         23    2    1    2    0    0  0.00000000000E+00  0.00000000000E+00  0.00000000000E+00  0.91188000000E+02  0.91188000000E+02 0.  0.
    9900012    2    3    3    0    0  0.17113379522E+02  0.11849960397E+02  0.30372543980E+02  0.54367071876E+02  0.39999971956E+02 0.  0.
         12    1    3    3    0    0 -0.17113379522E+02 -0.11849960397E+02 -0.30372543980E+02  0.36820928124E+02  0.00000000000E+00 0. -1.
         11    1    4    4    0    0  0.10212230586E+02  0.22722085784E+02  0.27853032054E+02  0.37368091078E+02  0.51100000000E-03 0. -1.
        -11    1    4    4    0    0  0.40684041989E+01  0.13220856232E+01  0.33528014222E+00  0.42909481651E+01  0.51100000000E-03 0.  1.
         12    1    4    4    0    0  0.28327447373E+01 -0.12194211011E+02  0.21842317841E+01  0.12708032633E+02  0.00000000000E+00 0. -1.
</event>
<event>
 8    1  0.2432279E-006  0.9118800E+02  0.7816164E-02  0.1184000E+00
        -11   -1    0    0    0    0  0.00000000000E+00  0.00000000000E+00  0.45593999997E+02  0.45594000000E+02  0.51100000000E-03 0.  1.
         11   -1    0    0    0    0 -0.00000000000E+00 -0.00000000000E+00 -0.45593999997E+02  0.45594000000E+02  0.51100000000E-03 0. -1.
         23    2    1    2    0    0 -0.35527136788E-14  0.22204460493E-15  0.10658141036E-13  0.91188000000E+02  0.91188000000E+02 0.  0.
    9900012    2    3    3    0    0 -0.22278932754E+02 -0.17926953711E+01  0.29261154175E+02  0.54367085495E+02  0.40000003003E+02 0.  0.
         12    1    3    3    0    0  0.22278932754E+02  0.17926953711E+01 -0.29261154175E+02  0.36820914505E+02  0.00000000000E+00 0. -1.
         11    1    4    4    0    0 -0.79511944447E+01  0.62795489573E+01  0.40715919871E+01  0.10919344750E+02  0.51100000000E-03 0. -1.
        -11    1    4    4    0    0 -0.11256231446E+02  0.69396849838E+01 -0.83215387598E+00  0.13249696388E+02  0.51100000000E-03 0.  1.
        -12    1    4    4    0    0 -0.30715068630E+01 -0.15011929312E+02  0.26021716064E+02  0.30198044357E+02  0.00000000000E+00 0.  1.
</event>
<event>
 8    1  0.2432279E-006  0.9118800E+02  0.7816164E-02  0.1184000E+00
        -11   -1    0    0    0    0  0.00000000000E+00  0.00000000000E+00  0.45593999997E+02  0.45594000000E+02  0.51100000000E-03 0.  1.
         11   -1    0    0    0    0 -0.00000000000E+00 -0.00000000000E+00 -0.45593999997E+02  0.45594000000E+02  0.51100000000E-03 0. -1.
         23    2    1    2    0    0 -0.17763568394E-14  0.00000000000E+00  0.00000000000E+00  0.91188000000E+02  0.91188000000E+02 0.  0.
    9900012    2    3    3    0    0  0.14935354094E+02  0.25377107944E+02 -0.22107006801E+02  0.54367052711E+02  0.39999928266E+02 0.  0.
        -12    1    3    3    0    0 -0.14935354094E+02 -0.25377107944E+02  0.22107006801E+02  0.36820947289E+02  0.00000000000E+00 0.  1.
         11    1    4    4    0    0  0.47612478638E+01 -0.44522673504E+01  0.23644126448E+00  0.65228882033E+01  0.51100000000E-03 0. -1.
        -11    1    4    4    0    0  0.56449139477E+01  0.18347286825E+02  0.32130358154E+01  0.19463082663E+02  0.51100000000E-03 0.  1.
        -12    1    4    4    0    0  0.45291922826E+01  0.11482088469E+02 -0.25556483881E+02  0.28381081845E+02  0.00000000000E+00 0.  1.
</event>
<event>
 8    1  0.2432279E-006  0.9118800E+02  0.7816164E-02  0.1184000E+00
        -11   -1    0    0    0    0  0.00000000000E+00  0.00000000000E+00  0.45593999997E+02  0.45594000000E+02  0.51100000000E-03 0. -1.
         11   -1    0    0    0    0 -0.00000000000E+00 -0.00000000000E+00 -0.45593999997E+02  0.45594000000E+02  0.51100000000E-03 0.  1.
         23    2    1    2    0    0 -0.22204460493E-15  0.00000000000E+00  0.00000000000E+00  0.91188000000E+02  0.91188000000E+02 0.  0.
    9900012    2    3    3    0    0 -0.10917314781E+01 -0.84240969535E+01  0.35827681870E+02  0.54367081010E+02  0.39999992778E+02 0.  0.
        -12    1    3    3    0    0  0.10917314781E+01  0.84240969535E+01 -0.35827681870E+02  0.36820918990E+02  0.00000000000E+00 0.  1.
         11    1    4    4    0    0  0.13539949067E+02 -0.24461674545E+01  0.24403254614E+02  0.28014867338E+02  0.51100000000E-03 0. -1.
        -11    1    4    4    0    0  0.38483699636E+01 -0.17188575113E+01  0.44936158409E+01  0.61609257509E+01  0.51100000000E-03 0.  1.
        -12    1    4    4    0    0 -0.18480050509E+02 -0.42590719876E+01  0.69308114149E+01  0.20191287920E+02  0.00000000000E+00 0.  1.
</event>
<event>
 8    1  0.2432279E-006  0.9118800E+02  0.7816164E-02  0.1184000E+00
        -11   -1    0    0    0    0  0.00000000000E+00  0.00000000000E+00  0.45593999997E+02  0.45594000000E+02  0.51100000000E-03 0.  1.
         11   -1    0    0    0    0 -0.00000000000E+00 -0.00000000000E+00 -0.45593999997E+02  0.45594000000E+02  0.51100000000E-03 0. -1.
         23    2    1    2    0    0  0.00000000000E+00  0.00000000000E+00  0.00000000000E+00  0.91188000000E+02  0.91188000000E+02 0.  0.
    9900012    2    3    3    0    0  0.98973268901E+01 -0.27735635292E+02  0.22103331499E+02  0.54367084640E+02  0.40000001053E+02 0.  0.
         12    1    3    3    0    0 -0.98973268901E+01  0.27735635292E+02 -0.22103331499E+02  0.36820915360E+02  0.00000000000E+00 0. -1.
         11    1    4    4    0    0  0.10960384466E+02 -0.15003967593E+02  0.51184430453E+01  0.19272974100E+02  0.51100000000E-03 0. -1.
        -11    1    4    4    0    0  0.26512412620E+01 -0.20954094382E+02  0.14859963958E+02  0.25824826828E+02  0.51100000000E-03 0.  1.
        -12    1    4    4    0    0 -0.37142988383E+01  0.82224266832E+01  0.21249244959E+01  0.92692837120E+01  0.00000000000E+00 0.  1.
</event>
<event>
 8    1  0.2432279E-006  0.9118800E+02  0.7816164E-02  0.1184000E+00
        -11   -1    0    0    0    0  0.00000000000E+00  0.00000000000E+00  0.45593999997E+02  0.45594000000E+02  0.51100000000E-03 0.  1.
         11   -1    0    0    0    0 -0.00000000000E+00 -0.00000000000E+00 -0.45593999997E+02  0.45594000000E+02  0.51100000000E-03 0. -1.
         23    2    1    2    0    0  0.00000000000E+00 -0.35527136788E-14  0.00000000000E+00  0.91188000000E+02  0.91188000000E+02 0.  0.
    9900012    2    3    3    0    0  0.12631479566E+02  0.24902946784E+02 -0.24001418306E+02  0.54367094046E+02  0.40000022496E+02 0.  0.
        -12    1    3    3    0    0 -0.12631479566E+02 -0.24902946784E+02  0.24001418306E+02  0.36820905954E+02  0.00000000000E+00 0.  1.
         11    1    4    4    0    0  0.66928121329E+01  0.29619515581E+02 -0.22485712699E+02  0.37785138789E+02  0.51100000000E-03 0. -1.
        -11    1    4    4    0    0 -0.14091882707E+00 -0.19780934127E+01 -0.74170945174E+01  0.76776300384E+01  0.51100000000E-03 0.  1.
        -12    1    4    4    0    0  0.60795862604E+01 -0.27384753839E+01  0.59013889099E+01  0.89043252182E+01  0.00000000000E+00 0.  1.
</event>
<event>
 8    1  0.2432279E-006  0.9118800E+02  0.7816164E-02  0.1184000E+00
        -11   -1    0    0    0    0  0.00000000000E+00  0.00000000000E+00  0.45593999997E+02  0.45594000000E+02  0.51100000000E-03 0.  1.
         11   -1    0    0    0    0 -0.00000000000E+00 -0.00000000000E+00 -0.45593999997E+02  0.45594000000E+02  0.51100000000E-03 0. -1.
         23    2    1    2    0    0  0.00000000000E+00 -0.17763568394E-14 -0.71054273576E-14  0.91188000000E+02  0.91188000000E+02 0.  0.
    9900012    2    3    3    0    0  0.13284034050E+02 -0.12495375202E+02 -0.31987225842E+02  0.54367047009E+02  0.39999915267E+02 0.  0.
        -12    1    3    3    0    0 -0.13284034050E+02  0.12495375202E+02  0.31987225842E+02  0.36820952991E+02  0.00000000000E+00 0.  1.
         11    1    4    4    0    0 -0.27294906907E+01 -0.10951696141E+02 -0.58852580460E+01  0.12728944588E+02  0.51100000000E-03 0. -1.
        -11    1    4    4    0    0  0.16459369068E+02  0.48271877310E+01 -0.26796066135E+01  0.17360670015E+02  0.51100000000E-03 0.  1.
         12    1    4    4    0    0 -0.44584432731E+00 -0.63708667914E+01 -0.23422361183E+02  0.24277432406E+02  0.00000000000E+00 0. -1.
</event>
<event>
 8    1  0.2432279E-006  0.9118800E+02  0.7816164E-02  0.1184000E+00
        -11   -1    0    0    0    0  0.00000000000E+00  0.00000000000E+00  0.45593999997E+02  0.45594000000E+02  0.51100000000E-03 0. -1.
         11   -1    0    0    0    0 -0.00000000000E+00 -0.00000000000E+00 -0.45593999997E+02  0.45594000000E+02  0.51100000000E-03 0.  1.
         23    2    1    2    0    0  0.00000000000E+00  0.00000000000E+00  0.17763568394E-14  0.91188000000E+02  0.91188000000E+02 0.  0.
    9900012    2    3    3    0    0 -0.34092944574E+02 -0.87152143790E+01  0.10839895538E+02  0.54366984714E+02  0.39999773252E+02 0.  0.
        -12    1    3    3    0    0  0.34092944574E+02  0.87152143790E+01 -0.10839895538E+02  0.36821015286E+02  0.00000000000E+00 0.  1.
         11    1    4    4    0    0 -0.28052231697E+02  0.74325420942E+01  0.57736353563E+00  0.29025914871E+02  0.51100000000E-03 0. -1.
        -11    1    4    4    0    0  0.42849776017E+01 -0.89865403988E+01  0.16121978066E+01  0.10085540313E+02  0.51100000000E-03 0.  1.
         12    1    4    4    0    0 -0.10325690479E+02 -0.71612160744E+01  0.86503341961E+01  0.15255529530E+02  0.00000000000E+00 0. -1.
</event>
<event>
 8    1  0.2432279E-006  0.9118800E+02  0.7816164E-02  0.1184000E+00
        -11   -1    0    0    0    0  0.00000000000E+00  0.00000000000E+00  0.45593999997E+02  0.45594000000E+02  0.51100000000E-03 0.  1.
         11   -1    0    0    0    0 -0.00000000000E+00 -0.00000000000E+00 -0.45593999997E+02  0.45594000000E+02  0.51100000000E-03 0. -1.
         23    2    1    2    0    0  0.00000000000E+00  0.35527136788E-14  0.00000000000E+00  0.91188000000E+02  0.91188000000E+02 0.  0.
    9900012    2    3    3    0    0  0.63004853588E+01  0.31577610542E+02 -0.17858842749E+02  0.54367083830E+02  0.39999999206E+02 0.  0.
        -12    1    3    3    0    0 -0.63004853588E+01 -0.31577610542E+02  0.17858842749E+02  0.36820916170E+02  0.00000000000E+00 0.  1.
         11    1    4    4    0    0  0.10458203520E+02  0.78512317071E+01 -0.37610528865E+01  0.13607401635E+02  0.51100000000E-03 0. -1.
        -11    1    4    4    0    0  0.70381578825E+01  0.20093946360E+02  0.13558175724E+01  0.21334024192E+02  0.51100000000E-03 0.  1.
         12    1    4    4    0    0 -0.11195876044E+02  0.36324324752E+01 -0.15453607435E+02  0.19425658002E+02  0.00000000000E+00 0. -1.
</event>
<event>
 8    1  0.2432279E-006  0.9118800E+02  0.7816164E-02  0.1184000E+00
        -11   -1    0    0    0    0  0.00000000000E+00  0.00000000000E+00  0.45593999997E+02  0.45594000000E+02  0.51100000000E-03 0.  1.
         11   -1    0    0    0    0 -0.00000000000E+00 -0.00000000000E+00 -0.45593999997E+02  0.45594000000E+02  0.51100000000E-03 0. -1.
         23    2    1    2    0    0 -0.35527136788E-14  0.00000000000E+00  0.00000000000E+00  0.91188000000E+02  0.91188000000E+02 0.  0.
    9900012    2    3    3    0    0 -0.23409397651E+02  0.21803666046E+02  0.18231438560E+02  0.54367012732E+02  0.39999837125E+02 0.  0.
        -12    1    3    3    0    0  0.23409397651E+02 -0.21803666046E+02 -0.18231438560E+02  0.36820987268E+02  0.00000000000E+00 0.  1.
         11    1    4    4    0    0 -0.11804955168E+02  0.11958025245E+02  0.57937459380E+01  0.17774105506E+02  0.51100000000E-03 0. -1.
        -11    1    4    4    0    0  0.20115924985E+01  0.14639157730E+02  0.15943474847E+02  0.21738119373E+02  0.51100000000E-03 0.  1.
         12    1    4    4    0    0 -0.13616034981E+02 -0.47935169288E+01 -0.35057822251E+01  0.14854787853E+02  0.00000000000E+00 0. -1.
</event>
<event>
 8    1  0.2432279E-006  0.9118800E+02  0.7816164E-02  0.1184000E+00
        -11   -1    0    0    0    0  0.00000000000E+00  0.00000000000E+00  0.45593999997E+02  0.45594000000E+02  0.51100000000E-03 0. -1.
         11   -1    0    0    0    0 -0.00000000000E+00 -0.00000000000E+00 -0.45593999997E+02  0.45594000000E+02  0.51100000000E-03 0.  1.
         23    2    1    2    0    0  0.17763568394E-14 -0.35527136788E-14  0.00000000000E+00  0.91188000000E+02  0.91188000000E+02 0.  0.
    9900012    2    3    3    0    0 -0.11471418401E+02 -0.25185033916E+02  0.24287917639E+02  0.54367050573E+02  0.39999923391E+02 0.  0.
        -12    1    3    3    0    0  0.11471418401E+02  0.25185033916E+02 -0.24287917639E+02  0.36820949427E+02  0.00000000000E+00 0.  1.
         11    1    4    4    0    0  0.35918439420E+01 -0.20761058150E+02  0.13565430737E+02  0.25058806631E+02  0.51100000000E-03 0. -1.
        -11    1    4    4    0    0  0.58205109297E+01 -0.19098029381E+01  0.13128188078E+01  0.62649172563E+01  0.51100000000E-03 0.  1.
         12    1    4    4    0    0 -0.20883773273E+02 -0.25141728274E+01  0.94096680941E+01  0.23043326686E+02  0.00000000000E+00 0. -1.
</event>
<event>
 8    1  0.2432279E-006  0.9118800E+02  0.7816164E-02  0.1184000E+00
        -11   -1    0    0    0    0  0.00000000000E+00  0.00000000000E+00  0.45593999997E+02  0.45594000000E+02  0.51100000000E-03 0. -1.
         11   -1    0    0    0    0 -0.00000000000E+00 -0.00000000000E+00 -0.45593999997E+02  0.45594000000E+02  0.51100000000E-03 0.  1.
         23    2    1    2    0    0 -0.35527136788E-14  0.00000000000E+00  0.35527136788E-14  0.91188000000E+02  0.91188000000E+02 0.  0.
    9900012    2    3    3    0    0  0.21877011254E+02  0.98357112113E+01 -0.27936265110E+02  0.54367085498E+02  0.40000003010E+02 0.  0.
         12    1    3    3    0    0 -0.21877011254E+02 -0.98357112113E+01  0.27936265110E+02  0.36820914502E+02  0.00000000000E+00 0. -1.
         11    1    4    4    0    0  0.33631952198E+01 -0.47132133684E+01 -0.43995125591E+00  0.58068080484E+01  0.51100000000E-03 0. -1.
        -11    1    4    4    0    0  0.77284441749E+01  0.20014692545E+02 -0.35668087996E+01  0.21749457288E+02  0.51100000000E-03 0.  1.
        -12    1    4    4    0    0  0.10785371859E+02 -0.54657679654E+01 -0.23929505055E+02  0.26810820162E+02  0.00000000000E+00 0.  1.
</event>
<event>
 8    1  0.2432279E-006  0.9118800E+02  0.7816164E-02  0.1184000E+00
        -11   -1    0    0    0    0  0.00000000000E+00  0.00000000000E+00  0.45593999997E+02  0.45594000000E+02  0.51100000000E-03 0.  1.
         11   -1    0    0    0    0 -0.00000000000E+00 -0.00000000000E+00 -0.45593999997E+02  0.45594000000E+02  0.51100000000E-03 0. -1.
         23    2    1    2    0    0  0.00000000000E+00  0.00000000000E+00  0.17763568394E-14  0.91188000000E+02  0.91188000000E+02 0.  0.
    9900012    2    3    3    0    0 -0.19784448529E+02 -0.27287494992E+02 -0.14823950598E+02  0.54367064408E+02  0.39999954931E+02 0.  0.
        -12    1    3    3    0    0  0.19784448529E+02  0.27287494992E+02  0.14823950598E+02  0.36820935592E+02  0.00000000000E+00 0.  1.
         11    1    4    4    0    0 -0.19727594026E+02 -0.65992414953E+01 -0.15676418186E+02  0.26047611057E+02  0.51100000000E-03 0. -1.
        -11    1    4    4    0    0 -0.51755914354E+01  0.61461354815E+00  0.34596020282E+01  0.62556648707E+01  0.51100000000E-03 0.  1.
         12    1    4    4    0    0  0.51187369321E+01 -0.21302867045E+02 -0.26071344403E+01  0.22063788480E+02  0.00000000000E+00 0. -1.
</event>
<event>
 8    1  0.2432279E-006  0.9118800E+02  0.7816164E-02  0.1184000E+00
        -11   -1    0    0    0    0  0.00000000000E+00  0.00000000000E+00  0.45593999997E+02  0.45594000000E+02  0.51100000000E-03 0.  1.
         11   -1    0    0    0    0 -0.00000000000E+00 -0.00000000000E+00 -0.45593999997E+02  0.45594000000E+02  0.51100000000E-03 0. -1.
         23    2    1    2    0    0  0.00000000000E+00  0.00000000000E+00  0.00000000000E+00  0.91188000000E+02  0.91188000000E+02 0.  0.
    9900012    2    3    3    0    0 -0.34191677411E+01 -0.32154715197E+02  0.17611456751E+02  0.54367084391E+02  0.40000000485E+02 0.  0.
         12    1    3    3    0    0  0.34191677411E+01  0.32154715197E+02 -0.17611456751E+02  0.36820915609E+02  0.00000000000E+00 0. -1.
         11    1    4    4    0    0  0.67847384167E+01 -0.14380229412E+02 -0.62728825654E+01  0.17093060851E+02  0.51100000000E-03 0. -1.
        -11    1    4    4    0    0 -0.15116471629E+02 -0.10892955938E+02  0.21579644928E+02  0.28510441579E+02  0.51100000000E-03 0.  1.
        -12    1    4    4    0    0  0.49125654714E+01 -0.68815298474E+01  0.23046943882E+01  0.87635819603E+01  0.00000000000E+00 0.  1.
</event>
<event>
 8    1  0.2432279E-006  0.9118800E+02  0.7816164E-02  0.1184000E+00
        -11   -1    0    0    0    0  0.00000000000E+00  0.00000000000E+00  0.45593999997E+02  0.45594000000E+02  0.51100000000E-03 0.  1.
         11   -1    0    0    0    0 -0.00000000000E+00 -0.00000000000E+00 -0.45593999997E+02  0.45594000000E+02  0.51100000000E-03 0. -1.
         23    2    1    2    0    0  0.00000000000E+00  0.17763568394E-14  0.00000000000E+00  0.91188000000E+02  0.91188000000E+02 0.  0.
    9900012    2    3    3    0    0 -0.10633427912E+02 -0.16514029166E+01 -0.35213311558E+02  0.54367160362E+02  0.40000173677E+02 0.  0.
        -12    1    3    3    0    0  0.10633427912E+02  0.16514029166E+01  0.35213311558E+02  0.36820839638E+02  0.00000000000E+00 0.  1.
         11    1    4    4    0    0 -0.26164395735E+01  0.29217170299E+01  0.20086170886E+01  0.44064417974E+01  0.51100000000E-03 0. -1.
        -11    1    4    4    0    0 -0.47932844747E+01  0.12398212737E+02 -0.26450944725E+02  0.29603103423E+02  0.51100000000E-03 0.  1.
        -12    1    4    4    0    0 -0.32237038634E+01 -0.16971332683E+02 -0.10770983921E+02  0.20357615142E+02  0.00000000000E+00 0.  1.
</event>
<event>
 8    1  0.2432279E-006  0.9118800E+02  0.7816164E-02  0.1184000E+00
        -11   -1    0    0    0    0  0.00000000000E+00  0.00000000000E+00  0.45593999997E+02  0.45594000000E+02  0.51100000000E-03 0.  1.
         11   -1    0    0    0    0 -0.00000000000E+00 -0.00000000000E+00 -0.45593999997E+02  0.45594000000E+02  0.51100000000E-03 0. -1.
         23    2    1    2    0    0 -0.35527136788E-14  0.17763568394E-14  0.00000000000E+00  0.91188000000E+02  0.91188000000E+02 0.  0.
    9900012    2    3    3    0    0  0.24893545485E+02  0.13215368664E+02  0.23694852996E+02  0.54367073419E+02  0.39999975474E+02 0.  0.
         12    1    3    3    0    0 -0.24893545485E+02 -0.13215368664E+02 -0.23694852996E+02  0.36820926581E+02  0.00000000000E+00 0. -1.
         11    1    4    4    0    0 -0.68771660390E+01  0.13476630588E+02  0.10014199670E+02  0.18143846892E+02  0.51100000000E-03 0. -1.
        -11    1    4    4    0    0  0.28150245366E+02  0.73050899247E+00  0.77540158880E+01  0.29207785267E+02  0.51100000000E-03 0.  1.
        -12    1    4    4    0    0  0.36204661585E+01 -0.99177091721E+00  0.59266374381E+01  0.70154412605E+01  0.00000000000E+00 0.  1.
</event>
<event>
 8    1  0.2432279E-006  0.9118800E+02  0.7816164E-02  0.1184000E+00
        -11   -1    0    0    0    0  0.00000000000E+00  0.00000000000E+00  0.45593999997E+02  0.45594000000E+02  0.51100000000E-03 0.  1.
         11   -1    0    0    0    0 -0.00000000000E+00 -0.00000000000E+00 -0.45593999997E+02  0.45594000000E+02  0.51100000000E-03 0. -1.
         23    2    1    2    0    0  0.00000000000E+00  0.00000000000E+00  0.35527136788E-14  0.91188000000E+02  0.91188000000E+02 0.  0.
    9900012    2    3    3    0    0 -0.12138058263E+02 -0.21104497301E+02 -0.27623313524E+02  0.54367085905E+02  0.40000003938E+02 0.  0.
        -12    1    3    3    0    0  0.12138058263E+02  0.21104497301E+02  0.27623313524E+02  0.36820914095E+02  0.00000000000E+00 0.  1.
         11    1    4    4    0    0 -0.14046461341E+02 -0.13065812545E+02 -0.12929580400E+02  0.23134229688E+02  0.51100000000E-03 0. -1.
        -11    1    4    4    0    0 -0.28737269793E+01  0.92086272658E+01 -0.46414965750E+01  0.10705167611E+02  0.51100000000E-03 0.  1.
        -12    1    4    4    0    0  0.47821300572E+01 -0.17247312022E+02 -0.10052236548E+02  0.20527688606E+02  0.00000000000E+00 0.  1.
</event>
<event>
 8    1  0.2432279E-006  0.9118800E+02  0.7816164E-02  0.1184000E+00
        -11   -1    0    0    0    0  0.00000000000E+00  0.00000000000E+00  0.45593999997E+02  0.45594000000E+02  0.51100000000E-03 0.  1.
         11   -1    0    0    0    0 -0.00000000000E+00 -0.00000000000E+00 -0.45593999997E+02  0.45594000000E+02  0.51100000000E-03 0. -1.
         23    2    1    2    0    0  0.00000000000E+00  0.88817841970E-15  0.35527136788E-14  0.91188000000E+02  0.91188000000E+02 0.  0.
    9900012    2    3    3    0    0  0.27991914602E+02  0.75368866622E+01  0.22703030898E+02  0.54367088066E+02  0.40000008865E+02 0.  0.
        -12    1    3    3    0    0 -0.27991914602E+02 -0.75368866622E+01 -0.22703030898E+02  0.36820911934E+02  0.00000000000E+00 0.  1.
         11    1    4    4    0    0  0.11050304995E+02  0.39170080505E+01 -0.59942731491E+01  0.13167516979E+02  0.51100000000E-03 0. -1.
        -11    1    4    4    0    0 -0.41199867427E+01 -0.35396143255E+01  0.12660370247E+02  0.13776361471E+02  0.51100000000E-03 0.  1.
         12    1    4    4    0    0  0.21061596350E+02  0.71594929372E+01  0.16036933800E+02  0.27423209616E+02  0.00000000000E+00 0. -1.
</event>
<event>
 8    1  0.2432279E-006  0.9118800E+02  0.7816164E-02  0.1184000E+00
        -11   -1    0    0    0    0  0.00000000000E+00  0.00000000000E+00  0.45593999997E+02  0.45594000000E+02  0.51100000000E-03 0. -1.
         11   -1    0    0    0    0 -0.00000000000E+00 -0.00000000000E+00 -0.45593999997E+02  0.45594000000E+02  0.51100000000E-03 0.  1.
         23    2    1    2    0    0  0.00000000000E+00  0.00000000000E+00  0.00000000000E+00  0.91188000000E+02  0.91188000000E+02 0.  0.
    9900012    2    3    3    0    0  0.27062018788E+02  0.11565214716E+02 -0.22128609810E+02  0.54367049110E+02  0.39999920057E+02 0.  0.
        -12    1    3    3    0    0 -0.27062018788E+02 -0.11565214716E+02  0.22128609810E+02  0.36820950890E+02  0.00000000000E+00 0.  1.
         11    1    4    4    0    0  0.15865637759E+02  0.15732896531E+02  0.10432182790E+01  0.22368075451E+02  0.51100000000E-03 0. -1.
        -11    1    4    4    0    0 -0.10280613992E+01 -0.80696486060E+01 -0.43664238510E+01  0.92326483943E+01  0.51100000000E-03 0.  1.
        -12    1    4    4    0    0  0.12224442428E+02  0.39019667913E+01 -0.18805404238E+02  0.22766325265E+02  0.00000000000E+00 0.  1.
</event>
<event>
 8    1  0.2432279E-006  0.9118800E+02  0.7816164E-02  0.1184000E+00
        -11   -1    0    0    0    0  0.00000000000E+00  0.00000000000E+00  0.45593999997E+02  0.45594000000E+02  0.51100000000E-03 0. -1.
         11   -1    0    0    0    0 -0.00000000000E+00 -0.00000000000E+00 -0.45593999997E+02  0.45594000000E+02  0.51100000000E-03 0.  1.
         23    2    1    2    0    0  0.00000000000E+00  0.35527136788E-14 -0.88817841970E-15  0.91188000000E+02  0.91188000000E+02 0.  0.
    9900012    2    3    3    0    0  0.23597254623E+02  0.28248339695E+02 -0.99079017704E+00  0.54367071353E+02  0.39999970763E+02 0.  0.
         12    1    3    3    0    0 -0.23597254623E+02 -0.28248339695E+02  0.99079017704E+00  0.36820928647E+02  0.00000000000E+00 0. -1.
         11    1    4    4    0    0  0.13417169361E+02 -0.11911352673E+01  0.62686407103E+01  0.14857156306E+02  0.51100000000E-03 0. -1.
        -11    1    4    4    0    0  0.49574162713E+01 -0.30529927487E+01 -0.61450224166E-01  0.58224150661E+01  0.51100000000E-03 0.  1.
         12    1    4    4    0    0  0.52226689906E+01  0.32492467711E+02 -0.71979806632E+01  0.33687499981E+02  0.00000000000E+00 0. -1.
</event>
<event>
 8    1  0.2432279E-006  0.9118800E+02  0.7816164E-02  0.1184000E+00
        -11   -1    0    0    0    0  0.00000000000E+00  0.00000000000E+00  0.45593999997E+02  0.45594000000E+02  0.51100000000E-03 0.  1.
         11   -1    0    0    0    0 -0.00000000000E+00 -0.00000000000E+00 -0.45593999997E+02  0.45594000000E+02  0.51100000000E-03 0. -1.
         23    2    1    2    0    0  0.00000000000E+00  0.17763568394E-14  0.00000000000E+00  0.91188000000E+02  0.91188000000E+02 0.  0.
    9900012    2    3    3    0    0 -0.10536161559E+02  0.81165668563E+01 -0.34334934269E+02  0.54367121830E+02  0.40000085836E+02 0.  0.
        -12    1    3    3    0    0  0.10536161559E+02 -0.81165668563E+01  0.34334934269E+02  0.36820878170E+02  0.00000000000E+00 0.  1.
         11    1    4    4    0    0 -0.19355251328E+00  0.41029066710E+01 -0.11156625705E+02  0.11888717471E+02  0.51100000000E-03 0. -1.
        -11    1    4    4    0    0 -0.29409813571E+01  0.90866718097E+01 -0.29821566264E+02  0.31313619890E+02  0.51100000000E-03 0.  1.
        -12    1    4    4    0    0 -0.74016276884E+01 -0.50730116244E+01  0.66432576996E+01  0.11164784469E+02  0.00000000000E+00 0.  1.
</event>
<event>
 8    1  0.2432279E-006  0.9118800E+02  0.7816164E-02  0.1184000E+00
        -11   -1    0    0    0    0  0.00000000000E+00  0.00000000000E+00  0.45593999997E+02  0.45594000000E+02  0.51100000000E-03 0. -1.
         11   -1    0    0    0    0 -0.00000000000E+00 -0.00000000000E+00 -0.45593999997E+02  0.45594000000E+02  0.51100000000E-03 0.  1.
         23    2    1    2    0    0  0.00000000000E+00  0.11102230246E-15  0.00000000000E+00  0.91188000000E+02  0.91188000000E+02 0.  0.
    9900012    2    3    3    0    0  0.57313158641E+01  0.35421205503E+00  0.36370412160E+02  0.54367077573E+02  0.39999984942E+02 0.  0.
        -12    1    3    3    0    0 -0.57313158641E+01 -0.35421205503E+00 -0.36370412160E+02  0.36820922427E+02  0.00000000000E+00 0.  1.
         11    1    4    4    0    0 -0.81094686852E+01 -0.85645311261E+01  0.28723752929E+01  0.12139407558E+02  0.51100000000E-03 0. -1.
        -11    1    4    4    0    0 -0.19743294421E+01 -0.43836724412E+01  0.87680624765E+01  0.99996740282E+01  0.51100000000E-03 0.  1.
        -12    1    4    4    0    0  0.15815113991E+02  0.13302415622E+02  0.24729974391E+02  0.32227995987E+02  0.00000000000E+00 0.  1.
</event>
<event>
 8    1  0.2432279E-006  0.9118800E+02  0.7816164E-02  0.1184000E+00
        -11   -1    0    0    0    0  0.00000000000E+00  0.00000000000E+00  0.45593999997E+02  0.45594000000E+02  0.51100000000E-03 0.  1.
         11   -1    0    0    0    0 -0.00000000000E+00 -0.00000000000E+00 -0.45593999997E+02  0.45594000000E+02  0.51100000000E-03 0. -1.
         23    2    1    2    0    0  0.13322676296E-14  0.35527136788E-14  0.71054273576E-14  0.91188000000E+02  0.91188000000E+02 0.  0.
    9900012    2    3    3    0    0  0.38060683802E+01  0.19296645422E+02  0.31127689547E+02  0.54367085595E+02  0.40000003232E+02 0.  0.
         12    1    3    3    0    0 -0.38060683802E+01 -0.19296645422E+02 -0.31127689547E+02  0.36820914405E+02  0.00000000000E+00 0. -1.
         11    1    4    4    0    0 -0.84022789383E+01  0.50479018477E+01 -0.31984179561E+01  0.10310648966E+02  0.51100000000E-03 0. -1.
        -11    1    4    4    0    0 -0.19348680332E+01  0.11712262813E+02  0.22528772082E+02  0.25465003167E+02  0.51100000000E-03 0.  1.
         12    1    4    4    0    0  0.14143215352E+02  0.25364807607E+01  0.11797335421E+02  0.18591433462E+02  0.00000000000E+00 0. -1.
</event>
<event>
 8    1  0.2432279E-006  0.9118800E+02  0.7816164E-02  0.1184000E+00
        -11   -1    0    0    0    0  0.00000000000E+00  0.00000000000E+00  0.45593999997E+02  0.45594000000E+02  0.51100000000E-03 0. -1.
         11   -1    0    0    0    0 -0.00000000000E+00 -0.00000000000E+00 -0.45593999997E+02  0.45594000000E+02  0.51100000000E-03 0.  1.
         23    2    1    2    0    0  0.00000000000E+00  0.00000000000E+00  0.00000000000E+00  0.91188000000E+02  0.91188000000E+02 0.  0.
    9900012    2    3    3    0    0 -0.12737253865E+02 -0.34363985959E+02  0.35578964295E+01  0.54367084829E+02  0.40000001484E+02 0.  0.
         12    1    3    3    0    0  0.12737253865E+02  0.34363985959E+02 -0.35578964295E+01  0.36820915171E+02  0.00000000000E+00 0. -1.
         11    1    4    4    0    0 -0.18348826578E+02 -0.28552774603E+02  0.13353427342E+02  0.36472652719E+02  0.51100000000E-03 0. -1.
        -11    1    4    4    0    0 -0.36892375470E+01  0.51231880441E+00 -0.22651853956E+01  0.43593588259E+01  0.51100000000E-03 0.  1.
         12    1    4    4    0    0  0.93008102607E+01 -0.63235301610E+01 -0.75303455168E+01  0.13535073284E+02  0.00000000000E+00 0. -1.
</event>
<event>
 8    1  0.2432279E-006  0.9118800E+02  0.7816164E-02  0.1184000E+00
        -11   -1    0    0    0    0  0.00000000000E+00  0.00000000000E+00  0.45593999997E+02  0.45594000000E+02  0.51100000000E-03 0. -1.
         11   -1    0    0    0    0 -0.00000000000E+00 -0.00000000000E+00 -0.45593999997E+02  0.45594000000E+02  0.51100000000E-03 0.  1.
         23    2    1    2    0    0  0.35527136788E-14  0.00000000000E+00  0.00000000000E+00  0.91188000000E+02  0.91188000000E+02 0.  0.
    9900012    2    3    3    0    0  0.28002665008E+02  0.16106109496E+02 -0.17669831448E+02  0.54367096235E+02  0.40000027487E+02 0.  0.
         12    1    3    3    0    0 -0.28002665008E+02 -0.16106109496E+02  0.17669831448E+02  0.36820903765E+02  0.00000000000E+00 0. -1.
         11    1    4    4    0    0  0.72826986098E+01 -0.28827445660E+01 -0.53659559516E+01  0.94942824273E+01  0.51100000000E-03 0.  1.
        -11    1    4    4    0    0 -0.50883480601E+01  0.12716770326E+02  0.32727607944E+01  0.14082560029E+02  0.51100000000E-03 0. -1.
         12    1    4    4    0    0  0.25808314459E+02  0.62720837368E+01 -0.15576636291E+02  0.30790253778E+02  0.00000000000E+00 0. -1.
</event>
<event>
 8    1  0.2432279E-006  0.9118800E+02  0.7816164E-02  0.1184000E+00
        -11   -1    0    0    0    0  0.00000000000E+00  0.00000000000E+00  0.45593999997E+02  0.45594000000E+02  0.51100000000E-03 0. -1.
         11   -1    0    0    0    0 -0.00000000000E+00 -0.00000000000E+00 -0.45593999997E+02  0.45594000000E+02  0.51100000000E-03 0.  1.
         23    2    1    2    0    0  0.15543122345E-14  0.00000000000E+00  0.00000000000E+00  0.91188000000E+02  0.91188000000E+02 0.  0.
    9900012    2    3    3    0    0 -0.26692230856E+00  0.95143812095E+01  0.35569489450E+02  0.54367037532E+02  0.39999893662E+02 0.  0.
        -12    1    3    3    0    0  0.26692230856E+00 -0.95143812095E+01 -0.35569489450E+02  0.36820962468E+02  0.00000000000E+00 0.  1.
         11    1    4    4    0    0 -0.73427683043E+01  0.12563682211E+02  0.33424078407E+02  0.36454511034E+02  0.51100000000E-03 0. -1.
        -11    1    4    4    0    0  0.95348295067E+01  0.16102112060E+01 -0.34125137784E+01  0.10254316379E+02  0.51100000000E-03 0.  1.
        -12    1    4    4    0    0 -0.24589835109E+01 -0.46595122073E+01  0.55579248214E+01  0.76582101196E+01  0.00000000000E+00 0.  1.
</event>
<event>
 8    1  0.2432279E-006  0.9118800E+02  0.7816164E-02  0.1184000E+00
        -11   -1    0    0    0    0  0.00000000000E+00  0.00000000000E+00  0.45593999997E+02  0.45594000000E+02  0.51100000000E-03 0. -1.
         11   -1    0    0    0    0 -0.00000000000E+00 -0.00000000000E+00 -0.45593999997E+02  0.45594000000E+02  0.51100000000E-03 0.  1.
         23    2    1    2    0    0  0.35527136788E-14  0.00000000000E+00  0.00000000000E+00  0.91188000000E+02  0.91188000000E+02 0.  0.
    9900012    2    3    3    0    0  0.20288901286E+02 -0.61172661870E+01 -0.30111790400E+02  0.54367076844E+02  0.39999983281E+02 0.  0.
         12    1    3    3    0    0 -0.20288901286E+02  0.61172661870E+01  0.30111790400E+02  0.36820923156E+02  0.00000000000E+00 0. -1.
         11    1    4    4    0    0  0.42451258371E+01  0.98971091976E+01  0.13911795583E+01  0.10858602335E+02  0.51100000000E-03 0. -1.
        -11    1    4    4    0    0  0.18951019952E+01  0.45428964827E+01 -0.37695147399E+01  0.61998840038E+01  0.51100000000E-03 0.  1.
        -12    1    4    4    0    0  0.14148673453E+02 -0.20557271867E+02 -0.27733455219E+02  0.37308590505E+02  0.00000000000E+00 0.  1.
</event>
<event>
 8    1  0.2432279E-006  0.9118800E+02  0.7816164E-02  0.1184000E+00
        -11   -1    0    0    0    0  0.00000000000E+00  0.00000000000E+00  0.45593999997E+02  0.45594000000E+02  0.51100000000E-03 0. -1.
         11   -1    0    0    0    0 -0.00000000000E+00 -0.00000000000E+00 -0.45593999997E+02  0.45594000000E+02  0.51100000000E-03 0.  1.
         23    2    1    2    0    0 -0.17763568394E-14  0.35527136788E-14  0.71054273576E-14  0.91188000000E+02  0.91188000000E+02 0.  0.
    9900012    2    3    3    0    0  0.14264384622E+02  0.20817454101E+02  0.26813039608E+02  0.54367107060E+02  0.40000052164E+02 0.  0.
        -12    1    3    3    0    0 -0.14264384622E+02 -0.20817454101E+02 -0.26813039608E+02  0.36820892940E+02  0.00000000000E+00 0.  1.
         11    1    4    4    0    0  0.23299549475E+01 -0.56558232880E+01 -0.71634158082E+00  0.61587476522E+01  0.51100000000E-03 0. -1.
        -11    1    4    4    0    0  0.19423122010E+02  0.11866871190E+02  0.19321488880E+02  0.29856326520E+02  0.51100000000E-03 0.  1.
         12    1    4    4    0    0 -0.74886923355E+01  0.14606406199E+02  0.82078923087E+01  0.18352032887E+02  0.00000000000E+00 0. -1.
</event>
<event>
 8    1  0.2432279E-006  0.9118800E+02  0.7816164E-02  0.1184000E+00
        -11   -1    0    0    0    0  0.00000000000E+00  0.00000000000E+00  0.45593999997E+02  0.45594000000E+02  0.51100000000E-03 0.  1.
         11   -1    0    0    0    0 -0.00000000000E+00 -0.00000000000E+00 -0.45593999997E+02  0.45594000000E+02  0.51100000000E-03 0. -1.
         23    2    1    2    0    0  0.35527136788E-14  0.00000000000E+00 -0.88817841970E-15  0.91188000000E+02  0.91188000000E+02 0.  0.
    9900012    2    3    3    0    0  0.25320785758E+02 -0.25524834777E+02 -0.79448057028E+01  0.54367091274E+02  0.40000016177E+02 0.  0.
        -12    1    3    3    0    0 -0.25320785758E+02  0.25524834777E+02  0.79448057028E+01  0.36820908726E+02  0.00000000000E+00 0.  1.
         11    1    4    4    0    0  0.85466980887E+01 -0.52119955168E+01  0.82976893439E+01  0.13002407246E+02  0.51100000000E-03 0. -1.
        -11    1    4    4    0    0  0.10279101801E+02  0.10988782927E+01  0.41034062719E+01  0.11122293407E+02  0.51100000000E-03 0.  1.
         12    1    4    4    0    0  0.64949858682E+01 -0.21411717552E+02 -0.20345901319E+02  0.30242390620E+02  0.00000000000E+00 0. -1.
</event>
<event>
 8    1  0.2432279E-006  0.9118800E+02  0.7816164E-02  0.1184000E+00
        -11   -1    0    0    0    0  0.00000000000E+00  0.00000000000E+00  0.45593999997E+02  0.45594000000E+02  0.51100000000E-03 0.  1.
         11   -1    0    0    0    0 -0.00000000000E+00 -0.00000000000E+00 -0.45593999997E+02  0.45594000000E+02  0.51100000000E-03 0. -1.
         23    2    1    2    0    0 -0.35527136788E-14 -0.22204460493E-14  0.00000000000E+00  0.91188000000E+02  0.91188000000E+02 0.  0.
    9900012    2    3    3    0    0 -0.31395416225E+02  0.34353675764E+01 -0.18928935820E+02  0.54367102107E+02  0.40000040874E+02 0.  0.
        -12    1    3    3    0    0  0.31395416225E+02 -0.34353675764E+01  0.18928935820E+02  0.36820897893E+02  0.00000000000E+00 0.  1.
         11    1    4    4    0    0 -0.14414575058E+02  0.15113225293E+02 -0.17716773513E+02  0.27387471895E+02  0.51100000000E-03 0. -1.
        -11    1    4    4    0    0 -0.70966714265E+00 -0.76055552516E+01 -0.57993369536E+01  0.95906416626E+01  0.51100000000E-03 0.  1.
        -12    1    4    4    0    0 -0.16271174025E+02 -0.40723024650E+01  0.45871746469E+01  0.17388988549E+02  0.00000000000E+00 0.  1.
</event>
<event>
 8    1  0.2432279E-006  0.9118800E+02  0.7816164E-02  0.1184000E+00
        -11   -1    0    0    0    0  0.00000000000E+00  0.00000000000E+00  0.45593999997E+02  0.45594000000E+02  0.51100000000E-03 0.  1.
         11   -1    0    0    0    0 -0.00000000000E+00 -0.00000000000E+00 -0.45593999997E+02  0.45594000000E+02  0.51100000000E-03 0. -1.
         23    2    1    2    0    0  0.00000000000E+00  0.00000000000E+00  0.00000000000E+00  0.91188000000E+02  0.91188000000E+02 0.  0.
    9900012    2    3    3    0    0 -0.29647117711E+02  0.16985025864E+02  0.13723599479E+02  0.54367083732E+02  0.39999998984E+02 0.  0.
         12    1    3    3    0    0  0.29647117711E+02 -0.16985025864E+02 -0.13723599479E+02  0.36820916268E+02  0.00000000000E+00 0. -1.
         11    1    4    4    0    0 -0.18318766626E+02 -0.86414712779E+01  0.87700916669E+01  0.22071854128E+02  0.51100000000E-03 0. -1.
        -11    1    4    4    0    0 -0.11276512103E+01  0.16120605330E+02  0.79865609402E+01  0.18025833389E+02  0.51100000000E-03 0.  1.
        -12    1    4    4    0    0 -0.10200699875E+02  0.95058918116E+01 -0.30330531286E+01  0.14269396215E+02  0.00000000000E+00 0.  1.
</event>
<event>
 8    1  0.2432279E-006  0.9118800E+02  0.7816164E-02  0.1184000E+00
        -11   -1    0    0    0    0  0.00000000000E+00  0.00000000000E+00  0.45593999997E+02  0.45594000000E+02  0.51100000000E-03 0.  1.
         11   -1    0    0    0    0 -0.00000000000E+00 -0.00000000000E+00 -0.45593999997E+02  0.45594000000E+02  0.51100000000E-03 0. -1.
         23    2    1    2    0    0 -0.35527136788E-14  0.00000000000E+00  0.00000000000E+00  0.91188000000E+02  0.91188000000E+02 0.  0.
    9900012    2    3    3    0    0 -0.25406841936E+02  0.14472854733E+02  0.22378754298E+02  0.54367084949E+02  0.40000001758E+02 0.  0.
         12    1    3    3    0    0  0.25406841936E+02 -0.14472854733E+02 -0.22378754298E+02  0.36820915051E+02  0.00000000000E+00 0. -1.
         11    1    4    4    0    0 -0.53391221191E+01  0.55393001616E+01  0.70384554084E+01  0.10427364292E+02  0.51100000000E-03 0. -1.
        -11    1    4    4    0    0 -0.16438166810E+01  0.18164652763E+02  0.14525949279E+02  0.23316516593E+02  0.51100000000E-03 0.  1.
         12    1    4    4    0    0 -0.18423903136E+02 -0.92310981917E+01  0.81434961058E+00  0.20623204064E+02  0.00000000000E+00 0. -1.
</event>
<event>
 8    1  0.2432279E-006  0.9118800E+02  0.7816164E-02  0.1184000E+00
        -11   -1    0    0    0    0  0.00000000000E+00  0.00000000000E+00  0.45593999997E+02  0.45594000000E+02  0.51100000000E-03 0.  1.
         11   -1    0    0    0    0 -0.00000000000E+00 -0.00000000000E+00 -0.45593999997E+02  0.45594000000E+02  0.51100000000E-03 0. -1.
         23    2    1    2    0    0 -0.71054273576E-14  0.00000000000E+00  0.00000000000E+00  0.91188000000E+02  0.91188000000E+02 0.  0.
    9900012    2    3    3    0    0 -0.36022476593E+02  0.66106124178E+01 -0.38027925319E+01  0.54367078672E+02  0.39999987448E+02 0.  0.
        -12    1    3    3    0    0  0.36022476593E+02 -0.66106124178E+01  0.38027925319E+01  0.36820921328E+02  0.00000000000E+00 0.  1.
         11    1    4    4    0    0 -0.23322104667E+02 -0.23206438284E+01 -0.14749108450E+02  0.27691914961E+02  0.51100000000E-03 0. -1.
        -11    1    4    4    0    0  0.28429825643E+01  0.69263690842E+01  0.75626335433E+01  0.10641924869E+02  0.51100000000E-03 0.  1.
        -12    1    4    4    0    0 -0.15543354491E+02  0.20048871620E+01  0.33836823746E+01  0.16033238842E+02  0.00000000000E+00 0.  1.
</event>
<event>
 8    1  0.2432279E-006  0.9118800E+02  0.7816164E-02  0.1184000E+00
        -11   -1    0    0    0    0  0.00000000000E+00  0.00000000000E+00  0.45593999997E+02  0.45594000000E+02  0.51100000000E-03 0.  1.
         11   -1    0    0    0    0 -0.00000000000E+00 -0.00000000000E+00 -0.45593999997E+02  0.45594000000E+02  0.51100000000E-03 0. -1.
         23    2    1    2    0    0  0.71054273576E-14 -0.71054273576E-14 -0.88817841970E-15  0.91188000000E+02  0.91188000000E+02 0.  0.
    9900012    2    3    3    0    0 -0.28945311134E+02  0.21549588980E+02  0.73187369980E+01  0.54367085656E+02  0.40000003370E+02 0.  0.
        -12    1    3    3    0    0  0.28945311134E+02 -0.21549588980E+02 -0.73187369980E+01  0.36820914344E+02  0.00000000000E+00 0.  1.
         11    1    4    4    0    0  0.24824839193E+01 -0.25380548948E+01  0.44184095040E+01  0.56680500937E+01  0.51100000000E-03 0. -1.
        -11    1    4    4    0    0  0.22341739036E+01  0.26349060160E+01 -0.67940704489E+01  0.76219194610E+01  0.51100000000E-03 0.  1.
         12    1    4    4    0    0 -0.33661968957E+02  0.21452737859E+02  0.96943979429E+01  0.41077116101E+02  0.00000000000E+00 0. -1.
</event>
<event>
 8    1  0.2432279E-006  0.9118800E+02  0.7816164E-02  0.1184000E+00
        -11   -1    0    0    0    0  0.00000000000E+00  0.00000000000E+00  0.45593999997E+02  0.45594000000E+02  0.51100000000E-03 0.  1.
         11   -1    0    0    0    0 -0.00000000000E+00 -0.00000000000E+00 -0.45593999997E+02  0.45594000000E+02  0.51100000000E-03 0. -1.
         23    2    1    2    0    0  0.00000000000E+00  0.00000000000E+00 -0.71054273576E-14  0.91188000000E+02  0.91188000000E+02 0.  0.
    9900012    2    3    3    0    0  0.33913738279E+01 -0.18243155196E+02  0.31803544412E+02  0.54367087937E+02  0.40000008570E+02 0.  0.
         12    1    3    3    0    0 -0.33913738279E+01  0.18243155196E+02 -0.31803544412E+02  0.36820912063E+02  0.00000000000E+00 0. -1.
         11    1    4    4    0    0 -0.97400468834E+01 -0.13424923236E+02  0.75808407227E+01  0.18236398315E+02  0.51100000000E-03 0. -1.
        -11    1    4    4    0    0 -0.54444603888E+01 -0.58159811138E+01  0.95585594195E+01  0.12443224810E+02  0.51100000000E-03 0.  1.
         12    1    4    4    0    0  0.18575881100E+02  0.99774915408E+00  0.14664144270E+02  0.23687464812E+02  0.00000000000E+00 0. -1.
</event>
<event>
 8    1  0.2432279E-006  0.9118800E+02  0.7816164E-02  0.1184000E+00
        -11   -1    0    0    0    0  0.00000000000E+00  0.00000000000E+00  0.45593999997E+02  0.45594000000E+02  0.51100000000E-03 0. -1.
         11   -1    0    0    0    0 -0.00000000000E+00 -0.00000000000E+00 -0.45593999997E+02  0.45594000000E+02  0.51100000000E-03 0.  1.
         23    2    1    2    0    0  0.17763568394E-14  0.00000000000E+00  0.00000000000E+00  0.91188000000E+02  0.91188000000E+02 0.  0.
    9900012    2    3    3    0    0 -0.85545299130E+01 -0.33882903090E+02 -0.11599510933E+02  0.54367085322E+02  0.40000002608E+02 0.  0.
        -12    1    3    3    0    0  0.85545299130E+01  0.33882903090E+02  0.11599510933E+02  0.36820914678E+02  0.00000000000E+00 0.  1.
         11    1    4    4    0    0  0.43948142248E+00 -0.14948533478E+02  0.43705796837E+01  0.15580557246E+02  0.51100000000E-03 0. -1.
        -11    1    4    4    0    0  0.55332676059E+01  0.46669800217E+01 -0.10586206354E+01  0.73156292165E+01  0.51100000000E-03 0.  1.
        -12    1    4    4    0    0 -0.14527278941E+02 -0.23601349634E+02 -0.14911469982E+02  0.31470898859E+02  0.00000000000E+00 0.  1.
</event>
<event>
 8    1  0.2432279E-006  0.9118800E+02  0.7816164E-02  0.1184000E+00
        -11   -1    0    0    0    0  0.00000000000E+00  0.00000000000E+00  0.45593999997E+02  0.45594000000E+02  0.51100000000E-03 0.  1.
         11   -1    0    0    0    0 -0.00000000000E+00 -0.00000000000E+00 -0.45593999997E+02  0.45594000000E+02  0.51100000000E-03 0. -1.
         23    2    1    2    0    0  0.00000000000E+00  0.00000000000E+00  0.00000000000E+00  0.91188000000E+02  0.91188000000E+02 0.  0.
    9900012    2    3    3    0    0  0.35347363344E+02  0.59156059371E+01 -0.84468969104E+01  0.54367074476E+02  0.39999977884E+02 0.  0.
        -12    1    3    3    0    0 -0.35347363344E+02 -0.59156059371E+01  0.84468969104E+01  0.36820925524E+02  0.00000000000E+00 0.  1.
         11    1    4    4    0    0 -0.45009278056E+01  0.21955427685E+01 -0.95459330079E+01  0.10779777197E+02  0.51100000000E-03 0. -1.
        -11    1    4    4    0    0 -0.80936324071E+00  0.67540057534E-01 -0.24797189295E+01  0.26093364569E+01  0.51100000000E-03 0.  1.
        -12    1    4    4    0    0  0.40657654391E+02  0.36525231111E+01  0.35787550270E+01  0.40977960823E+02  0.00000000000E+00 0.  1.
</event>
<event>
 8    1  0.2432279E-006  0.9118800E+02  0.7816164E-02  0.1184000E+00
        -11   -1    0    0    0    0  0.00000000000E+00  0.00000000000E+00  0.45593999997E+02  0.45594000000E+02  0.51100000000E-03 0. -1.
         11   -1    0    0    0    0 -0.00000000000E+00 -0.00000000000E+00 -0.45593999997E+02  0.45594000000E+02  0.51100000000E-03 0.  1.
         23    2    1    2    0    0  0.00000000000E+00  0.35527136788E-14  0.17763568394E-14  0.91188000000E+02  0.91188000000E+02 0.  0.
    9900012    2    3    3    0    0  0.23369386474E+02  0.24973639008E+02 -0.13637047670E+02  0.54367082865E+02  0.39999997008E+02 0.  0.
         12    1    3    3    0    0 -0.23369386474E+02 -0.24973639008E+02  0.13637047670E+02  0.36820917135E+02  0.00000000000E+00 0. -1.
         11    1    4    4    0    0  0.15439377937E+01  0.70104360095E+01  0.54689982029E+01  0.90244057178E+01  0.51100000000E-03 0. -1.
        -11    1    4    4    0    0  0.50064408549E+01  0.38878807725E+01  0.81715087824E+01  0.10341838472E+02  0.51100000000E-03 0.  1.
        -12    1    4    4    0    0  0.16819007826E+02  0.14075322226E+02 -0.27277554656E+02  0.35000838676E+02  0.00000000000E+00 0.  1.
</event>
<event>
 8    1  0.2432279E-006  0.9118800E+02  0.7816164E-02  0.1184000E+00
        -11   -1    0    0    0    0  0.00000000000E+00  0.00000000000E+00  0.45593999997E+02  0.45594000000E+02  0.51100000000E-03 0.  1.
         11   -1    0    0    0    0 -0.00000000000E+00 -0.00000000000E+00 -0.45593999997E+02  0.45594000000E+02  0.51100000000E-03 0. -1.
         23    2    1    2    0    0  0.35527136788E-14  0.00000000000E+00  0.00000000000E+00  0.91188000000E+02  0.91188000000E+02 0.  0.
    9900012    2    3    3    0    0  0.30404007444E+02  0.17669673773E+02  0.10915986894E+02  0.54367084615E+02  0.40000000997E+02 0.  0.
         12    1    3    3    0    0 -0.30404007444E+02 -0.17669673773E+02 -0.10915986894E+02  0.36820915385E+02  0.00000000000E+00 0. -1.
         11    1    4    4    0    0 -0.63581357407E+01 -0.21553747809E+01  0.79989888881E+01  0.10442957150E+02  0.51100000000E-03 0. -1.
        -11    1    4    4    0    0  0.85257030002E+01  0.68675244100E+01 -0.47355509807E+01  0.11927948127E+02  0.51100000000E-03 0.  1.
        -12    1    4    4    0    0  0.28236440185E+02  0.12957524144E+02  0.76525489870E+01  0.31996179338E+02  0.00000000000E+00 0.  1.
</event>
<event>
 8    1  0.2432279E-006  0.9118800E+02  0.7816164E-02  0.1184000E+00
        -11   -1    0    0    0    0  0.00000000000E+00  0.00000000000E+00  0.45593999997E+02  0.45594000000E+02  0.51100000000E-03 0.  1.
         11   -1    0    0    0    0 -0.00000000000E+00 -0.00000000000E+00 -0.45593999997E+02  0.45594000000E+02  0.51100000000E-03 0. -1.
         23    2    1    2    0    0  0.71054273576E-14 -0.44408920985E-15 -0.35527136788E-14  0.91188000000E+02  0.91188000000E+02 0.  0.
    9900012    2    3    3    0    0  0.32338577750E+02 -0.22570210468E+01  0.17461473358E+02  0.54367071077E+02  0.39999970135E+02 0.  0.
         12    1    3    3    0    0 -0.32338577750E+02  0.22570210468E+01 -0.17461473358E+02  0.36820928923E+02  0.00000000000E+00 0. -1.
         11    1    4    4    0    0  0.56279906211E+00 -0.81443765589E+01 -0.45734283423E+01  0.93575562719E+01  0.51100000000E-03 0. -1.
        -11    1    4    4    0    0  0.78640321278E+01  0.35609336384E+01 -0.40597133322E+01  0.95396290434E+01  0.51100000000E-03 0.  1.
        -12    1    4    4    0    0  0.23911746560E+02  0.23264218737E+01  0.26094615033E+02  0.35469885762E+02  0.00000000000E+00 0.  1.
</event>
<event>
 8    1  0.2432279E-006  0.9118800E+02  0.7816164E-02  0.1184000E+00
        -11   -1    0    0    0    0  0.00000000000E+00  0.00000000000E+00  0.45593999997E+02  0.45594000000E+02  0.51100000000E-03 0.  1.
         11   -1    0    0    0    0 -0.00000000000E+00 -0.00000000000E+00 -0.45593999997E+02  0.45594000000E+02  0.51100000000E-03 0. -1.
         23    2    1    2    0    0  0.00000000000E+00  0.00000000000E+00  0.17763568394E-14  0.91188000000E+02  0.91188000000E+02 0.  0.
    9900012    2    3    3    0    0 -0.29327219834E+02  0.17974592582E+02 -0.13137889209E+02  0.54367137238E+02  0.40000120961E+02 0.  0.
         12    1    3    3    0    0  0.29327219834E+02 -0.17974592582E+02  0.13137889209E+02  0.36820862762E+02  0.00000000000E+00 0. -1.
         11    1    4    4    0    0 -0.26818951336E+02  0.14294909509E+01 -0.18975469148E+02  0.32884160698E+02  0.51100000000E-03 0. -1.
        -11    1    4    4    0    0  0.34729393060E+00  0.67661556147E+01  0.85805120166E+01  0.10932824960E+02  0.51100000000E-03 0.  1.
         12    1    4    4    0    0 -0.28555624281E+01  0.97789460168E+01 -0.27429320770E+01  0.10550151580E+02  0.00000000000E+00 0. -1.
</event>
<event>
 8    1  0.2432279E-006  0.9118800E+02  0.7816164E-02  0.1184000E+00
        -11   -1    0    0    0    0  0.00000000000E+00  0.00000000000E+00  0.45593999997E+02  0.45594000000E+02  0.51100000000E-03 0.  1.
         11   -1    0    0    0    0 -0.00000000000E+00 -0.00000000000E+00 -0.45593999997E+02  0.45594000000E+02  0.51100000000E-03 0. -1.
         23    2    1    2    0    0  0.35527136788E-14  0.00000000000E+00 -0.35527136788E-14  0.91188000000E+02  0.91188000000E+02 0.  0.
    9900012    2    3    3    0    0  0.28912168374E+02  0.15327928602E+02 -0.16879606222E+02  0.54367082283E+02  0.39999995681E+02 0.  0.
        -12    1    3    3    0    0 -0.28912168374E+02 -0.15327928602E+02  0.16879606222E+02  0.36820917717E+02  0.00000000000E+00 0.  1.
         11    1    4    4    0    0  0.21651023537E+02  0.44957771389E+00  0.10026395281E+01  0.21678888961E+02  0.51100000000E-03 0. -1.
        -11    1    4    4    0    0  0.13193197886E+02  0.77416461319E+01 -0.17716433643E+02  0.23406528504E+02  0.51100000000E-03 0.  1.
        -12    1    4    4    0    0 -0.59320530491E+01  0.71367047557E+01 -0.16581210669E+00  0.92816648185E+01  0.00000000000E+00 0.  1.
</event>
<event>
 8    1  0.2432279E-006  0.9118800E+02  0.7816164E-02  0.1184000E+00
        -11   -1    0    0    0    0  0.00000000000E+00  0.00000000000E+00  0.45593999997E+02  0.45594000000E+02  0.51100000000E-03 0.  1.
         11   -1    0    0    0    0 -0.00000000000E+00 -0.00000000000E+00 -0.45593999997E+02  0.45594000000E+02  0.51100000000E-03 0. -1.
         23    2    1    2    0    0  0.00000000000E+00  0.17763568394E-14  0.55511151231E-15  0.91188000000E+02  0.91188000000E+02 0.  0.
    9900012    2    3    3    0    0  0.34286309846E+02 -0.13388966969E+02  0.98267479031E+00  0.54367066699E+02  0.39999960155E+02 0.  0.
         12    1    3    3    0    0 -0.34286309846E+02  0.13388966969E+02 -0.98267479031E+00  0.36820933301E+02  0.00000000000E+00 0. -1.
         11    1    4    4    0    0  0.24925550427E+02  0.16499888428E+00 -0.13193351229E+01  0.24960988245E+02  0.51100000000E-03 0. -1.
        -11    1    4    4    0    0  0.11295389494E+01  0.12364352568E+01  0.10476121788E+02  0.10609135609E+02  0.51100000000E-03 0.  1.
         12    1    4    4    0    0  0.82312204700E+01 -0.14790401110E+02 -0.81741118749E+01  0.18796942846E+02  0.00000000000E+00 0. -1.
</event>
<event>
 8    1  0.2432279E-006  0.9118800E+02  0.7816164E-02  0.1184000E+00
        -11   -1    0    0    0    0  0.00000000000E+00  0.00000000000E+00  0.45593999997E+02  0.45594000000E+02  0.51100000000E-03 0.  1.
         11   -1    0    0    0    0 -0.00000000000E+00 -0.00000000000E+00 -0.45593999997E+02  0.45594000000E+02  0.51100000000E-03 0. -1.
         23    2    1    2    0    0 -0.35527136788E-14  0.00000000000E+00  0.17763568394E-14  0.91188000000E+02  0.91188000000E+02 0.  0.
    9900012    2    3    3    0    0  0.27758794569E+02  0.21648085018E+02 -0.10797637096E+02  0.54367092519E+02  0.40000019015E+02 0.  0.
        -12    1    3    3    0    0 -0.27758794569E+02 -0.21648085018E+02  0.10797637096E+02  0.36820907481E+02  0.00000000000E+00 0.  1.
         11    1    4    4    0    0  0.20255777485E+02  0.11528339408E+02 -0.11204009950E+02  0.25859794474E+02  0.51100000000E-03 0. -1.
        -11    1    4    4    0    0 -0.15826029679E+01  0.39742993326E+01 -0.11529071800E+02  0.12297120971E+02  0.51100000000E-03 0.  1.
        -12    1    4    4    0    0  0.90856200527E+01  0.61454462772E+01  0.11935444654E+02  0.16210177074E+02  0.00000000000E+00 0.  1.
</event>
<event>
 8    1  0.2432279E-006  0.9118800E+02  0.7816164E-02  0.1184000E+00
        -11   -1    0    0    0    0  0.00000000000E+00  0.00000000000E+00  0.45593999997E+02  0.45594000000E+02  0.51100000000E-03 0. -1.
         11   -1    0    0    0    0 -0.00000000000E+00 -0.00000000000E+00 -0.45593999997E+02  0.45594000000E+02  0.51100000000E-03 0.  1.
         23    2    1    2    0    0  0.71054273576E-14  0.11102230246E-14  0.00000000000E+00  0.91188000000E+02  0.91188000000E+02 0.  0.
    9900012    2    3    3    0    0 -0.30231345650E+02  0.18321550776E+01  0.20940097612E+02  0.54367099141E+02  0.40000034112E+02 0.  0.
        -12    1    3    3    0    0  0.30231345650E+02 -0.18321550776E+01 -0.20940097612E+02  0.36820900859E+02  0.00000000000E+00 0.  1.
         11    1    4    4    0    0 -0.11442115438E+02 -0.43503842477E+01 -0.25691888607E+01  0.12507940696E+02  0.51100000000E-03 0. -1.
        -11    1    4    4    0    0  0.68854167757E+01  0.50707458101E+01  0.32989045784E+01  0.91653804572E+01  0.51100000000E-03 0.  1.
         12    1    4    4    0    0 -0.25674646988E+02  0.11117935151E+01  0.20210381894E+02  0.32693777988E+02  0.00000000000E+00 0. -1.
</event>
<event>
 8    1  0.2432279E-006  0.9118800E+02  0.7816164E-02  0.1184000E+00
        -11   -1    0    0    0    0  0.00000000000E+00  0.00000000000E+00  0.45593999997E+02  0.45594000000E+02  0.51100000000E-03 0.  1.
         11   -1    0    0    0    0 -0.00000000000E+00 -0.00000000000E+00 -0.45593999997E+02  0.45594000000E+02  0.51100000000E-03 0. -1.
         23    2    1    2    0    0  0.00000000000E+00  0.00000000000E+00  0.00000000000E+00  0.91188000000E+02  0.91188000000E+02 0.  0.
    9900012    2    3    3    0    0 -0.29865515051E+02 -0.59130191014E+01  0.20709113082E+02  0.54367080012E+02  0.39999990503E+02 0.  0.
        -12    1    3    3    0    0  0.29865515051E+02  0.59130191014E+01 -0.20709113082E+02  0.36820919988E+02  0.00000000000E+00 0.  1.
         11    1    4    4    0    0 -0.24926911810E+02 -0.32794624133E+01  0.10278896432E+02  0.27161765742E+02  0.51100000000E-03 0. -1.
        -11    1    4    4    0    0 -0.14263457403E+02  0.25005028832E+01  0.61123440936E+01  0.15718125917E+02  0.51100000000E-03 0.  1.
        -12    1    4    4    0    0  0.93248541627E+01 -0.51340595712E+01  0.43178725561E+01  0.11487188353E+02  0.00000000000E+00 0.  1.
</event>
<event>
 8    1  0.2432279E-006  0.9118800E+02  0.7816164E-02  0.1184000E+00
        -11   -1    0    0    0    0  0.00000000000E+00  0.00000000000E+00  0.45593999997E+02  0.45594000000E+02  0.51100000000E-03 0. -1.
         11   -1    0    0    0    0 -0.00000000000E+00 -0.00000000000E+00 -0.45593999997E+02  0.45594000000E+02  0.51100000000E-03 0.  1.
         23    2    1    2    0    0 -0.71054273576E-14  0.00000000000E+00  0.00000000000E+00  0.91188000000E+02  0.91188000000E+02 0.  0.
    9900012    2    3    3    0    0 -0.34574408740E+02 -0.65212884913E+01  0.10856511719E+02  0.54367071304E+02  0.39999970652E+02 0.  0.
        -12    1    3    3    0    0  0.34574408740E+02  0.65212884913E+01 -0.10856511719E+02  0.36820928696E+02  0.00000000000E+00 0.  1.
         11    1    4    4    0    0 -0.33729274998E+01 -0.13904047815E+01  0.77319503863E+01  0.85494398888E+01  0.51100000000E-03 0. -1.
        -11    1    4    4    0    0  0.68428715252E+01 -0.12412584904E+01 -0.19919958392E+01  0.72342007875E+01  0.51100000000E-03 0.  1.
        -12    1    4    4    0    0 -0.38044352766E+02 -0.38896252194E+01  0.51165571715E+01  0.38583430628E+02  0.00000000000E+00 0.  1.
</event>
<event>
 8    1  0.2432279E-006  0.9118800E+02  0.7816164E-02  0.1184000E+00
        -11   -1    0    0    0    0  0.00000000000E+00  0.00000000000E+00  0.45593999997E+02  0.45594000000E+02  0.51100000000E-03 0. -1.
         11   -1    0    0    0    0 -0.00000000000E+00 -0.00000000000E+00 -0.45593999997E+02  0.45594000000E+02  0.51100000000E-03 0.  1.
         23    2    1    2    0    0  0.00000000000E+00  0.00000000000E+00  0.00000000000E+00  0.91188000000E+02  0.91188000000E+02 0.  0.
    9900012    2    3    3    0    0  0.14138595227E+02  0.26128827081E+02 -0.21752406593E+02  0.54367045745E+02  0.39999912386E+02 0.  0.
         12    1    3    3    0    0 -0.14138595227E+02 -0.26128827081E+02  0.21752406593E+02  0.36820954255E+02  0.00000000000E+00 0. -1.
         11    1    4    4    0    0 -0.40163720395E+01  0.12967425156E+01 -0.36612284530E+01  0.55872515209E+01  0.51100000000E-03 0. -1.
        -11    1    4    4    0    0  0.23069239991E+02  0.48190806679E+01 -0.42287752948E+01  0.23943598581E+02  0.51100000000E-03 0.  1.
        -12    1    4    4    0    0 -0.49142727242E+01  0.20013003897E+02 -0.13862402845E+02  0.24836195644E+02  0.00000000000E+00 0.  1.
</event>
<event>
 8    1  0.2432279E-006  0.9118800E+02  0.7816164E-02  0.1184000E+00
        -11   -1    0    0    0    0  0.00000000000E+00  0.00000000000E+00  0.45593999997E+02  0.45594000000E+02  0.51100000000E-03 0.  1.
         11   -1    0    0    0    0 -0.00000000000E+00 -0.00000000000E+00 -0.45593999997E+02  0.45594000000E+02  0.51100000000E-03 0. -1.
         23    2    1    2    0    0  0.00000000000E+00 -0.71054273576E-14 -0.66613381478E-15  0.91188000000E+02  0.91188000000E+02 0.  0.
    9900012    2    3    3    0    0 -0.14898671432E+02 -0.33625451541E+02  0.17718379333E+01  0.54367071013E+02  0.39999969989E+02 0.  0.
        -12    1    3    3    0    0  0.14898671432E+02  0.33625451541E+02 -0.17718379333E+01  0.36820928987E+02  0.00000000000E+00 0.  1.
         11    1    4    4    0    0 -0.11154421074E+01 -0.24208650831E+01  0.39786786543E+01  0.47890169075E+01  0.51100000000E-03 0. -1.
        -11    1    4    4    0    0  0.87910913001E+01 -0.14926592660E+02  0.90643500130E+01  0.19551186565E+02  0.51100000000E-03 0.  1.
         12    1    4    4    0    0 -0.22574320625E+02 -0.16277993798E+02 -0.11271190734E+02  0.30026867541E+02  0.00000000000E+00 0. -1.
</event>
<event>
 8    1  0.2432279E-006  0.9118800E+02  0.7816164E-02  0.1184000E+00
        -11   -1    0    0    0    0  0.00000000000E+00  0.00000000000E+00  0.45593999997E+02  0.45594000000E+02  0.51100000000E-03 0.  1.
         11   -1    0    0    0    0 -0.00000000000E+00 -0.00000000000E+00 -0.45593999997E+02  0.45594000000E+02  0.51100000000E-03 0. -1.
         23    2    1    2    0    0  0.35527136788E-14 -0.71054273576E-14  0.00000000000E+00  0.91188000000E+02  0.91188000000E+02 0.  0.
    9900012    2    3    3    0    0  0.24229473229E+02 -0.24081392062E+02  0.13740391603E+02  0.54367093194E+02  0.40000020554E+02 0.  0.
         12    1    3    3    0    0 -0.24229473229E+02  0.24081392062E+02 -0.13740391603E+02  0.36820906806E+02  0.00000000000E+00 0. -1.
         11    1    4    4    0    0 -0.37566773827E+01 -0.42321372973E+01  0.56894068181E+01  0.80245224944E+01  0.51100000000E-03 0. -1.
        -11    1    4    4    0    0 -0.58253010867E+01 -0.23214861768E+01  0.52089180875E+01  0.81520708242E+01  0.51100000000E-03 0.  1.
         12    1    4    4    0    0  0.33811451698E+02 -0.17527768588E+02  0.28420666976E+01  0.38190499875E+02  0.00000000000E+00 0. -1.
</event>
<event>
 8    1  0.2432279E-006  0.9118800E+02  0.7816164E-02  0.1184000E+00
        -11   -1    0    0    0    0  0.00000000000E+00  0.00000000000E+00  0.45593999997E+02  0.45594000000E+02  0.51100000000E-03 0.  1.
         11   -1    0    0    0    0 -0.00000000000E+00 -0.00000000000E+00 -0.45593999997E+02  0.45594000000E+02  0.51100000000E-03 0. -1.
         23    2    1    2    0    0  0.00000000000E+00  0.26645352591E-14  0.00000000000E+00  0.91188000000E+02  0.91188000000E+02 0.  0.
    9900012    2    3    3    0    0  0.77263620125E+01  0.67961729327E+01 -0.35353855877E+02  0.54367085266E+02  0.40000002481E+02 0.  0.
        -12    1    3    3    0    0 -0.77263620125E+01 -0.67961729327E+01  0.35353855877E+02  0.36820914734E+02  0.00000000000E+00 0.  1.
         11    1    4    4    0    0  0.27638566831E+01 -0.10470458559E+02 -0.19388359625E+02  0.22207608953E+02  0.51100000000E-03 0.  1.
        -11    1    4    4    0    0  0.42860585981E+01 -0.26079459662E-01  0.39127164843E+01  0.58034755959E+01  0.51100000000E-03 0. -1.
        -12    1    4    4    0    0  0.67644673125E+00  0.17292710952E+02 -0.19878212736E+02  0.26356000717E+02  0.00000000000E+00 0.  1.
</event>
<event>
 8    1  0.2432279E-006  0.9118800E+02  0.7816164E-02  0.1184000E+00
        -11   -1    0    0    0    0  0.00000000000E+00  0.00000000000E+00  0.45593999997E+02  0.45594000000E+02  0.51100000000E-03 0. -1.
         11   -1    0    0    0    0 -0.00000000000E+00 -0.00000000000E+00 -0.45593999997E+02  0.45594000000E+02  0.51100000000E-03 0.  1.
         23    2    1    2    0    0  0.00000000000E+00  0.00000000000E+00  0.17763568394E-14  0.91188000000E+02  0.91188000000E+02 0.  0.
    9900012    2    3    3    0    0 -0.27369901672E+02  0.22040549649E+02 -0.10994642406E+02  0.54367088713E+02  0.40000010340E+02 0.  0.
         12    1    3    3    0    0  0.27369901672E+02 -0.22040549649E+02  0.10994642406E+02  0.36820911287E+02  0.00000000000E+00 0. -1.
         11    1    4    4    0    0  0.28566085071E+01  0.19918655355E+01 -0.98261772369E+01  0.10425041958E+02  0.51100000000E-03 0. -1.
        -11    1    4    4    0    0 -0.13793778733E+02  0.17895172310E+02 -0.10508066045E+02  0.24918366239E+02  0.51100000000E-03 0.  1.
        -12    1    4    4    0    0 -0.16432731446E+02  0.21535118029E+01  0.93396008764E+01  0.19023680517E+02  0.00000000000E+00 0.  1.
</event>
<event>
 8    1  0.2432279E-006  0.9118800E+02  0.7816164E-02  0.1184000E+00
        -11   -1    0    0    0    0  0.00000000000E+00  0.00000000000E+00  0.45593999997E+02  0.45594000000E+02  0.51100000000E-03 0. -1.
         11   -1    0    0    0    0 -0.00000000000E+00 -0.00000000000E+00 -0.45593999997E+02  0.45594000000E+02  0.51100000000E-03 0.  1.
         23    2    1    2    0    0  0.00000000000E+00  0.35527136788E-14  0.00000000000E+00  0.91188000000E+02  0.91188000000E+02 0.  0.
    9900012    2    3    3    0    0  0.22040509442E+02  0.18327146363E+02 -0.23110864714E+02  0.54367076355E+02  0.39999982166E+02 0.  0.
         12    1    3    3    0    0 -0.22040509442E+02 -0.18327146363E+02  0.23110864714E+02  0.36820923645E+02  0.00000000000E+00 0. -1.
         11    1    4    4    0    0  0.10178136389E+02 -0.13107063943E+01 -0.11715094801E+02  0.15574204894E+02  0.51100000000E-03 0. -1.
        -11    1    4    4    0    0  0.12234526873E+02 -0.41090670858E+01 -0.12493990625E+01  0.12966459748E+02  0.51100000000E-03 0.  1.
         12    1    4    4    0    0 -0.37215382068E+00  0.23746919843E+02 -0.10146370850E+02  0.25826411712E+02  0.00000000000E+00 0. -1.
</event>
<event>
 8    1  0.2432279E-006  0.9118800E+02  0.7816164E-02  0.1184000E+00
        -11   -1    0    0    0    0  0.00000000000E+00  0.00000000000E+00  0.45593999997E+02  0.45594000000E+02  0.51100000000E-03 0.  1.
         11   -1    0    0    0    0 -0.00000000000E+00 -0.00000000000E+00 -0.45593999997E+02  0.45594000000E+02  0.51100000000E-03 0. -1.
         23    2    1    2    0    0 -0.35527136788E-14 -0.72164496601E-15  0.00000000000E+00  0.91188000000E+02  0.91188000000E+02 0.  0.
    9900012    2    3    3    0    0 -0.13023334198E+02 -0.40586975002E+00 -0.34438462351E+02  0.54367086744E+02  0.40000005850E+02 0.  0.
        -12    1    3    3    0    0  0.13023334198E+02  0.40586975002E+00  0.34438462351E+02  0.36820913256E+02  0.00000000000E+00 0.  1.
         11    1    4    4    0    0  0.68313703034E+01 -0.10038544071E+01 -0.20629860504E+02  0.21754688887E+02  0.51100000000E-03 0. -1.
        -11    1    4    4    0    0 -0.55345790895E+00 -0.81519263973E+01 -0.55026339072E+01  0.98508476702E+01  0.51100000000E-03 0.  1.
        -12    1    4    4    0    0 -0.19301246592E+02  0.87499110544E+01 -0.83059679396E+01  0.22761550187E+02  0.00000000000E+00 0.  1.
</event>
<event>
 8    1  0.2432279E-006  0.9118800E+02  0.7816164E-02  0.1184000E+00
        -11   -1    0    0    0    0  0.00000000000E+00  0.00000000000E+00  0.45593999997E+02  0.45594000000E+02  0.51100000000E-03 0.  1.
         11   -1    0    0    0    0 -0.00000000000E+00 -0.00000000000E+00 -0.45593999997E+02  0.45594000000E+02  0.51100000000E-03 0. -1.
         23    2    1    2    0    0  0.35527136788E-14  0.35527136788E-14  0.00000000000E+00  0.91188000000E+02  0.91188000000E+02 0.  0.
    9900012    2    3    3    0    0  0.19085777278E+02  0.31386983434E+02 -0.25240615256E+01  0.54367075107E+02  0.39999979321E+02 0.  0.
         12    1    3    3    0    0 -0.19085777278E+02 -0.31386983434E+02  0.25240615256E+01  0.36820924893E+02  0.00000000000E+00 0. -1.
         11    1    4    4    0    0  0.53012169085E+01 -0.72201957300E+01 -0.43214597969E+01  0.99453075431E+01  0.51100000000E-03 0.  1.
        -11    1    4    4    0    0  0.43626843628E+01  0.27308171814E+02 -0.51861033345E+01  0.28136540845E+02  0.51100000000E-03 0. -1.
        -12    1    4    4    0    0  0.94218760071E+01  0.11299007351E+02  0.69835016058E+01  0.16285226719E+02  0.00000000000E+00 0.  1.
</event>
<event>
 8    1  0.2432279E-006  0.9118800E+02  0.7816164E-02  0.1184000E+00
        -11   -1    0    0    0    0  0.00000000000E+00  0.00000000000E+00  0.45593999997E+02  0.45594000000E+02  0.51100000000E-03 0.  1.
         11   -1    0    0    0    0 -0.00000000000E+00 -0.00000000000E+00 -0.45593999997E+02  0.45594000000E+02  0.51100000000E-03 0. -1.
         23    2    1    2    0    0  0.00000000000E+00  0.11102230246E-15  0.00000000000E+00  0.91188000000E+02  0.91188000000E+02 0.  0.
    9900012    2    3    3    0    0  0.22099171700E+02  0.91227251900E+00 -0.29437635877E+02  0.54367081530E+02  0.39999993964E+02 0.  0.
        -12    1    3    3    0    0 -0.22099171700E+02 -0.91227251900E+00  0.29437635877E+02  0.36820918470E+02  0.00000000000E+00 0.  1.
         11    1    4    4    0    0  0.50391819708E+01  0.11365362427E+02 -0.11473365855E+02  0.16917533577E+02  0.51100000000E-03 0. -1.
        -11    1    4    4    0    0 -0.50578965905E+01  0.37279354086E+01 -0.15556123533E+01  0.64730016519E+01  0.51100000000E-03 0.  1.
         12    1    4    4    0    0  0.22117886319E+02 -0.14181025316E+02 -0.16408657669E+02  0.30976546301E+02  0.00000000000E+00 0. -1.
</event>
<event>
 8    1  0.2432279E-006  0.9118800E+02  0.7816164E-02  0.1184000E+00
        -11   -1    0    0    0    0  0.00000000000E+00  0.00000000000E+00  0.45593999997E+02  0.45594000000E+02  0.51100000000E-03 0. -1.
         11   -1    0    0    0    0 -0.00000000000E+00 -0.00000000000E+00 -0.45593999997E+02  0.45594000000E+02  0.51100000000E-03 0.  1.
         23    2    1    2    0    0  0.00000000000E+00  0.00000000000E+00 -0.53290705182E-14  0.91188000000E+02  0.91188000000E+02 0.  0.
    9900012    2    3    3    0    0  0.33959800484E+02 -0.72138741659E+01 -0.12266648505E+02  0.54367099754E+02  0.40000035509E+02 0.  0.
         12    1    3    3    0    0 -0.33959800484E+02  0.72138741659E+01  0.12266648505E+02  0.36820900246E+02  0.00000000000E+00 0. -1.
         11    1    4    4    0    0  0.73883505503E+01  0.88165361485E+01  0.38894531434E+01  0.12142770669E+02  0.51100000000E-03 0. -1.
        -11    1    4    4    0    0  0.46507306715E+01 -0.58934418128E+01  0.58759394188E+01  0.95335521446E+01  0.51100000000E-03 0.  1.
        -12    1    4    4    0    0  0.21920719262E+02 -0.10136968502E+02 -0.22032041067E+02  0.32690776940E+02  0.00000000000E+00 0.  1.
</event>
<event>
 8    1  0.2432279E-006  0.9118800E+02  0.7816164E-02  0.1184000E+00
        -11   -1    0    0    0    0  0.00000000000E+00  0.00000000000E+00  0.45593999997E+02  0.45594000000E+02  0.51100000000E-03 0.  1.
         11   -1    0    0    0    0 -0.00000000000E+00 -0.00000000000E+00 -0.45593999997E+02  0.45594000000E+02  0.51100000000E-03 0. -1.
         23    2    1    2    0    0  0.00000000000E+00 -0.35527136788E-14  0.00000000000E+00  0.91188000000E+02  0.91188000000E+02 0.  0.
    9900012    2    3    3    0    0 -0.20155442833E+02 -0.17880999752E+02  0.25096009192E+02  0.54367058876E+02  0.39999942318E+02 0.  0.
         12    1    3    3    0    0  0.20155442833E+02  0.17880999752E+02 -0.25096009192E+02  0.36820941124E+02  0.00000000000E+00 0. -1.
         11    1    4    4    0    0 -0.82547498987E+01 -0.21780865156E+02  0.19719151131E+02  0.30518714003E+02  0.51100000000E-03 0. -1.
        -11    1    4    4    0    0 -0.14192403494E+02  0.55958372917E+01  0.10125063362E+02  0.18309959592E+02  0.51100000000E-03 0.  1.
         12    1    4    4    0    0  0.22917105595E+01 -0.16959718878E+01 -0.47482053006E+01  0.55383852800E+01  0.00000000000E+00 0. -1.
</event>
<event>
 8    1  0.2432279E-006  0.9118800E+02  0.7816164E-02  0.1184000E+00
        -11   -1    0    0    0    0  0.00000000000E+00  0.00000000000E+00  0.45593999997E+02  0.45594000000E+02  0.51100000000E-03 0.  1.
         11   -1    0    0    0    0 -0.00000000000E+00 -0.00000000000E+00 -0.45593999997E+02  0.45594000000E+02  0.51100000000E-03 0. -1.
         23    2    1    2    0    0  0.00000000000E+00  0.00000000000E+00 -0.44408920985E-15  0.91188000000E+02  0.91188000000E+02 0.  0.
    9900012    2    3    3    0    0  0.32868697019E+02 -0.16528900760E+02 -0.14915455258E+01  0.54367075078E+02  0.39999979255E+02 0.  0.
         12    1    3    3    0    0 -0.32868697019E+02  0.16528900760E+02  0.14915455258E+01  0.36820924922E+02  0.00000000000E+00 0. -1.
         11    1    4    4    0    0  0.10243433640E+01  0.90893179695E+01 -0.51572017036E+01  0.10500557611E+02  0.51100000000E-03 0. -1.
        -11    1    4    4    0    0  0.11515795856E+02 -0.18601972670E+02 -0.84068144950E+00  0.21894147322E+02  0.51100000000E-03 0.  1.
        -12    1    4    4    0    0  0.20328557798E+02 -0.70162460599E+01  0.45063376273E+01  0.21972370144E+02  0.00000000000E+00 0.  1.
</event>
<event>
 8    1  0.2432279E-006  0.9118800E+02  0.7816164E-02  0.1184000E+00
        -11   -1    0    0    0    0  0.00000000000E+00  0.00000000000E+00  0.45593999997E+02  0.45594000000E+02  0.51100000000E-03 0. -1.
         11   -1    0    0    0    0 -0.00000000000E+00 -0.00000000000E+00 -0.45593999997E+02  0.45594000000E+02  0.51100000000E-03 0.  1.
         23    2    1    2    0    0  0.00000000000E+00  0.00000000000E+00  0.00000000000E+00  0.91188000000E+02  0.91188000000E+02 0.  0.
    9900012    2    3    3    0    0  0.23835309850E+02  0.12645822167E+02  0.25054742429E+02  0.54367096534E+02  0.40000028168E+02 0.  0.
        -12    1    3    3    0    0 -0.23835309850E+02 -0.12645822167E+02 -0.25054742429E+02  0.36820903466E+02  0.00000000000E+00 0.  1.
         11    1    4    4    0    0  0.24614056739E+02  0.23268395477E+02  0.13486282190E+02  0.36457507112E+02  0.51100000000E-03 0. -1.
        -11    1    4    4    0    0  0.28940796017E+01 -0.62376328391E+01  0.27656631260E+01  0.74116565601E+01  0.51100000000E-03 0.  1.
         12    1    4    4    0    0 -0.36728264907E+01 -0.43849404713E+01  0.88027971123E+01  0.10497932862E+02  0.00000000000E+00 0. -1.
</event>
<event>
 8    1  0.2432279E-006  0.9118800E+02  0.7816164E-02  0.1184000E+00
        -11   -1    0    0    0    0  0.00000000000E+00  0.00000000000E+00  0.45593999997E+02  0.45594000000E+02  0.51100000000E-03 0.  1.
         11   -1    0    0    0    0 -0.00000000000E+00 -0.00000000000E+00 -0.45593999997E+02  0.45594000000E+02  0.51100000000E-03 0. -1.
         23    2    1    2    0    0  0.00000000000E+00 -0.44408920985E-15 -0.35527136788E-14  0.91188000000E+02  0.91188000000E+02 0.  0.
    9900012    2    3    3    0    0 -0.32369141869E+02  0.20720429082E+01  0.17427675140E+02  0.54367101479E+02  0.40000039441E+02 0.  0.
         12    1    3    3    0    0  0.32369141869E+02 -0.20720429082E+01 -0.17427675140E+02  0.36820898521E+02  0.00000000000E+00 0. -1.
         11    1    4    4    0    0 -0.10811722372E+02 -0.11363135472E+02  0.11847750372E+02  0.19656636984E+02  0.51100000000E-03 0. -1.
        -11    1    4    4    0    0 -0.21703351703E+02  0.15392520220E+01  0.66869434731E+01  0.22762249124E+02  0.51100000000E-03 0.  1.
         12    1    4    4    0    0  0.14593220581E+00  0.11895926358E+02 -0.11070187052E+01  0.11948215370E+02  0.00000000000E+00 0. -1.
</event>
<event>
 8    1  0.2432279E-006  0.9118800E+02  0.7816164E-02  0.1184000E+00
        -11   -1    0    0    0    0  0.00000000000E+00  0.00000000000E+00  0.45593999997E+02  0.45594000000E+02  0.51100000000E-03 0.  1.
         11   -1    0    0    0    0 -0.00000000000E+00 -0.00000000000E+00 -0.45593999997E+02  0.45594000000E+02  0.51100000000E-03 0. -1.
         23    2    1    2    0    0 -0.71054273576E-14  0.00000000000E+00  0.00000000000E+00  0.91188000000E+02  0.91188000000E+02 0.  0.
    9900012    2    3    3    0    0 -0.33270819173E+02 -0.91541034074E+01  0.12846569872E+02  0.54367090518E+02  0.40000014454E+02 0.  0.
         12    1    3    3    0    0  0.33270819173E+02  0.91541034074E+01 -0.12846569872E+02  0.36820909482E+02  0.00000000000E+00 0. -1.
         11    1    4    4    0    0 -0.54138681971E+01  0.60339802325E+01  0.10976408337E+02  0.13645527712E+02  0.51100000000E-03 0. -1.
        -11    1    4    4    0    0 -0.11711358211E+02  0.50440078157E+01  0.66778796673E+01  0.14394165593E+02  0.51100000000E-03 0.  1.
         12    1    4    4    0    0 -0.16145592764E+02 -0.20232091456E+02 -0.48077181323E+01  0.26327397213E+02  0.00000000000E+00 0. -1.
</event>
<event>
 8    1  0.2432279E-006  0.9118800E+02  0.7816164E-02  0.1184000E+00
        -11   -1    0    0    0    0  0.00000000000E+00  0.00000000000E+00  0.45593999997E+02  0.45594000000E+02  0.51100000000E-03 0.  1.
         11   -1    0    0    0    0 -0.00000000000E+00 -0.00000000000E+00 -0.45593999997E+02  0.45594000000E+02  0.51100000000E-03 0. -1.
         23    2    1    2    0    0  0.00000000000E+00  0.00000000000E+00  0.35527136788E-14  0.91188000000E+02  0.91188000000E+02 0.  0.
    9900012    2    3    3    0    0  0.60658104599E+01 -0.17738453338E+02  0.31691221015E+02  0.54367078328E+02  0.39999986664E+02 0.  0.
         12    1    3    3    0    0 -0.60658104599E+01  0.17738453338E+02 -0.31691221015E+02  0.36820921672E+02  0.00000000000E+00 0. -1.
         11    1    4    4    0    0  0.14396869127E+02 -0.71708541502E+00  0.43394606356E+01  0.15053736115E+02  0.51100000000E-03 0. -1.
        -11    1    4    4    0    0  0.33394159733E+00 -0.19148163799E+02  0.16620802397E+02  0.25357735831E+02  0.51100000000E-03 0.  1.
        -12    1    4    4    0    0 -0.86650002644E+01  0.21267958755E+01  0.10730957982E+02  0.13955606382E+02  0.00000000000E+00 0.  1.
</event>
<event>
 8    1  0.2432279E-006  0.9118800E+02  0.7816164E-02  0.1184000E+00
        -11   -1    0    0    0    0  0.00000000000E+00  0.00000000000E+00  0.45593999997E+02  0.45594000000E+02  0.51100000000E-03 0.  1.
         11   -1    0    0    0    0 -0.00000000000E+00 -0.00000000000E+00 -0.45593999997E+02  0.45594000000E+02  0.51100000000E-03 0. -1.
         23    2    1    2    0    0  0.00000000000E+00 -0.88817841970E-15  0.00000000000E+00  0.91188000000E+02  0.91188000000E+02 0.  0.
    9900012    2    3    3    0    0  0.97203196634E+01  0.54287785170E+01  0.35097340441E+02  0.54367088053E+02  0.40000008834E+02 0.  0.
         12    1    3    3    0    0 -0.97203196634E+01 -0.54287785170E+01 -0.35097340441E+02  0.36820911947E+02  0.00000000000E+00 0. -1.
         11    1    4    4    0    0  0.95401151955E+01  0.11951845393E+02 -0.88654075372E+00  0.15318170942E+02  0.51100000000E-03 0. -1.
        -11    1    4    4    0    0  0.49226917390E+01 -0.76810010275E+01  0.15448150760E+02  0.17940903904E+02  0.51100000000E-03 0.  1.
         12    1    4    4    0    0 -0.47424872711E+01  0.11579341514E+01  0.20535730436E+02  0.21108013207E+02  0.00000000000E+00 0. -1.
</event>
<event>
 8    1  0.2432279E-006  0.9118800E+02  0.7816164E-02  0.1184000E+00
        -11   -1    0    0    0    0  0.00000000000E+00  0.00000000000E+00  0.45593999997E+02  0.45594000000E+02  0.51100000000E-03 0. -1.
         11   -1    0    0    0    0 -0.00000000000E+00 -0.00000000000E+00 -0.45593999997E+02  0.45594000000E+02  0.51100000000E-03 0.  1.
         23    2    1    2    0    0  0.00000000000E+00  0.00000000000E+00  0.00000000000E+00  0.91188000000E+02  0.91188000000E+02 0.  0.
    9900012    2    3    3    0    0 -0.16341527284E+02  0.19273280166E+02 -0.26781999500E+02  0.54367077421E+02  0.39999984598E+02 0.  0.
         12    1    3    3    0    0  0.16341527284E+02 -0.19273280166E+02  0.26781999500E+02  0.36820922579E+02  0.00000000000E+00 0. -1.
         11    1    4    4    0    0  0.43644380219E+00  0.11228410601E+02  0.42065553040E+01  0.11998449717E+02  0.51100000000E-03 0. -1.
        -11    1    4    4    0    0 -0.15712122279E+02 -0.38414800511E+01 -0.22555527545E+02  0.27755712540E+02  0.51100000000E-03 0.  1.
        -12    1    4    4    0    0 -0.10658488073E+01  0.11886349616E+02 -0.84330272590E+01  0.14612915165E+02  0.00000000000E+00 0.  1.
</event>
<event>
 8    1  0.2432279E-006  0.9118800E+02  0.7816164E-02  0.1184000E+00
        -11   -1    0    0    0    0  0.00000000000E+00  0.00000000000E+00  0.45593999997E+02  0.45594000000E+02  0.51100000000E-03 0. -1.
         11   -1    0    0    0    0 -0.00000000000E+00 -0.00000000000E+00 -0.45593999997E+02  0.45594000000E+02  0.51100000000E-03 0.  1.
         23    2    1    2    0    0 -0.35527136788E-14 -0.35527136788E-14  0.00000000000E+00  0.91188000000E+02  0.91188000000E+02 0.  0.
    9900012    2    3    3    0    0  0.30624338225E+02  0.16519919523E+02  0.12042526057E+02  0.54367078412E+02  0.39999986856E+02 0.  0.
        -12    1    3    3    0    0 -0.30624338225E+02 -0.16519919523E+02 -0.12042526057E+02  0.36820921588E+02  0.00000000000E+00 0.  1.
         11    1    4    4    0    0  0.35276996646E+02  0.12962929177E+01  0.93388121166E+01  0.36515206143E+02  0.51100000000E-03 0. -1.
        -11    1    4    4    0    0 -0.53909773038E+01  0.76822406496E+01  0.39321108014E+01  0.10175507521E+02  0.51100000000E-03 0.  1.
         12    1    4    4    0    0  0.73831888334E+00  0.75413859553E+01 -0.12283968610E+01  0.76763647483E+01  0.00000000000E+00 0. -1.
</event>
<event>
 8    1  0.2432279E-006  0.9118800E+02  0.7816164E-02  0.1184000E+00
        -11   -1    0    0    0    0  0.00000000000E+00  0.00000000000E+00  0.45593999997E+02  0.45594000000E+02  0.51100000000E-03 0. -1.
         11   -1    0    0    0    0 -0.00000000000E+00 -0.00000000000E+00 -0.45593999997E+02  0.45594000000E+02  0.51100000000E-03 0.  1.
         23    2    1    2    0    0 -0.35527136788E-14  0.00000000000E+00  0.00000000000E+00  0.91188000000E+02  0.91188000000E+02 0.  0.
    9900012    2    3    3    0    0  0.29989267035E+02 -0.40698286136E+01  0.20972624830E+02  0.54367209208E+02  0.40000285032E+02 0.  0.
        -12    1    3    3    0    0 -0.29989267035E+02  0.40698286136E+01 -0.20972624830E+02  0.36820790792E+02  0.00000000000E+00 0.  1.
         11    1    4    4    0    0  0.79746208863E+01  0.12729445599E+02  0.48406812552E+01  0.15781811012E+02  0.51100000000E-03 0. -1.
        -11    1    4    4    0    0  0.39641315307E+01 -0.70317889358E+01 -0.47007352497E+01  0.93411619502E+01  0.51100000000E-03 0.  1.
         12    1    4    4    0    0  0.18050514618E+02 -0.97674852771E+01  0.20832678824E+02  0.29244236246E+02  0.00000000000E+00 0. -1.
</event>
<event>
 8    1  0.2432279E-006  0.9118800E+02  0.7816164E-02  0.1184000E+00
        -11   -1    0    0    0    0  0.00000000000E+00  0.00000000000E+00  0.45593999997E+02  0.45594000000E+02  0.51100000000E-03 0. -1.
         11   -1    0    0    0    0 -0.00000000000E+00 -0.00000000000E+00 -0.45593999997E+02  0.45594000000E+02  0.51100000000E-03 0.  1.
         23    2    1    2    0    0  0.00000000000E+00  0.88817841970E-15  0.00000000000E+00  0.91188000000E+02  0.91188000000E+02 0.  0.
    9900012    2    3    3    0    0 -0.25773136823E+02 -0.69022391485E+01 -0.25374869233E+02  0.54367089154E+02  0.40000011344E+02 0.  0.
         12    1    3    3    0    0  0.25773136823E+02  0.69022391485E+01  0.25374869233E+02  0.36820910846E+02  0.00000000000E+00 0. -1.
         11    1    4    4    0    0  0.16111924000E+01 -0.21569958386E+01  0.71562643927E+00  0.27858021213E+01  0.51100000000E-03 0. -1.
        -11    1    4    4    0    0 -0.17592055761E+02  0.32005606935E+01  0.45470966621E+01  0.18449935039E+02  0.51100000000E-03 0.  1.
        -12    1    4    4    0    0 -0.97922734622E+01 -0.79458040035E+01 -0.30637592335E+02  0.33131351993E+02  0.00000000000E+00 0.  1.
</event>
<event>
 8    1  0.2432279E-006  0.9118800E+02  0.7816164E-02  0.1184000E+00
        -11   -1    0    0    0    0  0.00000000000E+00  0.00000000000E+00  0.45593999997E+02  0.45594000000E+02  0.51100000000E-03 0. -1.
         11   -1    0    0    0    0 -0.00000000000E+00 -0.00000000000E+00 -0.45593999997E+02  0.45594000000E+02  0.51100000000E-03 0.  1.
         23    2    1    2    0    0  0.35527136788E-14  0.00000000000E+00  0.00000000000E+00  0.91188000000E+02  0.91188000000E+02 0.  0.
    9900012    2    3    3    0    0 -0.26531858013E+02 -0.10699258299E+02 -0.23181118569E+02  0.54367110876E+02  0.40000060864E+02 0.  0.
         12    1    3    3    0    0  0.26531858013E+02  0.10699258299E+02  0.23181118569E+02  0.36820889124E+02  0.00000000000E+00 0. -1.
         11    1    4    4    0    0 -0.10369520834E+01 -0.50016646356E+01  0.14427339214E+01  0.53078621100E+01  0.51100000000E-03 0. -1.
        -11    1    4    4    0    0 -0.10128588739E+02  0.13113185343E+02 -0.16662303005E+02  0.23498431466E+02  0.51100000000E-03 0.  1.
        -12    1    4    4    0    0 -0.15366317191E+02 -0.18810779006E+02 -0.79615494855E+01  0.25560817300E+02  0.00000000000E+00 0.  1.
</event>
<event>
 8    1  0.2432279E-006  0.9118800E+02  0.7816164E-02  0.1184000E+00
        -11   -1    0    0    0    0  0.00000000000E+00  0.00000000000E+00  0.45593999997E+02  0.45594000000E+02  0.51100000000E-03 0.  1.
         11   -1    0    0    0    0 -0.00000000000E+00 -0.00000000000E+00 -0.45593999997E+02  0.45594000000E+02  0.51100000000E-03 0. -1.
         23    2    1    2    0    0  0.00000000000E+00 -0.88817841970E-15  0.35527136788E-14  0.91188000000E+02  0.91188000000E+02 0.  0.
    9900012    2    3    3    0    0  0.20230591548E+02 -0.11928307222E+01 -0.30742164495E+02  0.54367077180E+02  0.39999984046E+02 0.  0.
        -12    1    3    3    0    0 -0.20230591548E+02  0.11928307222E+01  0.30742164495E+02  0.36820922820E+02  0.00000000000E+00 0.  1.
         11    1    4    4    0    0 -0.25994957583E+01 -0.66779150271E+01 -0.12416472433E+02  0.14335993695E+02  0.51100000000E-03 0. -1.
        -11    1    4    4    0    0  0.18851068269E+02  0.14277735661E+02 -0.60380577610E+01  0.24406446941E+02  0.51100000000E-03 0.  1.
        -12    1    4    4    0    0  0.39790190367E+01 -0.87926513563E+01 -0.12287634302E+02  0.15624636543E+02  0.00000000000E+00 0.  1.
</event>
<event>
 8    1  0.2432279E-006  0.9118800E+02  0.7816164E-02  0.1184000E+00
        -11   -1    0    0    0    0  0.00000000000E+00  0.00000000000E+00  0.45593999997E+02  0.45594000000E+02  0.51100000000E-03 0.  1.
         11   -1    0    0    0    0 -0.00000000000E+00 -0.00000000000E+00 -0.45593999997E+02  0.45594000000E+02  0.51100000000E-03 0. -1.
         23    2    1    2    0    0  0.00000000000E+00 -0.22204460493E-15 -0.71054273576E-14  0.91188000000E+02  0.91188000000E+02 0.  0.
    9900012    2    3    3    0    0 -0.62432718587E+01 -0.17995424818E+01 -0.36243111927E+02  0.54367082592E+02  0.39999996385E+02 0.  0.
        -12    1    3    3    0    0  0.62432718587E+01  0.17995424818E+01  0.36243111927E+02  0.36820917408E+02  0.00000000000E+00 0.  1.
         11    1    4    4    0    0 -0.47748198147E+01 -0.12521381018E+02 -0.29588705230E+02  0.32481923654E+02  0.51100000000E-03 0. -1.
        -11    1    4    4    0    0 -0.32918086026E+01  0.34159223798E+01  0.57006194399E+01  0.74163058082E+01  0.51100000000E-03 0.  1.
        -12    1    4    4    0    0  0.18233565586E+01  0.73059161565E+01 -0.12355026137E+02  0.14468853129E+02  0.00000000000E+00 0.  1.
</event>
<event>
 8    1  0.2432279E-006  0.9118800E+02  0.7816164E-02  0.1184000E+00
        -11   -1    0    0    0    0  0.00000000000E+00  0.00000000000E+00  0.45593999997E+02  0.45594000000E+02  0.51100000000E-03 0. -1.
         11   -1    0    0    0    0 -0.00000000000E+00 -0.00000000000E+00 -0.45593999997E+02  0.45594000000E+02  0.51100000000E-03 0.  1.
         23    2    1    2    0    0 -0.17763568394E-14  0.00000000000E+00 -0.35527136788E-14  0.91188000000E+02  0.91188000000E+02 0.  0.
    9900012    2    3    3    0    0  0.24609966328E+01 -0.22263678129E+02  0.29224175394E+02  0.54367078017E+02  0.39999985955E+02 0.  0.
        -12    1    3    3    0    0 -0.24609966328E+01  0.22263678129E+02 -0.29224175394E+02  0.36820921983E+02  0.00000000000E+00 0.  1.
         11    1    4    4    0    0  0.16630927976E+02 -0.79453528809E+01  0.14738190879E+02  0.23599378560E+02  0.51100000000E-03 0. -1.
        -11    1    4    4    0    0  0.90340980784E-01  0.28729857108E+01  0.63952306852E+01  0.70115037022E+01  0.51100000000E-03 0.  1.
        -12    1    4    4    0    0 -0.14260272324E+02 -0.17191310959E+02  0.80907538292E+01  0.23756195755E+02  0.00000000000E+00 0.  1.
</event>
<event>
 8    1  0.2432279E-006  0.9118800E+02  0.7816164E-02  0.1184000E+00
        -11   -1    0    0    0    0  0.00000000000E+00  0.00000000000E+00  0.45593999997E+02  0.45594000000E+02  0.51100000000E-03 0. -1.
         11   -1    0    0    0    0 -0.00000000000E+00 -0.00000000000E+00 -0.45593999997E+02  0.45594000000E+02  0.51100000000E-03 0.  1.
         23    2    1    2    0    0  0.00000000000E+00 -0.35527136788E-14 -0.10658141036E-13  0.91188000000E+02  0.91188000000E+02 0.  0.
    9900012    2    3    3    0    0  0.18446152475E+02 -0.16051991929E+02  0.27529143996E+02  0.54367071777E+02  0.39999971731E+02 0.  0.
        -12    1    3    3    0    0 -0.18446152475E+02  0.16051991929E+02 -0.27529143996E+02  0.36820928223E+02  0.00000000000E+00 0.  1.
         11    1    4    4    0    0  0.15797630795E+02 -0.69051139119E+01  0.36450460226E+01  0.17621920940E+02  0.51100000000E-03 0. -1.
        -11    1    4    4    0    0 -0.22387512392E+01  0.25658174677E+01 -0.45056699693E+01  0.56476976302E+01  0.51100000000E-03 0.  1.
        -12    1    4    4    0    0  0.48872729197E+01 -0.11712695484E+02  0.28389767943E+02  0.31097453207E+02  0.00000000000E+00 0.  1.
</event>
<event>
 8    1  0.2432279E-006  0.9118800E+02  0.7816164E-02  0.1184000E+00
        -11   -1    0    0    0    0  0.00000000000E+00  0.00000000000E+00  0.45593999997E+02  0.45594000000E+02  0.51100000000E-03 0.  1.
         11   -1    0    0    0    0 -0.00000000000E+00 -0.00000000000E+00 -0.45593999997E+02  0.45594000000E+02  0.51100000000E-03 0. -1.
         23    2    1    2    0    0  0.00000000000E+00  0.00000000000E+00 -0.17763568394E-14  0.91188000000E+02  0.91188000000E+02 0.  0.
    9900012    2    3    3    0    0 -0.36255785982E+02  0.25406665052E+01 -0.59031390586E+01  0.54367026979E+02  0.39999869603E+02 0.  0.
        -12    1    3    3    0    0  0.36255785982E+02 -0.25406665052E+01  0.59031390586E+01  0.36820973021E+02  0.00000000000E+00 0.  1.
         11    1    4    4    0    0 -0.78457518197E+01  0.83644802945E+01 -0.46272685633E+00  0.11477563706E+02  0.51100000000E-03 0. -1.
        -11    1    4    4    0    0 -0.24067836714E+02  0.53919908771E+00  0.96583659734E+01  0.25939073485E+02  0.51100000000E-03 0.  1.
        -12    1    4    4    0    0 -0.43421974485E+01 -0.63630128770E+01 -0.15098778176E+02  0.16950389788E+02  0.00000000000E+00 0.  1.
</event>
<event>
 8    1  0.2432279E-006  0.9118800E+02  0.7816164E-02  0.1184000E+00
        -11   -1    0    0    0    0  0.00000000000E+00  0.00000000000E+00  0.45593999997E+02  0.45594000000E+02  0.51100000000E-03 0.  1.
         11   -1    0    0    0    0 -0.00000000000E+00 -0.00000000000E+00 -0.45593999997E+02  0.45594000000E+02  0.51100000000E-03 0. -1.
         23    2    1    2    0    0  0.00000000000E+00  0.00000000000E+00  0.88817841970E-15  0.91188000000E+02  0.91188000000E+02 0.  0.
    9900012    2    3    3    0    0  0.29968814380E+02 -0.20058025621E+02 -0.74382008821E+01  0.54367067645E+02  0.39999962310E+02 0.  0.
        -12    1    3    3    0    0 -0.29968814380E+02  0.20058025621E+02  0.74382008821E+01  0.36820932355E+02  0.00000000000E+00 0.  1.
         11    1    4    4    0    0  0.16708892204E+02  0.37549192953E+01  0.41362591182E+01  0.17618034435E+02  0.51100000000E-03 0. -1.
        -11    1    4    4    0    0 -0.44056816228E+01  0.90373838017E+00 -0.15623133211E+01  0.47610499677E+01  0.51100000000E-03 0.  1.
         12    1    4    4    0    0  0.17665603798E+02 -0.24716683297E+02 -0.10012146679E+02  0.31987983242E+02  0.00000000000E+00 0. -1.
</event>
<event>
 8    1  0.2432279E-006  0.9118800E+02  0.7816164E-02  0.1184000E+00
        -11   -1    0    0    0    0  0.00000000000E+00  0.00000000000E+00  0.45593999997E+02  0.45594000000E+02  0.51100000000E-03 0. -1.
         11   -1    0    0    0    0 -0.00000000000E+00 -0.00000000000E+00 -0.45593999997E+02  0.45594000000E+02  0.51100000000E-03 0.  1.
         23    2    1    2    0    0  0.44408920985E-15 -0.35527136788E-14 -0.35527136788E-14  0.91188000000E+02  0.91188000000E+02 0.  0.
    9900012    2    3    3    0    0  0.36474142759E+01  0.29587128156E+02 -0.21611976366E+02  0.54367091458E+02  0.40000016597E+02 0.  0.
         12    1    3    3    0    0 -0.36474142759E+01 -0.29587128156E+02  0.21611976366E+02  0.36820908542E+02  0.00000000000E+00 0. -1.
         11    1    4    4    0    0  0.10672626277E+02  0.54568279944E+01  0.70298424738E+01  0.13896064511E+02  0.51100000000E-03 0. -1.
        -11    1    4    4    0    0 -0.52337531001E+01  0.25010162973E+02 -0.28760498449E+02  0.38471634937E+02  0.51100000000E-03 0.  1.
        -12    1    4    4    0    0 -0.17914589011E+01 -0.87986281119E+00  0.11867960956E+00  0.19993920102E+01  0.00000000000E+00 0.  1.
</event>
<event>
 8    1  0.2432279E-006  0.9118800E+02  0.7816164E-02  0.1184000E+00
        -11   -1    0    0    0    0  0.00000000000E+00  0.00000000000E+00  0.45593999997E+02  0.45594000000E+02  0.51100000000E-03 0. -1.
         11   -1    0    0    0    0 -0.00000000000E+00 -0.00000000000E+00 -0.45593999997E+02  0.45594000000E+02  0.51100000000E-03 0.  1.
         23    2    1    2    0    0  0.00000000000E+00  0.00000000000E+00  0.00000000000E+00  0.91188000000E+02  0.91188000000E+02 0.  0.
    9900012    2    3    3    0    0 -0.30968491463E+02  0.10589248468E+02 -0.16870092065E+02  0.54367086746E+02  0.40000005855E+02 0.  0.
         12    1    3    3    0    0  0.30968491463E+02 -0.10589248468E+02  0.16870092065E+02  0.36820913254E+02  0.00000000000E+00 0. -1.
         11    1    4    4    0    0 -0.30308455382E+01 -0.69674330851E+01 -0.10673975018E+02  0.13102094925E+02  0.51100000000E-03 0. -1.
        -11    1    4    4    0    0 -0.18529626933E+02  0.92769620093E+01 -0.15313829671E+02  0.25766693188E+02  0.51100000000E-03 0.  1.
         12    1    4    4    0    0 -0.94080189913E+01  0.82797195434E+01  0.91177126230E+01  0.15498298634E+02  0.00000000000E+00 0. -1.
</event>
<event>
 8    1  0.2432279E-006  0.9118800E+02  0.7816164E-02  0.1184000E+00
        -11   -1    0    0    0    0  0.00000000000E+00  0.00000000000E+00  0.45593999997E+02  0.45594000000E+02  0.51100000000E-03 0. -1.
         11   -1    0    0    0    0 -0.00000000000E+00 -0.00000000000E+00 -0.45593999997E+02  0.45594000000E+02  0.51100000000E-03 0.  1.
         23    2    1    2    0    0 -0.17763568394E-14  0.00000000000E+00 -0.17763568394E-14  0.91188000000E+02  0.91188000000E+02 0.  0.
    9900012    2    3    3    0    0 -0.87115794544E+01 -0.33477545306E+02  0.12615172720E+02  0.54367078785E+02  0.39999987707E+02 0.  0.
        -12    1    3    3    0    0  0.87115794544E+01  0.33477545306E+02 -0.12615172720E+02  0.36820921215E+02  0.00000000000E+00 0.  1.
         11    1    4    4    0    0 -0.16721449273E+02 -0.12215059956E+02  0.14476784303E+02  0.25266417228E+02  0.51100000000E-03 0. -1.
        -11    1    4    4    0    0 -0.23701675324E+01 -0.16732976491E+02 -0.44652838034E+01  0.17479958698E+02  0.51100000000E-03 0.  1.
        -12    1    4    4    0    0  0.10380037351E+02 -0.45295088595E+01  0.26036722208E+01  0.11620702860E+02  0.00000000000E+00 0.  1.
</event>
<event>
 8    1  0.2432279E-006  0.9118800E+02  0.7816164E-02  0.1184000E+00
        -11   -1    0    0    0    0  0.00000000000E+00  0.00000000000E+00  0.45593999997E+02  0.45594000000E+02  0.51100000000E-03 0. -1.
         11   -1    0    0    0    0 -0.00000000000E+00 -0.00000000000E+00 -0.45593999997E+02  0.45594000000E+02  0.51100000000E-03 0.  1.
         23    2    1    2    0    0  0.00000000000E+00  0.00000000000E+00  0.00000000000E+00  0.91188000000E+02  0.91188000000E+02 0.  0.
    9900012    2    3    3    0    0  0.15167104066E+02  0.13547744082E+01 -0.33524663789E+02  0.54367088257E+02  0.40000009300E+02 0.  0.
         12    1    3    3    0    0 -0.15167104066E+02 -0.13547744082E+01  0.33524663789E+02  0.36820911743E+02  0.00000000000E+00 0. -1.
         11    1    4    4    0    0  0.49406685020E+01 -0.29583723299E+01 -0.30886372502E+02  0.31418627893E+02  0.51100000000E-03 0. -1.
        -11    1    4    4    0    0 -0.50252155651E+01  0.50920101876E+00 -0.49362818182E+01  0.70625034940E+01  0.51100000000E-03 0.  1.
         12    1    4    4    0    0  0.15251651129E+02  0.38039457193E+01  0.22979905317E+01  0.15885956870E+02  0.00000000000E+00 0. -1.
</event>
<event>
 8    1  0.2432279E-006  0.9118800E+02  0.7816164E-02  0.1184000E+00
        -11   -1    0    0    0    0  0.00000000000E+00  0.00000000000E+00  0.45593999997E+02  0.45594000000E+02  0.51100000000E-03 0.  1.
         11   -1    0    0    0    0 -0.00000000000E+00 -0.00000000000E+00 -0.45593999997E+02  0.45594000000E+02  0.51100000000E-03 0. -1.
         23    2    1    2    0    0  0.00000000000E+00  0.35527136788E-14  0.00000000000E+00  0.91188000000E+02  0.91188000000E+02 0.  0.
    9900012    2    3    3    0    0 -0.28955201234E+02 -0.19332564662E+02  0.11984473420E+02  0.54367091020E+02  0.40000015599E+02 0.  0.
         12    1    3    3    0    0  0.28955201234E+02  0.19332564662E+02 -0.11984473420E+02  0.36820908980E+02  0.00000000000E+00 0. -1.
         11    1    4    4    0    0  0.33580437673E+01 -0.86378054494E+00  0.69118151233E+01  0.77327720341E+01  0.51100000000E-03 0. -1.
        -11    1    4    4    0    0 -0.90189778643E+01 -0.16410112704E+02 -0.73958999127E+01  0.20132885945E+02  0.51100000000E-03 0.  1.
        -12    1    4    4    0    0 -0.23294267137E+02 -0.20586714133E+01  0.12468558210E+02  0.26501433042E+02  0.00000000000E+00 0.  1.
</event>
<event>
 8    1  0.2432279E-006  0.9118800E+02  0.7816164E-02  0.1184000E+00
        -11   -1    0    0    0    0  0.00000000000E+00  0.00000000000E+00  0.45593999997E+02  0.45594000000E+02  0.51100000000E-03 0.  1.
         11   -1    0    0    0    0 -0.00000000000E+00 -0.00000000000E+00 -0.45593999997E+02  0.45594000000E+02  0.51100000000E-03 0. -1.
         23    2    1    2    0    0  0.00000000000E+00  0.00000000000E+00 -0.17763568394E-14  0.91188000000E+02  0.91188000000E+02 0.  0.
    9900012    2    3    3    0    0  0.31826674610E+02 -0.16884668350E+02  0.75993031023E+01  0.54367100369E+02  0.40000036911E+02 0.  0.
         12    1    3    3    0    0 -0.31826674610E+02  0.16884668350E+02 -0.75993031023E+01  0.36820899631E+02  0.00000000000E+00 0. -1.
         11    1    4    4    0    0  0.29555764008E+02 -0.18265884080E+02 -0.58437178151E+01  0.35232580739E+02  0.51100000000E-03 0. -1.
        -11    1    4    4    0    0  0.63349315395E+01 -0.33651154555E+01  0.55619744110E+01  0.90769443785E+01  0.51100000000E-03 0.  1.
         12    1    4    4    0    0 -0.40640209377E+01  0.47463311859E+01  0.78810465065E+01  0.10057575252E+02  0.00000000000E+00 0. -1.
</event>
<event>
 8    1  0.2432279E-006  0.9118800E+02  0.7816164E-02  0.1184000E+00
        -11   -1    0    0    0    0  0.00000000000E+00  0.00000000000E+00  0.45593999997E+02  0.45594000000E+02  0.51100000000E-03 0.  1.
         11   -1    0    0    0    0 -0.00000000000E+00 -0.00000000000E+00 -0.45593999997E+02  0.45594000000E+02  0.51100000000E-03 0. -1.
         23    2    1    2    0    0  0.00000000000E+00  0.22204460493E-15  0.00000000000E+00  0.91188000000E+02  0.91188000000E+02 0.  0.
    9900012    2    3    3    0    0  0.85519000004E+01 -0.18746679239E+01 -0.35764939177E+02  0.54367078668E+02  0.39999987438E+02 0.  0.
        -12    1    3    3    0    0 -0.85519000004E+01  0.18746679239E+01  0.35764939177E+02  0.36820921332E+02  0.00000000000E+00 0.  1.
         11    1    4    4    0    0 -0.52312039236E+01  0.81816306766E+00 -0.31597497663E+02  0.32038051503E+02  0.51100000000E-03 0. -1.
        -11    1    4    4    0    0  0.12187744242E+02 -0.50329077639E+01  0.39229735005E+01  0.13757215983E+02  0.51100000000E-03 0.  1.
         12    1    4    4    0    0  0.15953596820E+01  0.23400767724E+01 -0.80904150141E+01  0.85718111806E+01  0.00000000000E+00 0. -1.
</event>
<event>
 8    1  0.2432279E-006  0.9118800E+02  0.7816164E-02  0.1184000E+00
        -11   -1    0    0    0    0  0.00000000000E+00  0.00000000000E+00  0.45593999997E+02  0.45594000000E+02  0.51100000000E-03 0.  1.
         11   -1    0    0    0    0 -0.00000000000E+00 -0.00000000000E+00 -0.45593999997E+02  0.45594000000E+02  0.51100000000E-03 0. -1.
         23    2    1    2    0    0 -0.17763568394E-14  0.00000000000E+00 -0.44408920985E-15  0.91188000000E+02  0.91188000000E+02 0.  0.
    9900012    2    3    3    0    0 -0.91693851276E+01 -0.35568362927E+02 -0.25685750354E+01  0.54367032568E+02  0.39999882344E+02 0.  0.
        -12    1    3    3    0    0  0.91693851276E+01  0.35568362927E+02  0.25685750354E+01  0.36820967432E+02  0.00000000000E+00 0.  1.
         11    1    4    4    0    0 -0.57684715065E+01 -0.35743157406E+02 -0.34622864826E+01  0.36370812375E+02  0.51100000000E-03 0. -1.
        -11    1    4    4    0    0  0.27207923199E+01 -0.72642329389E+01 -0.18589057239E+01  0.79766736043E+01  0.51100000000E-03 0.  1.
        -12    1    4    4    0    0 -0.61217059410E+01  0.74390274175E+01  0.27526171711E+01  0.10019546588E+02  0.00000000000E+00 0.  1.
</event>
<event>
 8    1  0.2432279E-006  0.9118800E+02  0.7816164E-02  0.1184000E+00
        -11   -1    0    0    0    0  0.00000000000E+00  0.00000000000E+00  0.45593999997E+02  0.45594000000E+02  0.51100000000E-03 0.  1.
         11   -1    0    0    0    0 -0.00000000000E+00 -0.00000000000E+00 -0.45593999997E+02  0.45594000000E+02  0.51100000000E-03 0. -1.
         23    2    1    2    0    0  0.00000000000E+00  0.17763568394E-14  0.00000000000E+00  0.91188000000E+02  0.91188000000E+02 0.  0.
    9900012    2    3    3    0    0  0.12116634649E+02  0.12517812720E+02  0.32438714847E+02  0.54367099801E+02  0.40000035616E+02 0.  0.
         12    1    3    3    0    0 -0.12116634649E+02 -0.12517812720E+02 -0.32438714847E+02  0.36820900199E+02  0.00000000000E+00 0. -1.
         11    1    4    4    0    0 -0.84374014629E+01  0.84720411595E+01  0.12237364386E+02  0.17109012602E+02  0.51100000000E-03 0. -1.
        -11    1    4    4    0    0  0.12343498585E+01  0.51226024062E+00  0.17362452708E+02  0.17413810451E+02  0.51100000000E-03 0.  1.
         12    1    4    4    0    0  0.19319686254E+02  0.35335113202E+01  0.28388977537E+01  0.19844276748E+02  0.00000000000E+00 0. -1.
</event>
<event>
 8    1  0.2432279E-006  0.9118800E+02  0.7816164E-02  0.1184000E+00
        -11   -1    0    0    0    0  0.00000000000E+00  0.00000000000E+00  0.45593999997E+02  0.45594000000E+02  0.51100000000E-03 0. -1.
         11   -1    0    0    0    0 -0.00000000000E+00 -0.00000000000E+00 -0.45593999997E+02  0.45594000000E+02  0.51100000000E-03 0.  1.
         23    2    1    2    0    0  0.00000000000E+00  0.00000000000E+00  0.00000000000E+00  0.91188000000E+02  0.91188000000E+02 0.  0.
    9900012    2    3    3    0    0 -0.12219993999E+02  0.83061818077E+01 -0.33726224671E+02  0.54367093709E+02  0.40000021728E+02 0.  0.
         12    1    3    3    0    0  0.12219993999E+02 -0.83061818077E+01  0.33726224671E+02  0.36820906291E+02  0.00000000000E+00 0. -1.
         11    1    4    4    0    0 -0.10285629058E+02  0.15869281550E+02 -0.17673680935E+02  0.25884112117E+02  0.51100000000E-03 0. -1.
        -11    1    4    4    0    0  0.35396103205E+01  0.32373231075E+01 -0.15649206792E+02  0.16367858003E+02  0.51100000000E-03 0.  1.
         12    1    4    4    0    0 -0.54739752611E+01 -0.10800422849E+02 -0.40333694391E+00  0.12115123589E+02  0.00000000000E+00 0. -1.
</event>
<event>
 8    1  0.2432279E-006  0.9118800E+02  0.7816164E-02  0.1184000E+00
        -11   -1    0    0    0    0  0.00000000000E+00  0.00000000000E+00  0.45593999997E+02  0.45594000000E+02  0.51100000000E-03 0.  1.
         11   -1    0    0    0    0 -0.00000000000E+00 -0.00000000000E+00 -0.45593999997E+02  0.45594000000E+02  0.51100000000E-03 0. -1.
         23    2    1    2    0    0  0.00000000000E+00  0.00000000000E+00  0.00000000000E+00  0.91188000000E+02  0.91188000000E+02 0.  0.
    9900012    2    3    3    0    0  0.18611968597E+02 -0.31347738240E+02 -0.51665256614E+01  0.54367094861E+02  0.40000024355E+02 0.  0.
        -12    1    3    3    0    0 -0.18611968597E+02  0.31347738240E+02  0.51665256614E+01  0.36820905139E+02  0.00000000000E+00 0.  1.
         11    1    4    4    0    0  0.17615355653E+01  0.32104563813E+00 -0.52892309592E+01  0.55840883097E+01  0.51100000000E-03 0. -1.
        -11    1    4    4    0    0  0.12135905681E+02 -0.38492849065E+02 -0.12290258486E+01  0.40379328135E+02  0.51100000000E-03 0.  1.
        -12    1    4    4    0    0  0.47145273515E+01  0.68240651872E+01  0.13517311464E+01  0.84036784160E+01  0.00000000000E+00 0.  1.
</event>
<event>
 8    1  0.2432279E-006  0.9118800E+02  0.7816164E-02  0.1184000E+00
        -11   -1    0    0    0    0  0.00000000000E+00  0.00000000000E+00  0.45593999997E+02  0.45594000000E+02  0.51100000000E-03 0. -1.
         11   -1    0    0    0    0 -0.00000000000E+00 -0.00000000000E+00 -0.45593999997E+02  0.45594000000E+02  0.51100000000E-03 0.  1.
         23    2    1    2    0    0  0.00000000000E+00  0.00000000000E+00 -0.35527136788E-14  0.91188000000E+02  0.91188000000E+02 0.  0.
    9900012    2    3    3    0    0  0.91648923760E+01 -0.24183536842E+02  0.26209565676E+02  0.54367081498E+02  0.39999993890E+02 0.  0.
        -12    1    3    3    0    0 -0.91648923760E+01  0.24183536842E+02 -0.26209565676E+02  0.36820918502E+02  0.00000000000E+00 0.  1.
         11    1    4    4    0    0  0.11324764514E+02 -0.52504756315E+01  0.24939834808E+02  0.27889301643E+02  0.51100000000E-03 0. -1.
        -11    1    4    4    0    0 -0.81866825869E+00 -0.18189822712E+02 -0.59043885039E+01  0.19141621454E+02  0.51100000000E-03 0.  1.
        -12    1    4    4    0    0 -0.13412038792E+01 -0.74323849775E+00  0.71741193718E+01  0.73361584001E+01  0.00000000000E+00 0.  1.
</event>
<event>
 8    1  0.2432279E-006  0.9118800E+02  0.7816164E-02  0.1184000E+00
        -11   -1    0    0    0    0  0.00000000000E+00  0.00000000000E+00  0.45593999997E+02  0.45594000000E+02  0.51100000000E-03 0. -1.
         11   -1    0    0    0    0 -0.00000000000E+00 -0.00000000000E+00 -0.45593999997E+02  0.45594000000E+02  0.51100000000E-03 0.  1.
         23    2    1    2    0    0  0.00000000000E+00  0.00000000000E+00  0.00000000000E+00  0.91188000000E+02  0.91188000000E+02 0.  0.
    9900012    2    3    3    0    0 -0.74906285670E+01 -0.35814325772E+02 -0.41235573197E+01  0.54367093279E+02  0.40000020748E+02 0.  0.
         12    1    3    3    0    0  0.74906285670E+01  0.35814325772E+02  0.41235573197E+01  0.36820906721E+02  0.00000000000E+00 0. -1.
         11    1    4    4    0    0 -0.10294501934E-01  0.67556269840E+00 -0.13064093669E+00  0.68815568856E+00  0.51100000000E-03 0. -1.
        -11    1    4    4    0    0 -0.20734444202E+02 -0.31460049286E+02  0.31405611146E+01  0.37808927541E+02  0.51100000000E-03 0.  1.
        -12    1    4    4    0    0  0.13254110137E+02 -0.50298391839E+01 -0.71334774976E+01  0.15870010049E+02  0.00000000000E+00 0.  1.
</event>
<event>
 8    1  0.2432279E-006  0.9118800E+02  0.7816164E-02  0.1184000E+00
        -11   -1    0    0    0    0  0.00000000000E+00  0.00000000000E+00  0.45593999997E+02  0.45594000000E+02  0.51100000000E-03 0. -1.
         11   -1    0    0    0    0 -0.00000000000E+00 -0.00000000000E+00 -0.45593999997E+02  0.45594000000E+02  0.51100000000E-03 0.  1.
         23    2    1    2    0    0  0.00000000000E+00  0.44408920985E-15  0.00000000000E+00  0.91188000000E+02  0.91188000000E+02 0.  0.
    9900012    2    3    3    0    0 -0.34127236842E+02  0.38510382848E+01  0.13277081875E+02  0.54367086194E+02  0.40000004597E+02 0.  0.
         12    1    3    3    0    0  0.34127236842E+02 -0.38510382848E+01 -0.13277081875E+02  0.36820913806E+02  0.00000000000E+00 0. -1.
         11    1    4    4    0    0 -0.23170911802E+02  0.16495267617E+01  0.21070897053E+02  0.31362314888E+02  0.51100000000E-03 0. -1.
        -11    1    4    4    0    0 -0.92408042687E+01 -0.61952496726E+00  0.44845989151E+01  0.10290184761E+02  0.51100000000E-03 0.  1.
        -12    1    4    4    0    0 -0.17155207713E+01  0.28210364903E+01 -0.12278414092E+02  0.12714586545E+02  0.00000000000E+00 0.  1.
</event>
<event>
 8    1  0.2432279E-006  0.9118800E+02  0.7816164E-02  0.1184000E+00
        -11   -1    0    0    0    0  0.00000000000E+00  0.00000000000E+00  0.45593999997E+02  0.45594000000E+02  0.51100000000E-03 0.  1.
         11   -1    0    0    0    0 -0.00000000000E+00 -0.00000000000E+00 -0.45593999997E+02  0.45594000000E+02  0.51100000000E-03 0. -1.
         23    2    1    2    0    0 -0.88817841970E-15  0.00000000000E+00  0.00000000000E+00  0.91188000000E+02  0.91188000000E+02 0.  0.
    9900012    2    3    3    0    0  0.72655557879E+01  0.82607741653E+01  0.35139025387E+02  0.54367084804E+02  0.40000001427E+02 0.  0.
         12    1    3    3    0    0 -0.72655557879E+01 -0.82607741653E+01 -0.35139025387E+02  0.36820915196E+02  0.00000000000E+00 0. -1.
         11    1    4    4    0    0  0.33727158759E+01  0.58776196908E+01 -0.43437724015E+01  0.80492226051E+01  0.51100000000E-03 0. -1.
        -11    1    4    4    0    0  0.46595817733E+01  0.73065919279E+01  0.25258362008E+01  0.90265074463E+01  0.51100000000E-03 0.  1.
        -12    1    4    4    0    0 -0.76674186137E+00 -0.49234374534E+01  0.36956961588E+02  0.37291354752E+02  0.00000000000E+00 0.  1.
</event>
<event>
 8    1  0.2432279E-006  0.9118800E+02  0.7816164E-02  0.1184000E+00
        -11   -1    0    0    0    0  0.00000000000E+00  0.00000000000E+00  0.45593999997E+02  0.45594000000E+02  0.51100000000E-03 0.  1.
         11   -1    0    0    0    0 -0.00000000000E+00 -0.00000000000E+00 -0.45593999997E+02  0.45594000000E+02  0.51100000000E-03 0. -1.
         23    2    1    2    0    0  0.00000000000E+00  0.22204460493E-15  0.35527136788E-14  0.91188000000E+02  0.91188000000E+02 0.  0.
    9900012    2    3    3    0    0  0.24299071328E+02 -0.10045053212E+01 -0.27646453196E+02  0.54367078330E+02  0.39999986669E+02 0.  0.
        -12    1    3    3    0    0 -0.24299071328E+02  0.10045053212E+01  0.27646453196E+02  0.36820921670E+02  0.00000000000E+00 0.  1.
         11    1    4    4    0    0  0.12031391665E+02 -0.12316680496E+02 -0.32371917784E+02  0.36666006942E+02  0.51100000000E-03 0. -1.
        -11    1    4    4    0    0  0.54451166697E+01  0.27198527256E+01  0.16229476576E+01  0.62992740658E+01  0.51100000000E-03 0.  1.
         12    1    4    4    0    0  0.68225629935E+01  0.85923224489E+01  0.31025169307E+01  0.11401797322E+02  0.00000000000E+00 0. -1.
</event>
<event>
 8    1  0.2432279E-006  0.9118800E+02  0.7816164E-02  0.1184000E+00
        -11   -1    0    0    0    0  0.00000000000E+00  0.00000000000E+00  0.45593999997E+02  0.45594000000E+02  0.51100000000E-03 0.  1.
         11   -1    0    0    0    0 -0.00000000000E+00 -0.00000000000E+00 -0.45593999997E+02  0.45594000000E+02  0.51100000000E-03 0. -1.
         23    2    1    2    0    0 -0.66613381478E-15  0.00000000000E+00  0.00000000000E+00  0.91188000000E+02  0.91188000000E+02 0.  0.
    9900012    2    3    3    0    0  0.10730368271E+01  0.35378467732E+02  0.10148588079E+02  0.54367065369E+02  0.39999957122E+02 0.  0.
         12    1    3    3    0    0 -0.10730368271E+01 -0.35378467732E+02 -0.10148588079E+02  0.36820934631E+02  0.00000000000E+00 0. -1.
         11    1    4    4    0    0 -0.37519066967E+01  0.10804254462E+02 -0.12823675357E+02  0.17182996487E+02  0.51100000000E-03 0. -1.
        -11    1    4    4    0    0  0.63905759456E+01  0.21654574593E+02  0.24686257877E+02  0.33454019040E+02  0.51100000000E-03 0.  1.
        -12    1    4    4    0    0 -0.15656324218E+01  0.29196386773E+01 -0.17139944402E+01  0.37300498425E+01  0.00000000000E+00 0.  1.
</event>
<event>
 8    1  0.2432279E-006  0.9118800E+02  0.7816164E-02  0.1184000E+00
        -11   -1    0    0    0    0  0.00000000000E+00  0.00000000000E+00  0.45593999997E+02  0.45594000000E+02  0.51100000000E-03 0. -1.
         11   -1    0    0    0    0 -0.00000000000E+00 -0.00000000000E+00 -0.45593999997E+02  0.45594000000E+02  0.51100000000E-03 0.  1.
         23    2    1    2    0    0  0.35527136788E-14  0.00000000000E+00  0.35527136788E-14  0.91188000000E+02  0.91188000000E+02 0.  0.
    9900012    2    3    3    0    0  0.26516235159E+02  0.21724099118E+02  0.13443630477E+02  0.54367103624E+02  0.40000044332E+02 0.  0.
        -12    1    3    3    0    0 -0.26516235159E+02 -0.21724099118E+02 -0.13443630477E+02  0.36820896376E+02  0.00000000000E+00 0.  1.
         11    1    4    4    0    0 -0.15968736738E+01  0.92879257359E+00 -0.12848265867E+01  0.22502090556E+01  0.51100000000E-03 0. -1.
        -11    1    4    4    0    0  0.18036473068E+02  0.17558598088E+02 -0.85184637771E+01  0.26574103050E+02  0.51100000000E-03 0.  1.
         12    1    4    4    0    0  0.10076635765E+02  0.32367084564E+01  0.23246920841E+02  0.25542791518E+02  0.00000000000E+00 0. -1.
</event>
<event>
 8    1  0.2432279E-006  0.9118800E+02  0.7816164E-02  0.1184000E+00
        -11   -1    0    0    0    0  0.00000000000E+00  0.00000000000E+00  0.45593999997E+02  0.45594000000E+02  0.51100000000E-03 0. -1.
         11   -1    0    0    0    0 -0.00000000000E+00 -0.00000000000E+00 -0.45593999997E+02  0.45594000000E+02  0.51100000000E-03 0.  1.
         23    2    1    2    0    0  0.00000000000E+00  0.00000000000E+00  0.00000000000E+00  0.91188000000E+02  0.91188000000E+02 0.  0.
    9900012    2    3    3    0    0  0.22533614371E+02 -0.14175652256E+02 -0.25437505286E+02  0.54367087889E+02  0.40000008461E+02 0.  0.
         12    1    3    3    0    0 -0.22533614371E+02  0.14175652256E+02  0.25437505286E+02  0.36820912111E+02  0.00000000000E+00 0. -1.
         11    1    4    4    0    0  0.86934447885E+01  0.45528837375E+01  0.25173172355E+00  0.98167256119E+01  0.51100000000E-03 0. -1.
        -11    1    4    4    0    0  0.57560837424E+01  0.67634541941E+01 -0.26954689680E+01  0.92812911765E+01  0.51100000000E-03 0.  1.
        -12    1    4    4    0    0  0.80840858399E+01 -0.25491990187E+02 -0.22993768041E+02  0.35269071101E+02  0.00000000000E+00 0.  1.
</event>
<event>
 8    1  0.2432279E-006  0.9118800E+02  0.7816164E-02  0.1184000E+00
        -11   -1    0    0    0    0  0.00000000000E+00  0.00000000000E+00  0.45593999997E+02  0.45594000000E+02  0.51100000000E-03 0.  1.
         11   -1    0    0    0    0 -0.00000000000E+00 -0.00000000000E+00 -0.45593999997E+02  0.45594000000E+02  0.51100000000E-03 0. -1.
         23    2    1    2    0    0 -0.44408920985E-15  0.35527136788E-14  0.00000000000E+00  0.91188000000E+02  0.91188000000E+02 0.  0.
    9900012    2    3    3    0    0  0.22479447051E+01 -0.11627558575E+02  0.34864419786E+02  0.54367066541E+02  0.39999959793E+02 0.  0.
         12    1    3    3    0    0 -0.22479447051E+01  0.11627558575E+02 -0.34864419786E+02  0.36820933459E+02  0.00000000000E+00 0. -1.
         11    1    4    4    0    0  0.41367822340E+01  0.16526864083E+01  0.33890848205E+00  0.44675719172E+01  0.51100000000E-03 0. -1.
        -11    1    4    4    0    0 -0.45611121043E+01  0.10532464785E+02  0.15586490114E+02  0.19356529451E+02  0.51100000000E-03 0.  1.
         12    1    4    4    0    0  0.26722745755E+01 -0.23812709768E+02  0.18939021190E+02  0.30542965172E+02  0.00000000000E+00 0. -1.
</event>
<event>
 8    1  0.2432279E-006  0.9118800E+02  0.7816164E-02  0.1184000E+00
        -11   -1    0    0    0    0  0.00000000000E+00  0.00000000000E+00  0.45593999997E+02  0.45594000000E+02  0.51100000000E-03 0. -1.
         11   -1    0    0    0    0 -0.00000000000E+00 -0.00000000000E+00 -0.45593999997E+02  0.45594000000E+02  0.51100000000E-03 0.  1.
         23    2    1    2    0    0 -0.22204460493E-15  0.00000000000E+00 -0.17763568394E-14  0.91188000000E+02  0.91188000000E+02 0.  0.
    9900012    2    3    3    0    0 -0.17966085100E+01 -0.34545024975E+02 -0.12616499525E+02  0.54367318136E+02  0.40000533351E+02 0.  0.
         12    1    3    3    0    0  0.17966085100E+01  0.34545024975E+02  0.12616499525E+02  0.36820681864E+02  0.00000000000E+00 0. -1.
         11    1    4    4    0    0 -0.46958884190E+01 -0.36097795511E+01  0.36182834240E+01  0.69407385521E+01  0.51100000000E-03 0. -1.
        -11    1    4    4    0    0 -0.36000860269E+01 -0.97768137506E+01  0.90656613961E+01  0.13810609086E+02  0.51100000000E-03 0.  1.
        -12    1    4    4    0    0  0.64993659359E+01 -0.21158431674E+02 -0.25300444345E+02  0.33615970498E+02  0.00000000000E+00 0.  1.
</event>
<event>
 8    1  0.2432279E-006  0.9118800E+02  0.7816164E-02  0.1184000E+00
        -11   -1    0    0    0    0  0.00000000000E+00  0.00000000000E+00  0.45593999997E+02  0.45594000000E+02  0.51100000000E-03 0. -1.
         11   -1    0    0    0    0 -0.00000000000E+00 -0.00000000000E+00 -0.45593999997E+02  0.45594000000E+02  0.51100000000E-03 0.  1.
         23    2    1    2    0    0 -0.88817841970E-15  0.35527136788E-14 -0.35527136788E-14  0.91188000000E+02  0.91188000000E+02 0.  0.
    9900012    2    3    3    0    0 -0.74608075149E+01 -0.24796755403E+02 -0.26177034838E+02  0.54367083659E+02  0.39999998818E+02 0.  0.
         12    1    3    3    0    0  0.74608075149E+01  0.24796755403E+02  0.26177034838E+02  0.36820916341E+02  0.00000000000E+00 0. -1.
         11    1    4    4    0    0 -0.65884311725E+01 -0.14525942986E+02 -0.18010415727E+02  0.24057961674E+02  0.51100000000E-03 0. -1.
        -11    1    4    4    0    0 -0.68721816239E+01 -0.15760173799E+02 -0.12345157110E+02  0.21166314341E+02  0.51100000000E-03 0.  1.
         12    1    4    4    0    0  0.59998052816E+01  0.54893613827E+01  0.41785379996E+01  0.91428076443E+01  0.00000000000E+00 0. -1.
</event>
<event>
 8    1  0.2432279E-006  0.9118800E+02  0.7816164E-02  0.1184000E+00
        -11   -1    0    0    0    0  0.00000000000E+00  0.00000000000E+00  0.45593999997E+02  0.45594000000E+02  0.51100000000E-03 0.  1.
         11   -1    0    0    0    0 -0.00000000000E+00 -0.00000000000E+00 -0.45593999997E+02  0.45594000000E+02  0.51100000000E-03 0. -1.
         23    2    1    2    0    0  0.00000000000E+00  0.00000000000E+00  0.00000000000E+00  0.91188000000E+02  0.91188000000E+02 0.  0.
    9900012    2    3    3    0    0 -0.15910410320E+02 -0.31443959248E+02 -0.10673302261E+02  0.54367039789E+02  0.39999898806E+02 0.  0.
        -12    1    3    3    0    0  0.15910410320E+02  0.31443959248E+02  0.10673302261E+02  0.36820960211E+02  0.00000000000E+00 0.  1.
         11    1    4    4    0    0 -0.26535004618E+01 -0.24093154103E+01  0.43836687477E+01  0.56623685325E+01  0.51100000000E-03 0. -1.
        -11    1    4    4    0    0  0.10586169896E+02 -0.39991274659E+01 -0.66458666917E+01  0.13123549745E+02  0.51100000000E-03 0.  1.
         12    1    4    4    0    0 -0.23843079754E+02 -0.25035516372E+02 -0.84111043174E+01  0.35581121511E+02  0.00000000000E+00 0. -1.
</event>
<event>
 8    1  0.2432279E-006  0.9118800E+02  0.7816164E-02  0.1184000E+00
        -11   -1    0    0    0    0  0.00000000000E+00  0.00000000000E+00  0.45593999997E+02  0.45594000000E+02  0.51100000000E-03 0.  1.
         11   -1    0    0    0    0 -0.00000000000E+00 -0.00000000000E+00 -0.45593999997E+02  0.45594000000E+02  0.51100000000E-03 0. -1.
         23    2    1    2    0    0  0.00000000000E+00 -0.35527136788E-14 -0.71054273576E-14  0.91188000000E+02  0.91188000000E+02 0.  0.
    9900012    2    3    3    0    0  0.16764801555E+02  0.14911094160E+02  0.29195537290E+02  0.54367099714E+02  0.40000035417E+02 0.  0.
         12    1    3    3    0    0 -0.16764801555E+02 -0.14911094160E+02 -0.29195537290E+02  0.36820900286E+02  0.00000000000E+00 0. -1.
         11    1    4    4    0    0 -0.28281411136E+01 -0.59933826181E+00 -0.11776440823E+00  0.28933470631E+01  0.51100000000E-03 0.  1.
        -11    1    4    4    0    0 -0.96814258101E+01  0.39457759709E+01  0.10431955839E+02  0.14769050634E+02  0.51100000000E-03 0. -1.
        -12    1    4    4    0    0  0.29274368479E+02  0.11564656451E+02  0.18881345859E+02  0.36704702017E+02  0.00000000000E+00 0.  1.
</event>
<event>
 8    1  0.2432279E-006  0.9118800E+02  0.7816164E-02  0.1184000E+00
        -11   -1    0    0    0    0  0.00000000000E+00  0.00000000000E+00  0.45593999997E+02  0.45594000000E+02  0.51100000000E-03 0.  1.
         11   -1    0    0    0    0 -0.00000000000E+00 -0.00000000000E+00 -0.45593999997E+02  0.45594000000E+02  0.51100000000E-03 0. -1.
         23    2    1    2    0    0  0.00000000000E+00  0.00000000000E+00  0.44408920985E-15  0.91188000000E+02  0.91188000000E+02 0.  0.
    9900012    2    3    3    0    0  0.17901402231E+02  0.31927755429E+02  0.39921070060E+01  0.54367099862E+02  0.40000035756E+02 0.  0.
         12    1    3    3    0    0 -0.17901402231E+02 -0.31927755429E+02 -0.39921070060E+01  0.36820900138E+02  0.00000000000E+00 0. -1.
         11    1    4    4    0    0 -0.39846321855E+01  0.19188973571E+02 -0.43239859327E+01  0.20069650096E+02  0.51100000000E-03 0. -1.
        -11    1    4    4    0    0  0.27787808785E+01  0.13277351056E+02  0.66578575241E+01  0.15110815376E+02  0.51100000000E-03 0.  1.
         12    1    4    4    0    0  0.19107253538E+02 -0.53856919829E+00  0.16582354147E+01  0.19186634390E+02  0.00000000000E+00 0. -1.
</event>
<event>
 8    1  0.2432279E-006  0.9118800E+02  0.7816164E-02  0.1184000E+00
        -11   -1    0    0    0    0  0.00000000000E+00  0.00000000000E+00  0.45593999997E+02  0.45594000000E+02  0.51100000000E-03 0.  1.
         11   -1    0    0    0    0 -0.00000000000E+00 -0.00000000000E+00 -0.45593999997E+02  0.45594000000E+02  0.51100000000E-03 0. -1.
         23    2    1    2    0    0  0.35527136788E-14 -0.17763568394E-14  0.00000000000E+00  0.91188000000E+02  0.91188000000E+02 0.  0.
    9900012    2    3    3    0    0 -0.11742552773E+02  0.11229767514E+02  0.33042159162E+02  0.54367088739E+02  0.40000010398E+02 0.  0.
         12    1    3    3    0    0  0.11742552773E+02 -0.11229767514E+02 -0.33042159162E+02  0.36820911261E+02  0.00000000000E+00 0. -1.
         11    1    4    4    0    0  0.10868099536E+02  0.76816608170E+01  0.40664991721E+01  0.13916174625E+02  0.51100000000E-03 0. -1.
        -11    1    4    4    0    0 -0.12752264890E+02  0.57429781084E+01  0.26634741105E+02  0.30083408906E+02  0.51100000000E-03 0.  1.
         12    1    4    4    0    0 -0.98583874182E+01 -0.21948714116E+01  0.23409188843E+01  0.10367505207E+02  0.00000000000E+00 0. -1.
</event>
<event>
 8    1  0.2432279E-006  0.9118800E+02  0.7816164E-02  0.1184000E+00
        -11   -1    0    0    0    0  0.00000000000E+00  0.00000000000E+00  0.45593999997E+02  0.45594000000E+02  0.51100000000E-03 0. -1.
         11   -1    0    0    0    0 -0.00000000000E+00 -0.00000000000E+00 -0.45593999997E+02  0.45594000000E+02  0.51100000000E-03 0.  1.
         23    2    1    2    0    0 -0.35527136788E-14  0.35527136788E-14  0.00000000000E+00  0.91188000000E+02  0.91188000000E+02 0.  0.
    9900012    2    3    3    0    0 -0.15619242383E+02  0.18756376132E+02 -0.27568518927E+02  0.54367005798E+02  0.39999821318E+02 0.  0.
         12    1    3    3    0    0  0.15619242383E+02 -0.18756376132E+02  0.27568518927E+02  0.36820994202E+02  0.00000000000E+00 0. -1.
         11    1    4    4    0    0  0.35506537036E+00  0.16245531049E+00  0.71829159502E+00  0.81756114250E+00  0.51100000000E-03 0. -1.
        -11    1    4    4    0    0  0.83771788750E+01  0.86375520398E+00  0.40599544845E+01  0.93491405826E+01  0.51100000000E-03 0.  1.
        -12    1    4    4    0    0 -0.24351486628E+02  0.17730165617E+02 -0.32346765006E+02  0.44200304073E+02  0.00000000000E+00 0.  1.
</event>
<event>
 8    1  0.2432279E-006  0.9118800E+02  0.7816164E-02  0.1184000E+00
        -11   -1    0    0    0    0  0.00000000000E+00  0.00000000000E+00  0.45593999997E+02  0.45594000000E+02  0.51100000000E-03 0.  1.
         11   -1    0    0    0    0 -0.00000000000E+00 -0.00000000000E+00 -0.45593999997E+02  0.45594000000E+02  0.51100000000E-03 0. -1.
         23    2    1    2    0    0  0.00000000000E+00  0.17763568394E-14  0.00000000000E+00  0.91188000000E+02  0.91188000000E+02 0.  0.
    9900012    2    3    3    0    0 -0.32694368074E+02  0.13931919162E+02 -0.96311573826E+01  0.54367091975E+02  0.40000017775E+02 0.  0.
        -12    1    3    3    0    0  0.32694368074E+02 -0.13931919162E+02  0.96311573826E+01  0.36820908025E+02  0.00000000000E+00 0.  1.
         11    1    4    4    0    0 -0.26792413847E+02 -0.10175762434E+01 -0.30819523748E+01  0.26988281380E+02  0.51100000000E-03 0. -1.
        -11    1    4    4    0    0 -0.30121775097E+01  0.20271017998E+02 -0.44624280974E+01  0.20973808639E+02  0.51100000000E-03 0.  1.
        -12    1    4    4    0    0 -0.28897767171E+01 -0.53215225930E+01 -0.20867769105E+01  0.64050019560E+01  0.00000000000E+00 0.  1.
</event>
<event>
 8    1  0.2432279E-006  0.9118800E+02  0.7816164E-02  0.1184000E+00
        -11   -1    0    0    0    0  0.00000000000E+00  0.00000000000E+00  0.45593999997E+02  0.45594000000E+02  0.51100000000E-03 0. -1.
         11   -1    0    0    0    0 -0.00000000000E+00 -0.00000000000E+00 -0.45593999997E+02  0.45594000000E+02  0.51100000000E-03 0.  1.
         23    2    1    2    0    0  0.17763568394E-14  0.17763568394E-14  0.00000000000E+00  0.91188000000E+02  0.91188000000E+02 0.  0.
    9900012    2    3    3    0    0 -0.10898680440E+02 -0.13828004415E+02 -0.32338591875E+02  0.54367089285E+02  0.40000011643E+02 0.  0.
         12    1    3    3    0    0  0.10898680440E+02  0.13828004415E+02  0.32338591875E+02  0.36820910715E+02  0.00000000000E+00 0. -1.
         11    1    4    4    0    0  0.14998542005E+01  0.19101754423E+01 -0.20934750383E+02  0.21075153776E+02  0.51100000000E-03 0.  1.
        -11    1    4    4    0    0  0.48139004978E+01 -0.11231701805E+02 -0.93390429992E+01  0.15379937836E+02  0.51100000000E-03 0. -1.
        -12    1    4    4    0    0 -0.17212435138E+02 -0.45064780520E+01 -0.20647984933E+01  0.17911997673E+02  0.00000000000E+00 0.  1.
</event>
<event>
 8    1  0.2432279E-006  0.9118800E+02  0.7816164E-02  0.1184000E+00
        -11   -1    0    0    0    0  0.00000000000E+00  0.00000000000E+00  0.45593999997E+02  0.45594000000E+02  0.51100000000E-03 0.  1.
         11   -1    0    0    0    0 -0.00000000000E+00 -0.00000000000E+00 -0.45593999997E+02  0.45594000000E+02  0.51100000000E-03 0. -1.
         23    2    1    2    0    0 -0.17763568394E-14  0.00000000000E+00  0.00000000000E+00  0.91188000000E+02  0.91188000000E+02 0.  0.
    9900012    2    3    3    0    0  0.98032847590E+01 -0.34514805433E+02 -0.82705567963E+01  0.54367105173E+02  0.40000047863E+02 0.  0.
         12    1    3    3    0    0 -0.98032847590E+01  0.34514805433E+02  0.82705567963E+01  0.36820894827E+02  0.00000000000E+00 0. -1.
         11    1    4    4    0    0 -0.13830103880E+01  0.33727191432E+00 -0.15582252610E+01  0.21105772439E+01  0.51100000000E-03 0. -1.
        -11    1    4    4    0    0  0.13585195824E+02 -0.23220275665E+02 -0.20672597877E+02  0.33927791717E+02  0.51100000000E-03 0.  1.
        -12    1    4    4    0    0 -0.23989006775E+01 -0.11631801682E+02  0.13960266341E+02  0.18328736213E+02  0.00000000000E+00 0.  1.
</event>
<event>
 8    1  0.2432279E-006  0.9118800E+02  0.7816164E-02  0.1184000E+00
        -11   -1    0    0    0    0  0.00000000000E+00  0.00000000000E+00  0.45593999997E+02  0.45594000000E+02  0.51100000000E-03 0. -1.
         11   -1    0    0    0    0 -0.00000000000E+00 -0.00000000000E+00 -0.45593999997E+02  0.45594000000E+02  0.51100000000E-03 0.  1.
         23    2    1    2    0    0  0.00000000000E+00  0.00000000000E+00  0.00000000000E+00  0.91188000000E+02  0.91188000000E+02 0.  0.
    9900012    2    3    3    0    0  0.16762689086E+02  0.16750739602E+02  0.28181636836E+02  0.54367086413E+02  0.40000005095E+02 0.  0.
        -12    1    3    3    0    0 -0.16762689086E+02 -0.16750739602E+02 -0.28181636836E+02  0.36820913587E+02  0.00000000000E+00 0.  1.
         11    1    4    4    0    0 -0.28750520901E+01 -0.80881193512E+01 -0.39665023185E+00  0.85930745852E+01  0.51100000000E-03 0.  1.
        -11    1    4    4    0    0  0.25597857260E+01 -0.23470506712E+01  0.42736415440E+01  0.55068286812E+01  0.51100000000E-03 0. -1.
        -12    1    4    4    0    0  0.17077955450E+02  0.27185909625E+02  0.24304645524E+02  0.40267183146E+02  0.00000000000E+00 0.  1.
</event>
<event>
 8    1  0.2432279E-006  0.9118800E+02  0.7816164E-02  0.1184000E+00
        -11   -1    0    0    0    0  0.00000000000E+00  0.00000000000E+00  0.45593999997E+02  0.45594000000E+02  0.51100000000E-03 0.  1.
         11   -1    0    0    0    0 -0.00000000000E+00 -0.00000000000E+00 -0.45593999997E+02  0.45594000000E+02  0.51100000000E-03 0. -1.
         23    2    1    2    0    0 -0.35527136788E-14  0.00000000000E+00  0.71054273576E-14  0.91188000000E+02  0.91188000000E+02 0.  0.
    9900012    2    3    3    0    0  0.22990800438E+02  0.16475217651E+02 -0.23574783558E+02  0.54367080385E+02  0.39999991355E+02 0.  0.
        -12    1    3    3    0    0 -0.22990800438E+02 -0.16475217651E+02  0.23574783558E+02  0.36820919615E+02  0.00000000000E+00 0.  1.
         11    1    4    4    0    0  0.13148277742E+01  0.84141014186E+01 -0.23064210921E+02  0.24586250231E+02  0.51100000000E-03 0. -1.
        -11    1    4    4    0    0  0.10279928868E+02  0.90514944449E+01 -0.82313769629E+01  0.15980051821E+02  0.51100000000E-03 0.  1.
        -12    1    4    4    0    0  0.11396043796E+02 -0.99037821297E+00  0.77208043250E+01  0.13800778334E+02  0.00000000000E+00 0.  1.
</event>
<event>
 8    1  0.2432279E-006  0.9118800E+02  0.7816164E-02  0.1184000E+00
        -11   -1    0    0    0    0  0.00000000000E+00  0.00000000000E+00  0.45593999997E+02  0.45594000000E+02  0.51100000000E-03 0. -1.
         11   -1    0    0    0    0 -0.00000000000E+00 -0.00000000000E+00 -0.45593999997E+02  0.45594000000E+02  0.51100000000E-03 0.  1.
         23    2    1    2    0    0  0.00000000000E+00 -0.71054273576E-14 -0.35527136788E-14  0.91188000000E+02  0.91188000000E+02 0.  0.
    9900012    2    3    3    0    0 -0.42316020044E+01  0.17940156842E+02  0.31875145467E+02  0.54367074134E+02  0.39999977104E+02 0.  0.
        -12    1    3    3    0    0  0.42316020044E+01 -0.17940156842E+02 -0.31875145467E+02  0.36820925866E+02  0.00000000000E+00 0.  1.
         11    1    4    4    0    0 -0.75769791871E+01  0.26231089448E+02  0.18350210474E+02  0.32896973902E+02  0.51100000000E-03 0. -1.
        -11    1    4    4    0    0  0.28868012013E+01 -0.12300025042E+02  0.10475996891E+02  0.16412518038E+02  0.51100000000E-03 0.  1.
        -12    1    4    4    0    0  0.45857598141E+00  0.40090924370E+01  0.30489381020E+01  0.50575821940E+01  0.00000000000E+00 0.  1.
</event>
<event>
 8    1  0.2432279E-006  0.9118800E+02  0.7816164E-02  0.1184000E+00
        -11   -1    0    0    0    0  0.00000000000E+00  0.00000000000E+00  0.45593999997E+02  0.45594000000E+02  0.51100000000E-03 0. -1.
         11   -1    0    0    0    0 -0.00000000000E+00 -0.00000000000E+00 -0.45593999997E+02  0.45594000000E+02  0.51100000000E-03 0.  1.
         23    2    1    2    0    0 -0.17763568394E-14  0.00000000000E+00  0.00000000000E+00  0.91188000000E+02  0.91188000000E+02 0.  0.
    9900012    2    3    3    0    0 -0.10027143281E+02 -0.20189444166E+02  0.29113949469E+02  0.54367091377E+02  0.40000016412E+02 0.  0.
         12    1    3    3    0    0  0.10027143281E+02  0.20189444166E+02 -0.29113949469E+02  0.36820908623E+02  0.00000000000E+00 0. -1.
         11    1    4    4    0    0  0.12075644228E+01 -0.64781198477E+01  0.23567863798E+02  0.24471788918E+02  0.51100000000E-03 0. -1.
        -11    1    4    4    0    0 -0.17271608446E+02 -0.15350339734E+02  0.39886391663E+01  0.23448894024E+02  0.51100000000E-03 0.  1.
        -12    1    4    4    0    0  0.60369007421E+01  0.16390154157E+01  0.15574465054E+01  0.64464084357E+01  0.00000000000E+00 0.  1.
</event>
<event>
 8    1  0.2432279E-006  0.9118800E+02  0.7816164E-02  0.1184000E+00
        -11   -1    0    0    0    0  0.00000000000E+00  0.00000000000E+00  0.45593999997E+02  0.45594000000E+02  0.51100000000E-03 0.  1.
         11   -1    0    0    0    0 -0.00000000000E+00 -0.00000000000E+00 -0.45593999997E+02  0.45594000000E+02  0.51100000000E-03 0. -1.
         23    2    1    2    0    0 -0.35527136788E-14 -0.35527136788E-14  0.00000000000E+00  0.91188000000E+02  0.91188000000E+02 0.  0.
    9900012    2    3    3    0    0  0.20323462397E+02  0.24151050552E+02 -0.18959740527E+02  0.54366971668E+02  0.39999743511E+02 0.  0.
         12    1    3    3    0    0 -0.20323462397E+02 -0.24151050552E+02  0.18959740527E+02  0.36821028332E+02  0.00000000000E+00 0. -1.
         11    1    4    4    0    0 -0.65353446365E+01  0.40664753216E+01 -0.52630420687E+01  0.93245140965E+01  0.51100000000E-03 0. -1.
        -11    1    4    4    0    0  0.10209452799E+02 -0.60885510520E+01 -0.40116793742E+01  0.12545794197E+02  0.51100000000E-03 0.  1.
        -12    1    4    4    0    0  0.16649354235E+02  0.26173126282E+02 -0.96850190838E+01  0.32496663375E+02  0.00000000000E+00 0.  1.
</event>
<event>
 8    1  0.2432279E-006  0.9118800E+02  0.7816164E-02  0.1184000E+00
        -11   -1    0    0    0    0  0.00000000000E+00  0.00000000000E+00  0.45593999997E+02  0.45594000000E+02  0.51100000000E-03 0.  1.
         11   -1    0    0    0    0 -0.00000000000E+00 -0.00000000000E+00 -0.45593999997E+02  0.45594000000E+02  0.51100000000E-03 0. -1.
         23    2    1    2    0    0  0.00000000000E+00 -0.17763568394E-14 -0.88817841970E-15  0.91188000000E+02  0.91188000000E+02 0.  0.
    9900012    2    3    3    0    0  0.35804712256E+02  0.77116096036E+01  0.37855715354E+01  0.54367124206E+02  0.40000091251E+02 0.  0.
         12    1    3    3    0    0 -0.35804712256E+02 -0.77116096036E+01 -0.37855715354E+01  0.36820875794E+02  0.00000000000E+00 0. -1.
         11    1    4    4    0    0  0.13042582932E+02  0.82785624468E+01  0.31892911232E+01  0.15773875359E+02  0.51100000000E-03 0.  1.
        -11    1    4    4    0    0  0.99364221043E+01 -0.10754054656E+02  0.11752987640E+02  0.18775380010E+02  0.51100000000E-03 0. -1.
         12    1    4    4    0    0  0.12825707220E+02  0.10187101813E+02 -0.11156707228E+02  0.19817868836E+02  0.00000000000E+00 0. -1.
</event>
<event>
 8    1  0.2432279E-006  0.9118800E+02  0.7816164E-02  0.1184000E+00
        -11   -1    0    0    0    0  0.00000000000E+00  0.00000000000E+00  0.45593999997E+02  0.45594000000E+02  0.51100000000E-03 0.  1.
         11   -1    0    0    0    0 -0.00000000000E+00 -0.00000000000E+00 -0.45593999997E+02  0.45594000000E+02  0.51100000000E-03 0. -1.
         23    2    1    2    0    0 -0.35527136788E-14  0.00000000000E+00  0.00000000000E+00  0.91188000000E+02  0.91188000000E+02 0.  0.
    9900012    2    3    3    0    0  0.17423112158E+02  0.52911316792E+01  0.32003415468E+02  0.54367088641E+02  0.40000010174E+02 0.  0.
         12    1    3    3    0    0 -0.17423112158E+02 -0.52911316792E+01 -0.32003415468E+02  0.36820911359E+02  0.00000000000E+00 0. -1.
         11    1    4    4    0    0  0.13361901923E+02 -0.10231421824E+02  0.25036986663E+02  0.30167418136E+02  0.51100000000E-03 0. -1.
        -11    1    4    4    0    0 -0.34857781925E+01 -0.42056445910E+00  0.54663903250E+01  0.64968413493E+01  0.51100000000E-03 0.  1.
         12    1    4    4    0    0  0.75469884268E+01  0.15943117962E+02  0.15000384796E+01  0.17702829156E+02  0.00000000000E+00 0. -1.
</event>
<event>
 8    1  0.2432279E-006  0.9118800E+02  0.7816164E-02  0.1184000E+00
        -11   -1    0    0    0    0  0.00000000000E+00  0.00000000000E+00  0.45593999997E+02  0.45594000000E+02  0.51100000000E-03 0. -1.
         11   -1    0    0    0    0 -0.00000000000E+00 -0.00000000000E+00 -0.45593999997E+02  0.45594000000E+02  0.51100000000E-03 0.  1.
         23    2    1    2    0    0  0.00000000000E+00  0.00000000000E+00 -0.71054273576E-14  0.91188000000E+02  0.91188000000E+02 0.  0.
    9900012    2    3    3    0    0 -0.87179909287E+01  0.15749030848E+02  0.32120806486E+02  0.54367061014E+02  0.39999947194E+02 0.  0.
        -12    1    3    3    0    0  0.87179909287E+01 -0.15749030848E+02 -0.32120806486E+02  0.36820938986E+02  0.00000000000E+00 0.  1.
         11    1    4    4    0    0  0.50086281262E+01  0.12573872878E+02  0.46969983274E+01  0.14326563733E+02  0.51100000000E-03 0. -1.
        -11    1    4    4    0    0 -0.16698050644E+01 -0.10673584523E+02  0.10660582481E+02  0.15177670263E+02  0.51100000000E-03 0.  1.
         12    1    4    4    0    0 -0.12056813990E+02  0.13848742492E+02  0.16763225677E+02  0.24862827018E+02  0.00000000000E+00 0. -1.
</event>
<event>
 8    1  0.2432279E-006  0.9118800E+02  0.7816164E-02  0.1184000E+00
        -11   -1    0    0    0    0  0.00000000000E+00  0.00000000000E+00  0.45593999997E+02  0.45594000000E+02  0.51100000000E-03 0. -1.
         11   -1    0    0    0    0 -0.00000000000E+00 -0.00000000000E+00 -0.45593999997E+02  0.45594000000E+02  0.51100000000E-03 0.  1.
         23    2    1    2    0    0  0.00000000000E+00  0.00000000000E+00 -0.35527136788E-14  0.91188000000E+02  0.91188000000E+02 0.  0.
    9900012    2    3    3    0    0 -0.18096886243E+02  0.23425344791E+02  0.21898317932E+02  0.54367076621E+02  0.39999982773E+02 0.  0.
        -12    1    3    3    0    0  0.18096886243E+02 -0.23425344791E+02 -0.21898317932E+02  0.36820923379E+02  0.00000000000E+00 0.  1.
         11    1    4    4    0    0 -0.67481328584E+01  0.95364900244E+01  0.26566264428E+02  0.29021515208E+02  0.51100000000E-03 0. -1.
        -11    1    4    4    0    0  0.16002739407E+01 -0.30401377859E+01  0.33747367207E+00  0.34521302384E+01  0.51100000000E-03 0.  1.
        -12    1    4    4    0    0 -0.12949027325E+02  0.16928992553E+02 -0.50054201688E+01  0.21893431174E+02  0.00000000000E+00 0.  1.
</event>
<event>
 8    1  0.2432279E-006  0.9118800E+02  0.7816164E-02  0.1184000E+00
        -11   -1    0    0    0    0  0.00000000000E+00  0.00000000000E+00  0.45593999997E+02  0.45594000000E+02  0.51100000000E-03 0.  1.
         11   -1    0    0    0    0 -0.00000000000E+00 -0.00000000000E+00 -0.45593999997E+02  0.45594000000E+02  0.51100000000E-03 0. -1.
         23    2    1    2    0    0  0.00000000000E+00 -0.13322676296E-14  0.44408920985E-15  0.91188000000E+02  0.91188000000E+02 0.  0.
    9900012    2    3    3    0    0  0.36718161471E+02  0.14421659462E+01  0.23401906981E+01  0.54367085876E+02  0.40000003872E+02 0.  0.
         12    1    3    3    0    0 -0.36718161471E+02 -0.14421659462E+01 -0.23401906981E+01  0.36820914124E+02  0.00000000000E+00 0. -1.
         11    1    4    4    0    0 -0.26223599676E+01 -0.78372075558E+01  0.30686092821E+00  0.82699914125E+01  0.51100000000E-03 0. -1.
        -11    1    4    4    0    0  0.14522445879E+02 -0.36761702696E+01  0.86926317538E+01  0.17319858811E+02  0.51100000000E-03 0.  1.
        -12    1    4    4    0    0  0.24818075560E+02  0.12955543772E+02 -0.66593019839E+01  0.28777235653E+02  0.00000000000E+00 0.  1.
</event>
<event>
 8    1  0.2432279E-006  0.9118800E+02  0.7816164E-02  0.1184000E+00
        -11   -1    0    0    0    0  0.00000000000E+00  0.00000000000E+00  0.45593999997E+02  0.45594000000E+02  0.51100000000E-03 0. -1.
         11   -1    0    0    0    0 -0.00000000000E+00 -0.00000000000E+00 -0.45593999997E+02  0.45594000000E+02  0.51100000000E-03 0.  1.
         23    2    1    2    0    0  0.00000000000E+00  0.00000000000E+00  0.00000000000E+00  0.91188000000E+02  0.91188000000E+02 0.  0.
    9900012    2    3    3    0    0  0.72499270662E+01 -0.25291611183E+02 -0.25759511204E+02  0.54367089416E+02  0.40000011943E+02 0.  0.
         12    1    3    3    0    0 -0.72499270662E+01  0.25291611183E+02  0.25759511204E+02  0.36820910584E+02  0.00000000000E+00 0. -1.
         11    1    4    4    0    0  0.13819153807E+02  0.11270010597E+01 -0.14164061896E+02  0.19820691032E+02  0.51100000000E-03 0. -1.
        -11    1    4    4    0    0 -0.54818299623E+00  0.58702897968E+00 -0.63304630877E+01  0.63812123289E+01  0.51100000000E-03 0.  1.
         12    1    4    4    0    0 -0.60210437450E+01 -0.27005641223E+02 -0.52649862209E+01  0.28165186055E+02  0.00000000000E+00 0. -1.
</event>
<event>
 8    1  0.2432279E-006  0.9118800E+02  0.7816164E-02  0.1184000E+00
        -11   -1    0    0    0    0  0.00000000000E+00  0.00000000000E+00  0.45593999997E+02  0.45594000000E+02  0.51100000000E-03 0.  1.
         11   -1    0    0    0    0 -0.00000000000E+00 -0.00000000000E+00 -0.45593999997E+02  0.45594000000E+02  0.51100000000E-03 0. -1.
         23    2    1    2    0    0  0.00000000000E+00  0.00000000000E+00 -0.88817841970E-15  0.91188000000E+02  0.91188000000E+02 0.  0.
    9900012    2    3    3    0    0 -0.32742996778E+02  0.16307720011E+02  0.42109907111E+01  0.54367109017E+02  0.40000056627E+02 0.  0.
         12    1    3    3    0    0  0.32742996778E+02 -0.16307720011E+02 -0.42109907111E+01  0.36820890983E+02  0.00000000000E+00 0. -1.
         11    1    4    4    0    0 -0.70270141203E+01  0.24601279866E+02 -0.43058273699E+01  0.25944981173E+02  0.51100000000E-03 0. -1.
        -11    1    4    4    0    0 -0.18425186243E+02 -0.60225897402E+01  0.50242278363E+01  0.20025032856E+02  0.51100000000E-03 0.  1.
         12    1    4    4    0    0 -0.72907964156E+01 -0.22709701147E+01  0.34925902447E+01  0.83970949889E+01  0.00000000000E+00 0. -1.
</event>
<event>
 8    1  0.2432279E-006  0.9118800E+02  0.7816164E-02  0.1184000E+00
        -11   -1    0    0    0    0  0.00000000000E+00  0.00000000000E+00  0.45593999997E+02  0.45594000000E+02  0.51100000000E-03 0.  1.
         11   -1    0    0    0    0 -0.00000000000E+00 -0.00000000000E+00 -0.45593999997E+02  0.45594000000E+02  0.51100000000E-03 0. -1.
         23    2    1    2    0    0  0.00000000000E+00  0.00000000000E+00  0.00000000000E+00  0.91188000000E+02  0.91188000000E+02 0.  0.
    9900012    2    3    3    0    0 -0.33723655536E+02 -0.51219182856E+01  0.13865782583E+02  0.54367096749E+02  0.40000028658E+02 0.  0.
         12    1    3    3    0    0  0.33723655536E+02  0.51219182856E+01 -0.13865782583E+02  0.36820903251E+02  0.00000000000E+00 0. -1.
         11    1    4    4    0    0 -0.16307647791E+02  0.17126606886E+01  0.19742248931E+02  0.25663767771E+02  0.51100000000E-03 0. -1.
        -11    1    4    4    0    0 -0.17362904500E+02  0.20414923478E+01 -0.85113009209E+01  0.19444289324E+02  0.51100000000E-03 0.  1.
         12    1    4    4    0    0 -0.53103244033E-01 -0.88760713220E+01  0.26348345727E+01  0.92590396528E+01  0.00000000000E+00 0. -1.
</event>
<event>
 8    1  0.2432279E-006  0.9118800E+02  0.7816164E-02  0.1184000E+00
        -11   -1    0    0    0    0  0.00000000000E+00  0.00000000000E+00  0.45593999997E+02  0.45594000000E+02  0.51100000000E-03 0.  1.
         11   -1    0    0    0    0 -0.00000000000E+00 -0.00000000000E+00 -0.45593999997E+02  0.45594000000E+02  0.51100000000E-03 0. -1.
         23    2    1    2    0    0  0.00000000000E+00  0.00000000000E+00  0.00000000000E+00  0.91188000000E+02  0.91188000000E+02 0.  0.
    9900012    2    3    3    0    0  0.19129372650E+02  0.17145785792E+02 -0.26379326740E+02  0.54367085458E+02  0.40000002920E+02 0.  0.
        -12    1    3    3    0    0 -0.19129372650E+02 -0.17145785792E+02  0.26379326740E+02  0.36820914542E+02  0.00000000000E+00 0.  1.
         11    1    4    4    0    0  0.25373384372E+02  0.24232165686E+02 -0.22399124496E+02  0.41626040729E+02  0.51100000000E-03 0. -1.
        -11    1    4    4    0    0 -0.30775142442E+01  0.99778551811E+00 -0.21017142612E+01  0.38579622808E+01  0.51100000000E-03 0.  1.
         12    1    4    4    0    0 -0.31664974776E+01 -0.80841654122E+01 -0.18784879830E+01  0.88830824486E+01  0.00000000000E+00 0. -1.
</event>
<event>
 8    1  0.2432279E-006  0.9118800E+02  0.7816164E-02  0.1184000E+00
        -11   -1    0    0    0    0  0.00000000000E+00  0.00000000000E+00  0.45593999997E+02  0.45594000000E+02  0.51100000000E-03 0. -1.
         11   -1    0    0    0    0 -0.00000000000E+00 -0.00000000000E+00 -0.45593999997E+02  0.45594000000E+02  0.51100000000E-03 0.  1.
         23    2    1    2    0    0  0.00000000000E+00  0.00000000000E+00  0.00000000000E+00  0.91188000000E+02  0.91188000000E+02 0.  0.
    9900012    2    3    3    0    0  0.28047326411E+02  0.11348685564E+02  0.20984150158E+02  0.54367085554E+02  0.40000003136E+02 0.  0.
        -12    1    3    3    0    0 -0.28047326411E+02 -0.11348685564E+02 -0.20984150158E+02  0.36820914446E+02  0.00000000000E+00 0.  1.
         11    1    4    4    0    0  0.55362855767E+01  0.21515671715E+02  0.48218601115E+01  0.22733783727E+02  0.51100000000E-03 0.  1.
        -11    1    4    4    0    0  0.23409435008E+02 -0.83944676665E+01  0.13456687035E+02  0.28276335707E+02  0.51100000000E-03 0. -1.
        -12    1    4    4    0    0 -0.89839417431E+00 -0.17725184845E+01  0.27056030116E+01  0.33569661194E+01  0.00000000000E+00 0.  1.
</event>
<event>
 8    1  0.2432279E-006  0.9118800E+02  0.7816164E-02  0.1184000E+00
        -11   -1    0    0    0    0  0.00000000000E+00  0.00000000000E+00  0.45593999997E+02  0.45594000000E+02  0.51100000000E-03 0.  1.
         11   -1    0    0    0    0 -0.00000000000E+00 -0.00000000000E+00 -0.45593999997E+02  0.45594000000E+02  0.51100000000E-03 0. -1.
         23    2    1    2    0    0  0.00000000000E+00 -0.17763568394E-14  0.00000000000E+00  0.91188000000E+02  0.91188000000E+02 0.  0.
    9900012    2    3    3    0    0 -0.66367943653E+01 -0.13053819674E+02 -0.33783600164E+02  0.54367069979E+02  0.39999967632E+02 0.  0.
        -12    1    3    3    0    0  0.66367943653E+01  0.13053819674E+02  0.33783600164E+02  0.36820930021E+02  0.00000000000E+00 0.  1.
         11    1    4    4    0    0 -0.48497734981E+01  0.10903917265E+02 -0.94420124413E+00  0.11971099822E+02  0.51100000000E-03 0. -1.
        -11    1    4    4    0    0 -0.36017450973E+01 -0.13450501964E+01 -0.28154614020E+01  0.47653489845E+01  0.51100000000E-03 0.  1.
         12    1    4    4    0    0  0.18147242300E+01 -0.22612686743E+02 -0.30023937518E+02  0.37630621173E+02  0.00000000000E+00 0. -1.
</event>
<event>
 8    1  0.2432279E-006  0.9118800E+02  0.7816164E-02  0.1184000E+00
        -11   -1    0    0    0    0  0.00000000000E+00  0.00000000000E+00  0.45593999997E+02  0.45594000000E+02  0.51100000000E-03 0. -1.
         11   -1    0    0    0    0 -0.00000000000E+00 -0.00000000000E+00 -0.45593999997E+02  0.45594000000E+02  0.51100000000E-03 0.  1.
         23    2    1    2    0    0  0.35527136788E-14  0.00000000000E+00  0.35527136788E-14  0.91188000000E+02  0.91188000000E+02 0.  0.
    9900012    2    3    3    0    0  0.23501650974E+02 -0.10855900084E+02  0.26184021202E+02  0.54367066668E+02  0.39999960082E+02 0.  0.
        -12    1    3    3    0    0 -0.23501650974E+02  0.10855900084E+02 -0.26184021202E+02  0.36820933332E+02  0.00000000000E+00 0.  1.
         11    1    4    4    0    0  0.15801854428E+01  0.81671480283E+01  0.16974569214E+02  0.18903314345E+02  0.51100000000E-03 0. -1.
        -11    1    4    4    0    0  0.54301792626E+01  0.33924664986E+01  0.21473814337E+01  0.67532897946E+01  0.51100000000E-03 0.  1.
         12    1    4    4    0    0  0.16491286269E+02 -0.22415514611E+02  0.70620705540E+01  0.28710462528E+02  0.00000000000E+00 0. -1.
</event>
<event>
 8    1  0.2432279E-006  0.9118800E+02  0.7816164E-02  0.1184000E+00
        -11   -1    0    0    0    0  0.00000000000E+00  0.00000000000E+00  0.45593999997E+02  0.45594000000E+02  0.51100000000E-03 0. -1.
         11   -1    0    0    0    0 -0.00000000000E+00 -0.00000000000E+00 -0.45593999997E+02  0.45594000000E+02  0.51100000000E-03 0.  1.
         23    2    1    2    0    0  0.17763568394E-14  0.00000000000E+00  0.00000000000E+00  0.91188000000E+02  0.91188000000E+02 0.  0.
    9900012    2    3    3    0    0 -0.15759424008E+02 -0.25635213039E+02 -0.21219217455E+02  0.54367098571E+02  0.40000032812E+02 0.  0.
         12    1    3    3    0    0  0.15759424008E+02  0.25635213039E+02  0.21219217455E+02  0.36820901429E+02  0.00000000000E+00 0. -1.
         11    1    4    4    0    0  0.30378680715E+01 -0.50114738446E+01  0.52272693492E+01  0.78528884892E+01  0.51100000000E-03 0. -1.
        -11    1    4    4    0    0 -0.20903582786E+02 -0.50255827135E+01 -0.98733399292E+01  0.23657960532E+02  0.51100000000E-03 0.  1.
        -12    1    4    4    0    0  0.21062907063E+01 -0.15598156481E+02 -0.16573146875E+02  0.22856249550E+02  0.00000000000E+00 0.  1.
</event>
<event>
 8    1  0.2432279E-006  0.9118800E+02  0.7816164E-02  0.1184000E+00
        -11   -1    0    0    0    0  0.00000000000E+00  0.00000000000E+00  0.45593999997E+02  0.45594000000E+02  0.51100000000E-03 0. -1.
         11   -1    0    0    0    0 -0.00000000000E+00 -0.00000000000E+00 -0.45593999997E+02  0.45594000000E+02  0.51100000000E-03 0.  1.
         23    2    1    2    0    0 -0.17763568394E-14 -0.35527136788E-14 -0.35527136788E-14  0.91188000000E+02  0.91188000000E+02 0.  0.
    9900012    2    3    3    0    0  0.12830636522E+02  0.24827414632E+02 -0.23974030111E+02  0.54367083789E+02  0.39999999114E+02 0.  0.
         12    1    3    3    0    0 -0.12830636522E+02 -0.24827414632E+02  0.23974030111E+02  0.36820916211E+02  0.00000000000E+00 0. -1.
         11    1    4    4    0    0 -0.72591413617E+01  0.11584984148E+02  0.51317201753E+01  0.14602792309E+02  0.51100000000E-03 0. -1.
        -11    1    4    4    0    0  0.53525473397E+01  0.10051348345E+02 -0.84032436036E+01  0.14152521680E+02  0.51100000000E-03 0.  1.
         12    1    4    4    0    0  0.14737230543E+02  0.31910821388E+01 -0.20702506683E+02  0.25611769800E+02  0.00000000000E+00 0. -1.
</event>
<event>
 8    1  0.2432279E-006  0.9118800E+02  0.7816164E-02  0.1184000E+00
        -11   -1    0    0    0    0  0.00000000000E+00  0.00000000000E+00  0.45593999997E+02  0.45594000000E+02  0.51100000000E-03 0.  1.
         11   -1    0    0    0    0 -0.00000000000E+00 -0.00000000000E+00 -0.45593999997E+02  0.45594000000E+02  0.51100000000E-03 0. -1.
         23    2    1    2    0    0  0.00000000000E+00  0.00000000000E+00 -0.17763568394E-14  0.91188000000E+02  0.91188000000E+02 0.  0.
    9900012    2    3    3    0    0 -0.27630647671E+02  0.20031470810E+02  0.13822700117E+02  0.54367088115E+02  0.40000008976E+02 0.  0.
         12    1    3    3    0    0  0.27630647671E+02 -0.20031470810E+02 -0.13822700117E+02  0.36820911885E+02  0.00000000000E+00 0. -1.
         11    1    4    4    0    0 -0.16192437820E+02 -0.13264718157E+01 -0.68124986810E+01  0.17617170845E+02  0.51100000000E-03 0. -1.
        -11    1    4    4    0    0 -0.16235027384E+02  0.18358542081E+02  0.18487766316E+02  0.30698691912E+02  0.51100000000E-03 0.  1.
         12    1    4    4    0    0  0.47968175328E+01  0.29994005446E+01  0.21474324813E+01  0.60512253579E+01  0.00000000000E+00 0. -1.
</event>
<event>
 8    1  0.2432279E-006  0.9118800E+02  0.7816164E-02  0.1184000E+00
        -11   -1    0    0    0    0  0.00000000000E+00  0.00000000000E+00  0.45593999997E+02  0.45594000000E+02  0.51100000000E-03 0. -1.
         11   -1    0    0    0    0 -0.00000000000E+00 -0.00000000000E+00 -0.45593999997E+02  0.45594000000E+02  0.51100000000E-03 0.  1.
         23    2    1    2    0    0  0.00000000000E+00  0.00000000000E+00  0.00000000000E+00  0.91188000000E+02  0.91188000000E+02 0.  0.
    9900012    2    3    3    0    0 -0.11921351968E+02  0.32884771755E+02 -0.11500152937E+02  0.54367077093E+02  0.39999983850E+02 0.  0.
        -12    1    3    3    0    0  0.11921351968E+02 -0.32884771755E+02  0.11500152937E+02  0.36820922907E+02  0.00000000000E+00 0.  1.
         11    1    4    4    0    0 -0.89318180935E+01  0.16032091001E+02  0.61754580106E+01  0.19363408745E+02  0.51100000000E-03 0. -1.
        -11    1    4    4    0    0 -0.21510697447E+01  0.22761537048E+02 -0.17892030583E+02  0.29031696961E+02  0.51100000000E-03 0.  1.
        -12    1    4    4    0    0 -0.83846413008E+00 -0.59088562935E+01  0.21641963503E+00  0.59719713875E+01  0.00000000000E+00 0.  1.
</event>
<event>
 8    1  0.2432279E-006  0.9118800E+02  0.7816164E-02  0.1184000E+00
        -11   -1    0    0    0    0  0.00000000000E+00  0.00000000000E+00  0.45593999997E+02  0.45594000000E+02  0.51100000000E-03 0. -1.
         11   -1    0    0    0    0 -0.00000000000E+00 -0.00000000000E+00 -0.45593999997E+02  0.45594000000E+02  0.51100000000E-03 0.  1.
         23    2    1    2    0    0  0.35527136788E-14 -0.88817841970E-15  0.00000000000E+00  0.91188000000E+02  0.91188000000E+02 0.  0.
    9900012    2    3    3    0    0 -0.16392536713E+02 -0.79809375712E+01 -0.31990162409E+02  0.54367066886E+02  0.39999960581E+02 0.  0.
         12    1    3    3    0    0  0.16392536713E+02  0.79809375712E+01  0.31990162409E+02  0.36820933114E+02  0.00000000000E+00 0. -1.
         11    1    4    4    0    0  0.78117206080E+01 -0.15355530029E+02 -0.13283511444E+02  0.21754699673E+02  0.51100000000E-03 0. -1.
        -11    1    4    4    0    0 -0.18433127808E+02  0.90820026827E+01 -0.15843463750E+02  0.25947607161E+02  0.51100000000E-03 0.  1.
         12    1    4    4    0    0 -0.57711295122E+01 -0.17074102249E+01 -0.28631872149E+01  0.66647600520E+01  0.00000000000E+00 0. -1.
</event>
<event>
 8    1  0.2432279E-006  0.9118800E+02  0.7816164E-02  0.1184000E+00
        -11   -1    0    0    0    0  0.00000000000E+00  0.00000000000E+00  0.45593999997E+02  0.45594000000E+02  0.51100000000E-03 0.  1.
         11   -1    0    0    0    0 -0.00000000000E+00 -0.00000000000E+00 -0.45593999997E+02  0.45594000000E+02  0.51100000000E-03 0. -1.
         23    2    1    2    0    0  0.44408920985E-15  0.00000000000E+00  0.17763568394E-14  0.91188000000E+02  0.91188000000E+02 0.  0.
    9900012    2    3    3    0    0 -0.31796685588E+01 -0.35382138353E+02  0.96836889719E+01  0.54367084222E+02  0.40000000102E+02 0.  0.
         12    1    3    3    0    0  0.31796685588E+01  0.35382138353E+02 -0.96836889719E+01  0.36820915778E+02  0.00000000000E+00 0. -1.
         11    1    4    4    0    0 -0.29482743029E+01 -0.72707349226E+01 -0.12146032647E+02  0.14459668634E+02  0.51100000000E-03 0. -1.
        -11    1    4    4    0    0 -0.40074534918E+01 -0.17965826065E+02  0.36757562059E+01  0.18770769128E+02  0.51100000000E-03 0.  1.
        -12    1    4    4    0    0  0.37760592359E+01 -0.10145577366E+02  0.18153965413E+02  0.21136646461E+02  0.00000000000E+00 0.  1.
</event>
<event>
 8    1  0.2432279E-006  0.9118800E+02  0.7816164E-02  0.1184000E+00
        -11   -1    0    0    0    0  0.00000000000E+00  0.00000000000E+00  0.45593999997E+02  0.45594000000E+02  0.51100000000E-03 0. -1.
         11   -1    0    0    0    0 -0.00000000000E+00 -0.00000000000E+00 -0.45593999997E+02  0.45594000000E+02  0.51100000000E-03 0.  1.
         23    2    1    2    0    0 -0.17763568394E-14  0.17763568394E-14  0.00000000000E+00  0.91188000000E+02  0.91188000000E+02 0.  0.
    9900012    2    3    3    0    0 -0.78461591086E+01  0.91234923425E+01 -0.34799130805E+02  0.54367084340E+02  0.40000000370E+02 0.  0.
         12    1    3    3    0    0  0.78461591086E+01 -0.91234923425E+01  0.34799130805E+02  0.36820915660E+02  0.00000000000E+00 0. -1.
         11    1    4    4    0    0  0.41607216916E+01  0.12704943081E+02 -0.39721019946E+01  0.13946496987E+02  0.51100000000E-03 0. -1.
        -11    1    4    4    0    0 -0.16264067369E+02  0.30252358641E+00 -0.10665340063E+02  0.19451500888E+02  0.51100000000E-03 0.  1.
         12    1    4    4    0    0  0.42571865686E+01 -0.38839743247E+01 -0.20161688747E+02  0.20969086465E+02  0.00000000000E+00 0. -1.
</event>
<event>
 8    1  0.2432279E-006  0.9118800E+02  0.7816164E-02  0.1184000E+00
        -11   -1    0    0    0    0  0.00000000000E+00  0.00000000000E+00  0.45593999997E+02  0.45594000000E+02  0.51100000000E-03 0.  1.
         11   -1    0    0    0    0 -0.00000000000E+00 -0.00000000000E+00 -0.45593999997E+02  0.45594000000E+02  0.51100000000E-03 0. -1.
         23    2    1    2    0    0  0.00000000000E+00  0.35527136788E-14  0.00000000000E+00  0.91188000000E+02  0.91188000000E+02 0.  0.
    9900012    2    3    3    0    0  0.82323670259E+01 -0.28556318424E+02  0.21738087155E+02  0.54367087165E+02  0.40000006811E+02 0.  0.
         12    1    3    3    0    0 -0.82323670259E+01  0.28556318424E+02 -0.21738087155E+02  0.36820912835E+02  0.00000000000E+00 0. -1.
         11    1    4    4    0    0  0.10819881625E+02 -0.29633946840E+01  0.65307397702E+01  0.12980836207E+02  0.51100000000E-03 0. -1.
        -11    1    4    4    0    0  0.22395891412E+01 -0.30937137878E+02  0.10348199247E+02  0.32698738317E+02  0.51100000000E-03 0.  1.
         12    1    4    4    0    0 -0.48271037406E+01  0.53442141373E+01  0.48591481374E+01  0.86875126411E+01  0.00000000000E+00 0. -1.
</event>
<event>
 8    1  0.2432279E-006  0.9118800E+02  0.7816164E-02  0.1184000E+00
        -11   -1    0    0    0    0  0.00000000000E+00  0.00000000000E+00  0.45593999997E+02  0.45594000000E+02  0.51100000000E-03 0.  1.
         11   -1    0    0    0    0 -0.00000000000E+00 -0.00000000000E+00 -0.45593999997E+02  0.45594000000E+02  0.51100000000E-03 0. -1.
         23    2    1    2    0    0  0.35527136788E-14  0.00000000000E+00  0.00000000000E+00  0.91188000000E+02  0.91188000000E+02 0.  0.
    9900012    2    3    3    0    0  0.29222148884E+02 -0.20055015098E+02  0.99821573550E+01  0.54367067346E+02  0.39999961630E+02 0.  0.
         12    1    3    3    0    0 -0.29222148884E+02  0.20055015098E+02 -0.99821573550E+01  0.36820932654E+02  0.00000000000E+00 0. -1.
         11    1    4    4    0    0 -0.27797966564E+01  0.39242158997E+01 -0.22139700943E+01  0.52941858408E+01  0.51100000000E-03 0. -1.
        -11    1    4    4    0    0  0.34223647149E+02 -0.14401954169E+02  0.64539334279E+01  0.37687233449E+02  0.51100000000E-03 0.  1.
        -12    1    4    4    0    0 -0.22217016084E+01 -0.95772768288E+01  0.57421940214E+01  0.11385648057E+02  0.00000000000E+00 0.  1.
</event>
<event>
 8    1  0.2432279E-006  0.9118800E+02  0.7816164E-02  0.1184000E+00
        -11   -1    0    0    0    0  0.00000000000E+00  0.00000000000E+00  0.45593999997E+02  0.45594000000E+02  0.51100000000E-03 0. -1.
         11   -1    0    0    0    0 -0.00000000000E+00 -0.00000000000E+00 -0.45593999997E+02  0.45594000000E+02  0.51100000000E-03 0.  1.
         23    2    1    2    0    0  0.00000000000E+00  0.00000000000E+00  0.00000000000E+00  0.91188000000E+02  0.91188000000E+02 0.  0.
    9900012    2    3    3    0    0 -0.23297570783E+02 -0.23593320333E+02 -0.16011185974E+02  0.54367086852E+02  0.40000006097E+02 0.  0.
        -12    1    3    3    0    0  0.23297570783E+02  0.23593320333E+02  0.16011185974E+02  0.36820913148E+02  0.00000000000E+00 0.  1.
         11    1    4    4    0    0  0.10919413933E+01  0.53774815323E+01 -0.10983366099E+02  0.12277783789E+02  0.51100000000E-03 0. -1.
        -11    1    4    4    0    0 -0.91925884243E+01 -0.76933704804E+01 -0.98330823021E+01  0.15504229717E+02  0.51100000000E-03 0.  1.
         12    1    4    4    0    0 -0.15196923752E+02 -0.21277431385E+02  0.48052624268E+01  0.26585073347E+02  0.00000000000E+00 0. -1.
</event>
<event>
 8    1  0.2432279E-006  0.9118800E+02  0.7816164E-02  0.1184000E+00
        -11   -1    0    0    0    0  0.00000000000E+00  0.00000000000E+00  0.45593999997E+02  0.45594000000E+02  0.51100000000E-03 0. -1.
         11   -1    0    0    0    0 -0.00000000000E+00 -0.00000000000E+00 -0.45593999997E+02  0.45594000000E+02  0.51100000000E-03 0.  1.
         23    2    1    2    0    0 -0.17763568394E-14  0.00000000000E+00 -0.17763568394E-14  0.91188000000E+02  0.91188000000E+02 0.  0.
    9900012    2    3    3    0    0  0.10345555902E+02 -0.32828876473E+02  0.13077254941E+02  0.54367078580E+02  0.39999987239E+02 0.  0.
        -12    1    3    3    0    0 -0.10345555902E+02  0.32828876473E+02 -0.13077254941E+02  0.36820921420E+02  0.00000000000E+00 0.  1.
         11    1    4    4    0    0  0.89753365332E+01 -0.76133290802E+00  0.57638321230E+01  0.10693832554E+02  0.51100000000E-03 0. -1.
        -11    1    4    4    0    0  0.59776787964E+01 -0.14987881863E+02 -0.99486512681E+01  0.18956394933E+02  0.51100000000E-03 0.  1.
         12    1    4    4    0    0 -0.46074594279E+01 -0.17079661702E+02  0.17262074086E+02  0.24716851094E+02  0.00000000000E+00 0. -1.
</event>
<event>
 8    1  0.2432279E-006  0.9118800E+02  0.7816164E-02  0.1184000E+00
        -11   -1    0    0    0    0  0.00000000000E+00  0.00000000000E+00  0.45593999997E+02  0.45594000000E+02  0.51100000000E-03 0. -1.
         11   -1    0    0    0    0 -0.00000000000E+00 -0.00000000000E+00 -0.45593999997E+02  0.45594000000E+02  0.51100000000E-03 0.  1.
         23    2    1    2    0    0  0.00000000000E+00 -0.88817841970E-15  0.00000000000E+00  0.91188000000E+02  0.91188000000E+02 0.  0.
    9900012    2    3    3    0    0 -0.25731332855E+02  0.59622909708E+01  0.25654044074E+02  0.54367076853E+02  0.39999983301E+02 0.  0.
        -12    1    3    3    0    0  0.25731332855E+02 -0.59622909708E+01 -0.25654044074E+02  0.36820923147E+02  0.00000000000E+00 0.  1.
         11    1    4    4    0    0 -0.51267778043E+01 -0.10243721382E+02  0.11870549988E+02  0.16496291574E+02  0.51100000000E-03 0. -1.
        -11    1    4    4    0    0 -0.36405929886E+01  0.40446374358E+01 -0.66963694317E+01  0.86286947520E+01  0.51100000000E-03 0.  1.
         12    1    4    4    0    0 -0.16963962062E+02  0.12161374917E+02  0.20479863517E+02  0.29242090527E+02  0.00000000000E+00 0. -1.
</event>
<event>
 8    1  0.2432279E-006  0.9118800E+02  0.7816164E-02  0.1184000E+00
        -11   -1    0    0    0    0  0.00000000000E+00  0.00000000000E+00  0.45593999997E+02  0.45594000000E+02  0.51100000000E-03 0. -1.
         11   -1    0    0    0    0 -0.00000000000E+00 -0.00000000000E+00 -0.45593999997E+02  0.45594000000E+02  0.51100000000E-03 0.  1.
         23    2    1    2    0    0  0.00000000000E+00  0.35527136788E-14  0.00000000000E+00  0.91188000000E+02  0.91188000000E+02 0.  0.
    9900012    2    3    3    0    0  0.72468017978E+01 -0.21419720108E+02 -0.29059612825E+02  0.54367059717E+02  0.39999944236E+02 0.  0.
         12    1    3    3    0    0 -0.72468017978E+01  0.21419720108E+02  0.29059612825E+02  0.36820940283E+02  0.00000000000E+00 0. -1.
         11    1    4    4    0    0  0.62547075303E+01 -0.25408998799E+01  0.63291474874E+01  0.92539530292E+01  0.51100000000E-03 0. -1.
        -11    1    4    4    0    0  0.83567064941E+01 -0.13096627208E+02 -0.11132904198E+02  0.19112763897E+02  0.51100000000E-03 0.  1.
        -12    1    4    4    0    0 -0.73646122266E+01 -0.57821930205E+01 -0.24255856114E+02  0.26000342790E+02  0.00000000000E+00 0.  1.
</event>
<event>
 8    1  0.2432279E-006  0.9118800E+02  0.7816164E-02  0.1184000E+00
        -11   -1    0    0    0    0  0.00000000000E+00  0.00000000000E+00  0.45593999997E+02  0.45594000000E+02  0.51100000000E-03 0.  1.
         11   -1    0    0    0    0 -0.00000000000E+00 -0.00000000000E+00 -0.45593999997E+02  0.45594000000E+02  0.51100000000E-03 0. -1.
         23    2    1    2    0    0  0.00000000000E+00 -0.35527136788E-14  0.00000000000E+00  0.91188000000E+02  0.91188000000E+02 0.  0.
    9900012    2    3    3    0    0  0.89072246661E+01 -0.30084601913E+02  0.19270656349E+02  0.54367080408E+02  0.39999991406E+02 0.  0.
         12    1    3    3    0    0 -0.89072246661E+01  0.30084601913E+02 -0.19270656349E+02  0.36820919592E+02  0.00000000000E+00 0. -1.
         11    1    4    4    0    0 -0.18103763777E+01  0.82336065796E+01  0.20508934732E+01  0.86761687533E+01  0.51100000000E-03 0.  1.
        -11    1    4    4    0    0  0.15701038129E+01 -0.23550034455E+02  0.41797691557E+01  0.23969560265E+02  0.51100000000E-03 0. -1.
        -12    1    4    4    0    0  0.91474972309E+01 -0.14768174037E+02  0.13039993720E+02  0.21721351390E+02  0.00000000000E+00 0.  1.
</event>
<event>
 8    1  0.2432279E-006  0.9118800E+02  0.7816164E-02  0.1184000E+00
        -11   -1    0    0    0    0  0.00000000000E+00  0.00000000000E+00  0.45593999997E+02  0.45594000000E+02  0.51100000000E-03 0. -1.
         11   -1    0    0    0    0 -0.00000000000E+00 -0.00000000000E+00 -0.45593999997E+02  0.45594000000E+02  0.51100000000E-03 0.  1.
         23    2    1    2    0    0  0.71054273576E-14  0.35527136788E-14  0.00000000000E+00  0.91188000000E+02  0.91188000000E+02 0.  0.
    9900012    2    3    3    0    0  0.25077113229E+02  0.24481363740E+02  0.11295175616E+02  0.54367085146E+02  0.40000002208E+02 0.  0.
        -12    1    3    3    0    0 -0.25077113229E+02 -0.24481363740E+02 -0.11295175616E+02  0.36820914854E+02  0.00000000000E+00 0.  1.
         11    1    4    4    0    0 -0.41142837931E+01  0.30813884862E+01 -0.33129683062E+01  0.61153941322E+01  0.51100000000E-03 0. -1.
        -11    1    4    4    0    0  0.13689227472E+02 -0.56424535551E+01  0.42330009791E+01  0.15399692479E+02  0.51100000000E-03 0.  1.
         12    1    4    4    0    0  0.15502169550E+02  0.27042428809E+02  0.10375142943E+02  0.32851998535E+02  0.00000000000E+00 0. -1.
</event>
<event>
 8    1  0.2432279E-006  0.9118800E+02  0.7816164E-02  0.1184000E+00
        -11   -1    0    0    0    0  0.00000000000E+00  0.00000000000E+00  0.45593999997E+02  0.45594000000E+02  0.51100000000E-03 0. -1.
         11   -1    0    0    0    0 -0.00000000000E+00 -0.00000000000E+00 -0.45593999997E+02  0.45594000000E+02  0.51100000000E-03 0.  1.
         23    2    1    2    0    0  0.00000000000E+00  0.88817841970E-15  0.00000000000E+00  0.91188000000E+02  0.91188000000E+02 0.  0.
    9900012    2    3    3    0    0 -0.33365758760E+02  0.52513554683E+01 -0.14660413639E+02  0.54367104846E+02  0.40000047117E+02 0.  0.
         12    1    3    3    0    0  0.33365758760E+02 -0.52513554683E+01  0.14660413639E+02  0.36820895154E+02  0.00000000000E+00 0. -1.
         11    1    4    4    0    0 -0.12499294151E+02  0.12509160506E+02 -0.67116193361E+01  0.18914472903E+02  0.51100000000E-03 0. -1.
        -11    1    4    4    0    0 -0.48914304652E+00  0.69512957318E+01 -0.80012995365E+01  0.10610399041E+02  0.51100000000E-03 0.  1.
         12    1    4    4    0    0 -0.20377321562E+02 -0.14209100769E+02  0.52505233283E-01  0.24842232902E+02  0.00000000000E+00 0. -1.
</event>
<event>
 8    1  0.2432279E-006  0.9118800E+02  0.7816164E-02  0.1184000E+00
        -11   -1    0    0    0    0  0.00000000000E+00  0.00000000000E+00  0.45593999997E+02  0.45594000000E+02  0.51100000000E-03 0. -1.
         11   -1    0    0    0    0 -0.00000000000E+00 -0.00000000000E+00 -0.45593999997E+02  0.45594000000E+02  0.51100000000E-03 0.  1.
         23    2    1    2    0    0  0.00000000000E+00  0.00000000000E+00  0.44408920985E-15  0.91188000000E+02  0.91188000000E+02 0.  0.
    9900012    2    3    3    0    0 -0.34041412523E+02  0.13777284000E+02 -0.26735207085E+01  0.54367095150E+02  0.40000025014E+02 0.  0.
         12    1    3    3    0    0  0.34041412523E+02 -0.13777284000E+02  0.26735207085E+01  0.36820904850E+02  0.00000000000E+00 0. -1.
         11    1    4    4    0    0 -0.31998552230E+02  0.75334992097E+01  0.30734214505E+01  0.33016766571E+02  0.51100000000E-03 0. -1.
        -11    1    4    4    0    0 -0.10004143810E+02  0.14035431815E+01  0.52998985084E+00  0.10116012867E+02  0.51100000000E-03 0.  1.
         12    1    4    4    0    0  0.79612835164E+01  0.48402416084E+01 -0.62769320098E+01  0.11234315712E+02  0.00000000000E+00 0. -1.
</event>
<event>
 8    1  0.2432279E-006  0.9118800E+02  0.7816164E-02  0.1184000E+00
        -11   -1    0    0    0    0  0.00000000000E+00  0.00000000000E+00  0.45593999997E+02  0.45594000000E+02  0.51100000000E-03 0.  1.
         11   -1    0    0    0    0 -0.00000000000E+00 -0.00000000000E+00 -0.45593999997E+02  0.45594000000E+02  0.51100000000E-03 0. -1.
         23    2    1    2    0    0  0.17763568394E-14  0.17763568394E-14  0.71054273576E-14  0.91188000000E+02  0.91188000000E+02 0.  0.
    9900012    2    3    3    0    0 -0.12635812129E+02 -0.11733747708E+02 -0.32533587035E+02  0.54367097393E+02  0.40000030126E+02 0.  0.
        -12    1    3    3    0    0  0.12635812129E+02  0.11733747708E+02  0.32533587035E+02  0.36820902607E+02  0.00000000000E+00 0.  1.
         11    1    4    4    0    0  0.20185589051E+01 -0.77233081776E+01 -0.16932521684E+02  0.18719892096E+02  0.51100000000E-03 0.  1.
        -11    1    4    4    0    0 -0.60873897827E+01 -0.13585867463E+02 -0.17144879623E+02  0.22706364892E+02  0.51100000000E-03 0. -1.
        -12    1    4    4    0    0 -0.85669812514E+01  0.95754279328E+01  0.15438142713E+01  0.12940840404E+02  0.00000000000E+00 0.  1.
</event>
<event>
 8    1  0.2432279E-006  0.9118800E+02  0.7816164E-02  0.1184000E+00
        -11   -1    0    0    0    0  0.00000000000E+00  0.00000000000E+00  0.45593999997E+02  0.45594000000E+02  0.51100000000E-03 0. -1.
         11   -1    0    0    0    0 -0.00000000000E+00 -0.00000000000E+00 -0.45593999997E+02  0.45594000000E+02  0.51100000000E-03 0.  1.
         23    2    1    2    0    0 -0.17763568394E-14 -0.71054273576E-14  0.00000000000E+00  0.91188000000E+02  0.91188000000E+02 0.  0.
    9900012    2    3    3    0    0 -0.49916788572E+01 -0.36062258036E+02  0.55115779611E+01  0.54367071113E+02  0.39999970216E+02 0.  0.
         12    1    3    3    0    0  0.49916788572E+01  0.36062258036E+02 -0.55115779611E+01  0.36820928887E+02  0.00000000000E+00 0. -1.
         11    1    4    4    0    0 -0.10929648599E+02 -0.50945638534E+01 -0.21876715951E+01  0.12255517395E+02  0.51100000000E-03 0. -1.
        -11    1    4    4    0    0  0.35386867898E+00 -0.33903503910E+02  0.26095644868E+01  0.34005626409E+02  0.51100000000E-03 0.  1.
         12    1    4    4    0    0  0.55841010624E+01  0.29358097272E+01  0.50896850694E+01  0.81059273088E+01  0.00000000000E+00 0. -1.
</event>
<event>
 8    1  0.2432279E-006  0.9118800E+02  0.7816164E-02  0.1184000E+00
        -11   -1    0    0    0    0  0.00000000000E+00  0.00000000000E+00  0.45593999997E+02  0.45594000000E+02  0.51100000000E-03 0. -1.
         11   -1    0    0    0    0 -0.00000000000E+00 -0.00000000000E+00 -0.45593999997E+02  0.45594000000E+02  0.51100000000E-03 0.  1.
         23    2    1    2    0    0 -0.53290705182E-14 -0.35527136788E-14  0.35527136788E-14  0.91188000000E+02  0.91188000000E+02 0.  0.
    9900012    2    3    3    0    0 -0.11422272116E+02 -0.17648124020E+02  0.30230055479E+02  0.54367070680E+02  0.39999969228E+02 0.  0.
        -12    1    3    3    0    0  0.11422272116E+02  0.17648124020E+02 -0.30230055479E+02  0.36820929320E+02  0.00000000000E+00 0.  1.
         11    1    4    4    0    0  0.54846159933E+01 -0.48493905005E+01  0.28283181709E+02  0.29215337901E+02  0.51100000000E-03 0. -1.
        -11    1    4    4    0    0 -0.18340761653E+01  0.28158889727E+01  0.53872046175E+00  0.34034227013E+01  0.51100000000E-03 0.  1.
         12    1    4    4    0    0 -0.15072811944E+02 -0.15614622492E+02  0.14081533086E+01  0.21748310077E+02  0.00000000000E+00 0. -1.
</event>
<event>
 8    1  0.2432279E-006  0.9118800E+02  0.7816164E-02  0.1184000E+00
        -11   -1    0    0    0    0  0.00000000000E+00  0.00000000000E+00  0.45593999997E+02  0.45594000000E+02  0.51100000000E-03 0.  1.
         11   -1    0    0    0    0 -0.00000000000E+00 -0.00000000000E+00 -0.45593999997E+02  0.45594000000E+02  0.51100000000E-03 0. -1.
         23    2    1    2    0    0  0.00000000000E+00  0.00000000000E+00 -0.35527136788E-14  0.91188000000E+02  0.91188000000E+02 0.  0.
    9900012    2    3    3    0    0 -0.16763990858E+02  0.90092978873E+01 -0.31521151710E+02  0.54367057005E+02  0.39999938054E+02 0.  0.
        -12    1    3    3    0    0  0.16763990858E+02 -0.90092978873E+01  0.31521151710E+02  0.36820942995E+02  0.00000000000E+00 0.  1.
         11    1    4    4    0    0 -0.13288296301E+02  0.11614080129E+02 -0.14383874311E+02  0.22767554025E+02  0.51100000000E-03 0. -1.
        -11    1    4    4    0    0 -0.12951938774E+02  0.49850132789E+01 -0.59844710409E+01  0.15113469796E+02  0.51100000000E-03 0.  1.
         12    1    4    4    0    0  0.94762442159E+01 -0.75897955206E+01 -0.11152806358E+02  0.16486033184E+02  0.00000000000E+00 0. -1.
</event>
<event>
 8    1  0.2432279E-006  0.9118800E+02  0.7816164E-02  0.1184000E+00
        -11   -1    0    0    0    0  0.00000000000E+00  0.00000000000E+00  0.45593999997E+02  0.45594000000E+02  0.51100000000E-03 0.  1.
         11   -1    0    0    0    0 -0.00000000000E+00 -0.00000000000E+00 -0.45593999997E+02  0.45594000000E+02  0.51100000000E-03 0. -1.
         23    2    1    2    0    0 -0.35527136788E-14  0.00000000000E+00 -0.26645352591E-14  0.91188000000E+02  0.91188000000E+02 0.  0.
    9900012    2    3    3    0    0 -0.16036289903E+02 -0.32383539186E+02  0.70655957219E+01  0.54367097689E+02  0.40000030802E+02 0.  0.
        -12    1    3    3    0    0  0.16036289903E+02  0.32383539186E+02 -0.70655957219E+01  0.36820902311E+02  0.00000000000E+00 0.  1.
         11    1    4    4    0    0  0.75876475691E+01 -0.13887968672E+01 -0.81133290770E+01  0.11194965893E+02  0.51100000000E-03 0. -1.
        -11    1    4    4    0    0  0.37657876272E+00 -0.15955810374E+01 -0.99491714309E+00  0.19176941347E+01  0.51100000000E-03 0.  1.
        -12    1    4    4    0    0 -0.24000516235E+02 -0.29399161282E+02  0.16173841942E+02  0.41254437662E+02  0.00000000000E+00 0.  1.
</event>
<event>
 8    1  0.2432279E-006  0.9118800E+02  0.7816164E-02  0.1184000E+00
        -11   -1    0    0    0    0  0.00000000000E+00  0.00000000000E+00  0.45593999997E+02  0.45594000000E+02  0.51100000000E-03 0.  1.
         11   -1    0    0    0    0 -0.00000000000E+00 -0.00000000000E+00 -0.45593999997E+02  0.45594000000E+02  0.51100000000E-03 0. -1.
         23    2    1    2    0    0  0.00000000000E+00  0.17763568394E-14  0.00000000000E+00  0.91188000000E+02  0.91188000000E+02 0.  0.
    9900012    2    3    3    0    0 -0.28628930029E+02 -0.11323740872E+02  0.20197469315E+02  0.54367075125E+02  0.39999979362E+02 0.  0.
         12    1    3    3    0    0  0.28628930029E+02  0.11323740872E+02 -0.20197469315E+02  0.36820924875E+02  0.00000000000E+00 0. -1.
         11    1    4    4    0    0  0.23319778560E+01 -0.88577303107E+01  0.57410388726E+01  0.10810043227E+02  0.51100000000E-03 0. -1.
        -11    1    4    4    0    0 -0.27588087028E+02 -0.15132289974E+01  0.21948055194E+02  0.35286109660E+02  0.51100000000E-03 0.  1.
        -12    1    4    4    0    0 -0.33728208573E+01 -0.95278156373E+00 -0.74916247517E+01  0.82709222378E+01  0.00000000000E+00 0.  1.
</event>
<event>
 8    1  0.2432279E-006  0.9118800E+02  0.7816164E-02  0.1184000E+00
        -11   -1    0    0    0    0  0.00000000000E+00  0.00000000000E+00  0.45593999997E+02  0.45594000000E+02  0.51100000000E-03 0.  1.
         11   -1    0    0    0    0 -0.00000000000E+00 -0.00000000000E+00 -0.45593999997E+02  0.45594000000E+02  0.51100000000E-03 0. -1.
         23    2    1    2    0    0  0.00000000000E+00  0.00000000000E+00 -0.35527136788E-14  0.91188000000E+02  0.91188000000E+02 0.  0.
    9900012    2    3    3    0    0  0.31267907003E+02  0.63182473035E+01  0.18389574795E+02  0.54367099434E+02  0.40000034781E+02 0.  0.
         12    1    3    3    0    0 -0.31267907003E+02 -0.63182473035E+01 -0.18389574795E+02  0.36820900566E+02  0.00000000000E+00 0. -1.
         11    1    4    4    0    0 -0.10350508067E+01  0.64120026759E+01  0.43150832750E+01  0.77977594487E+01  0.51100000000E-03 0. -1.
        -11    1    4    4    0    0  0.38167924382E+02  0.16076852564E+01  0.11132225085E+02  0.39790721772E+02  0.51100000000E-03 0.  1.
         12    1    4    4    0    0 -0.58649665729E+01 -0.17014406288E+01  0.29422664341E+01  0.67786182134E+01  0.00000000000E+00 0. -1.
</event>
<event>
 8    1  0.2432279E-006  0.9118800E+02  0.7816164E-02  0.1184000E+00
        -11   -1    0    0    0    0  0.00000000000E+00  0.00000000000E+00  0.45593999997E+02  0.45594000000E+02  0.51100000000E-03 0. -1.
         11   -1    0    0    0    0 -0.00000000000E+00 -0.00000000000E+00 -0.45593999997E+02  0.45594000000E+02  0.51100000000E-03 0.  1.
         23    2    1    2    0    0  0.00000000000E+00 -0.88817841970E-15  0.00000000000E+00  0.91188000000E+02  0.91188000000E+02 0.  0.
    9900012    2    3    3    0    0 -0.11872847887E+02  0.67052758517E+01  0.34203137839E+02  0.54367083672E+02  0.39999998848E+02 0.  0.
        -12    1    3    3    0    0  0.11872847887E+02 -0.67052758517E+01 -0.34203137839E+02  0.36820916328E+02  0.00000000000E+00 0.  1.
         11    1    4    4    0    0  0.86313573105E+01  0.73822018596E+01 -0.22406856308E+01  0.11576610284E+02  0.51100000000E-03 0.  1.
        -11    1    4    4    0    0 -0.77501042876E+01  0.40048095183E+01  0.12179342548E+02  0.14981288360E+02  0.51100000000E-03 0. -1.
        -12    1    4    4    0    0 -0.12754100910E+02 -0.46817355262E+01  0.24264480921E+02  0.27809185028E+02  0.00000000000E+00 0.  1.
</event>
<event>
 8    1  0.2432279E-006  0.9118800E+02  0.7816164E-02  0.1184000E+00
        -11   -1    0    0    0    0  0.00000000000E+00  0.00000000000E+00  0.45593999997E+02  0.45594000000E+02  0.51100000000E-03 0.  1.
         11   -1    0    0    0    0 -0.00000000000E+00 -0.00000000000E+00 -0.45593999997E+02  0.45594000000E+02  0.51100000000E-03 0. -1.
         23    2    1    2    0    0  0.35527136788E-14 -0.44408920985E-15  0.00000000000E+00  0.91188000000E+02  0.91188000000E+02 0.  0.
    9900012    2    3    3    0    0  0.30617411565E+02 -0.22452357184E+01 -0.20330074398E+02  0.54367096978E+02  0.40000029181E+02 0.  0.
        -12    1    3    3    0    0 -0.30617411565E+02  0.22452357184E+01  0.20330074398E+02  0.36820903022E+02  0.00000000000E+00 0.  1.
         11    1    4    4    0    0  0.65610310668E+01 -0.71948912481E+01 -0.98911556219E+01  0.13879789211E+02  0.51100000000E-03 0. -1.
        -11    1    4    4    0    0 -0.37006407787E+01 -0.66748931633E+01  0.20549219790E+01  0.79039006519E+01  0.51100000000E-03 0.  1.
        -12    1    4    4    0    0  0.27757021276E+02  0.11624548693E+02 -0.12493840755E+02  0.32583407116E+02  0.00000000000E+00 0.  1.
</event>
<event>
 8    1  0.2432279E-006  0.9118800E+02  0.7816164E-02  0.1184000E+00
        -11   -1    0    0    0    0  0.00000000000E+00  0.00000000000E+00  0.45593999997E+02  0.45594000000E+02  0.51100000000E-03 0.  1.
         11   -1    0    0    0    0 -0.00000000000E+00 -0.00000000000E+00 -0.45593999997E+02  0.45594000000E+02  0.51100000000E-03 0. -1.
         23    2    1    2    0    0  0.35527136788E-14  0.00000000000E+00  0.00000000000E+00  0.91188000000E+02  0.91188000000E+02 0.  0.
    9900012    2    3    3    0    0 -0.18078248613E+02  0.38472644550E+01 -0.31845802123E+02  0.54367087062E+02  0.40000006576E+02 0.  0.
        -12    1    3    3    0    0  0.18078248613E+02 -0.38472644550E+01  0.31845802123E+02  0.36820912938E+02  0.00000000000E+00 0.  1.
         11    1    4    4    0    0 -0.92375369167E+01  0.18185328064E+01 -0.10968670934E+02  0.14455133765E+02  0.51100000000E-03 0. -1.
        -11    1    4    4    0    0 -0.93518326812E+01  0.11430967164E+02 -0.25464778573E+02  0.29437709368E+02  0.51100000000E-03 0.  1.
        -12    1    4    4    0    0  0.51112098494E+00 -0.94022355155E+01  0.45876473842E+01  0.10474243928E+02  0.00000000000E+00 0.  1.
</event>
<event>
 8    1  0.2432279E-006  0.9118800E+02  0.7816164E-02  0.1184000E+00
        -11   -1    0    0    0    0  0.00000000000E+00  0.00000000000E+00  0.45593999997E+02  0.45594000000E+02  0.51100000000E-03 0.  1.
         11   -1    0    0    0    0 -0.00000000000E+00 -0.00000000000E+00 -0.45593999997E+02  0.45594000000E+02  0.51100000000E-03 0. -1.
         23    2    1    2    0    0  0.00000000000E+00  0.00000000000E+00  0.00000000000E+00  0.91188000000E+02  0.91188000000E+02 0.  0.
    9900012    2    3    3    0    0  0.35790796848E+01  0.34919298863E+02 -0.11118137044E+02  0.54367079101E+02  0.39999988427E+02 0.  0.
        -12    1    3    3    0    0 -0.35790796848E+01 -0.34919298863E+02  0.11118137044E+02  0.36820920899E+02  0.00000000000E+00 0.  1.
         11    1    4    4    0    0  0.12967948189E+02  0.48923150761E+01 -0.94770753096E+01  0.16790395580E+02  0.51100000000E-03 0. -1.
        -11    1    4    4    0    0 -0.11306324376E+01  0.27977361368E+02  0.25040444621E+01  0.28111942618E+02  0.51100000000E-03 0.  1.
        -12    1    4    4    0    0 -0.82582360665E+01  0.20496224194E+01 -0.41451061967E+01  0.94647409037E+01  0.00000000000E+00 0.  1.
</event>
<event>
 8    1  0.2432279E-006  0.9118800E+02  0.7816164E-02  0.1184000E+00
        -11   -1    0    0    0    0  0.00000000000E+00  0.00000000000E+00  0.45593999997E+02  0.45594000000E+02  0.51100000000E-03 0. -1.
         11   -1    0    0    0    0 -0.00000000000E+00 -0.00000000000E+00 -0.45593999997E+02  0.45594000000E+02  0.51100000000E-03 0.  1.
         23    2    1    2    0    0  0.00000000000E+00  0.71054273576E-14  0.00000000000E+00  0.91188000000E+02  0.91188000000E+02 0.  0.
    9900012    2    3    3    0    0 -0.11915678507E+02  0.30688818967E+02 -0.16492216892E+02  0.54367079019E+02  0.39999988240E+02 0.  0.
         12    1    3    3    0    0  0.11915678507E+02 -0.30688818967E+02  0.16492216892E+02  0.36820920981E+02  0.00000000000E+00 0. -1.
         11    1    4    4    0    0 -0.38291725473E+01  0.66622346416E+01  0.77320244868E+01  0.10901015354E+02  0.51100000000E-03 0. -1.
        -11    1    4    4    0    0 -0.80704360372E+00  0.11431126920E+02  0.36475458641E+01  0.12026078876E+02  0.51100000000E-03 0.  1.
        -12    1    4    4    0    0 -0.72794623558E+01  0.12595457405E+02 -0.27871787243E+02  0.31439984789E+02  0.00000000000E+00 0.  1.
</event>
<event>
 8    1  0.2432279E-006  0.9118800E+02  0.7816164E-02  0.1184000E+00
        -11   -1    0    0    0    0  0.00000000000E+00  0.00000000000E+00  0.45593999997E+02  0.45594000000E+02  0.51100000000E-03 0.  1.
         11   -1    0    0    0    0 -0.00000000000E+00 -0.00000000000E+00 -0.45593999997E+02  0.45594000000E+02  0.51100000000E-03 0. -1.
         23    2    1    2    0    0 -0.13322676296E-14  0.00000000000E+00  0.00000000000E+00  0.91188000000E+02  0.91188000000E+02 0.  0.
    9900012    2    3    3    0    0  0.23904541886E+01  0.36148276291E+02  0.65853923894E+01  0.54367088238E+02  0.40000009256E+02 0.  0.
         12    1    3    3    0    0 -0.23904541886E+01 -0.36148276291E+02 -0.65853923894E+01  0.36820911762E+02  0.00000000000E+00 0. -1.
         11    1    4    4    0    0  0.89290499856E+01  0.20987223285E+02 -0.92343647437E+01  0.24606197743E+02  0.51100000000E-03 0. -1.
        -11    1    4    4    0    0 -0.66328856467E+01  0.12975187860E+02  0.20174767798E+02  0.24887184010E+02  0.51100000000E-03 0.  1.
        -12    1    4    4    0    0  0.94289849694E-01  0.21858651460E+01 -0.43550106646E+01  0.48737064849E+01  0.00000000000E+00 0.  1.
</event>
<event>
 8    1  0.2432279E-006  0.9118800E+02  0.7816164E-02  0.1184000E+00
        -11   -1    0    0    0    0  0.00000000000E+00  0.00000000000E+00  0.45593999997E+02  0.45594000000E+02  0.51100000000E-03 0.  1.
         11   -1    0    0    0    0 -0.00000000000E+00 -0.00000000000E+00 -0.45593999997E+02  0.45594000000E+02  0.51100000000E-03 0. -1.
         23    2    1    2    0    0  0.00000000000E+00  0.00000000000E+00  0.00000000000E+00  0.91188000000E+02  0.91188000000E+02 0.  0.
    9900012    2    3    3    0    0 -0.19129277948E+02 -0.25993103619E+02 -0.17726011138E+02  0.54367052410E+02  0.39999927579E+02 0.  0.
        -12    1    3    3    0    0  0.19129277948E+02  0.25993103619E+02  0.17726011138E+02  0.36820947590E+02  0.00000000000E+00 0.  1.
         11    1    4    4    0    0 -0.24869442826E+02 -0.19380313736E+02  0.55727900102E+00  0.31534049964E+02  0.51100000000E-03 0. -1.
        -11    1    4    4    0    0  0.71258858824E+01 -0.17804685769E+01 -0.57462854051E+01  0.93256696371E+01  0.51100000000E-03 0.  1.
        -12    1    4    4    0    0 -0.13857210048E+01 -0.48323213060E+01 -0.12537004734E+02  0.13507332809E+02  0.00000000000E+00 0.  1.
</event>
<event>
 8    1  0.2432279E-006  0.9118800E+02  0.7816164E-02  0.1184000E+00
        -11   -1    0    0    0    0  0.00000000000E+00  0.00000000000E+00  0.45593999997E+02  0.45594000000E+02  0.51100000000E-03 0. -1.
         11   -1    0    0    0    0 -0.00000000000E+00 -0.00000000000E+00 -0.45593999997E+02  0.45594000000E+02  0.51100000000E-03 0.  1.
         23    2    1    2    0    0  0.00000000000E+00  0.35527136788E-14  0.00000000000E+00  0.91188000000E+02  0.91188000000E+02 0.  0.
    9900012    2    3    3    0    0 -0.28998070480E+02 -0.15361724717E+02  0.16700563664E+02  0.54367088760E+02  0.40000010446E+02 0.  0.
        -12    1    3    3    0    0  0.28998070480E+02  0.15361724717E+02 -0.16700563664E+02  0.36820911240E+02  0.00000000000E+00 0.  1.
         11    1    4    4    0    0 -0.12505613238E+02  0.18029348204E+01  0.15678010669E+02  0.20135564438E+02  0.51100000000E-03 0. -1.
        -11    1    4    4    0    0 -0.12537748555E+02  0.33888512314E+01 -0.17990541881E+01  0.13111676008E+02  0.51100000000E-03 0.  1.
         12    1    4    4    0    0 -0.39547086865E+01 -0.20553510769E+02  0.28216071831E+01  0.21119848314E+02  0.00000000000E+00 0. -1.
</event>
<event>
 8    1  0.2432279E-006  0.9118800E+02  0.7816164E-02  0.1184000E+00
        -11   -1    0    0    0    0  0.00000000000E+00  0.00000000000E+00  0.45593999997E+02  0.45594000000E+02  0.51100000000E-03 0. -1.
         11   -1    0    0    0    0 -0.00000000000E+00 -0.00000000000E+00 -0.45593999997E+02  0.45594000000E+02  0.51100000000E-03 0.  1.
         23    2    1    2    0    0 -0.17763568394E-14 -0.35527136788E-14  0.00000000000E+00  0.91188000000E+02  0.91188000000E+02 0.  0.
    9900012    2    3    3    0    0 -0.11140860076E+02 -0.26498000125E+02 -0.23010844009E+02  0.54367330317E+02  0.40000561120E+02 0.  0.
         12    1    3    3    0    0  0.11140860076E+02  0.26498000125E+02  0.23010844009E+02  0.36820669683E+02  0.00000000000E+00 0. -1.
         11    1    4    4    0    0  0.22290433432E+01  0.88665148401E+01 -0.98514236986E+01  0.13440024880E+02  0.51100000000E-03 0. -1.
        -11    1    4    4    0    0 -0.51208447516E+01 -0.65225091070E+01 -0.55511736872E+01  0.99790633622E+01  0.51100000000E-03 0.  1.
         12    1    4    4    0    0 -0.82490586675E+01 -0.28842005858E+02 -0.76082466237E+01  0.30948242075E+02  0.00000000000E+00 0. -1.
</event>
<event>
 8    1  0.2432279E-006  0.9118800E+02  0.7816164E-02  0.1184000E+00
        -11   -1    0    0    0    0  0.00000000000E+00  0.00000000000E+00  0.45593999997E+02  0.45594000000E+02  0.51100000000E-03 0.  1.
         11   -1    0    0    0    0 -0.00000000000E+00 -0.00000000000E+00 -0.45593999997E+02  0.45594000000E+02  0.51100000000E-03 0. -1.
         23    2    1    2    0    0 -0.35527136788E-14 -0.17763568394E-14  0.00000000000E+00  0.91188000000E+02  0.91188000000E+02 0.  0.
    9900012    2    3    3    0    0  0.11581192903E+02  0.57341420936E+01 -0.34478622170E+02  0.54367084730E+02  0.40000001259E+02 0.  0.
        -12    1    3    3    0    0 -0.11581192903E+02 -0.57341420936E+01  0.34478622170E+02  0.36820915270E+02  0.00000000000E+00 0.  1.
         11    1    4    4    0    0 -0.71179668737E+01  0.84119820069E+01 -0.12768937035E+02  0.16866316936E+02  0.51100000000E-03 0. -1.
        -11    1    4    4    0    0 -0.45818595055E+01  0.42534667042E+01 -0.51822905435E+01  0.81204403249E+01  0.51100000000E-03 0.  1.
        -12    1    4    4    0    0  0.23281019282E+02 -0.69313066175E+01 -0.16527394591E+02  0.29380327469E+02  0.00000000000E+00 0.  1.
</event>
<event>
 8    1  0.2432279E-006  0.9118800E+02  0.7816164E-02  0.1184000E+00
        -11   -1    0    0    0    0  0.00000000000E+00  0.00000000000E+00  0.45593999997E+02  0.45594000000E+02  0.51100000000E-03 0. -1.
         11   -1    0    0    0    0 -0.00000000000E+00 -0.00000000000E+00 -0.45593999997E+02  0.45594000000E+02  0.51100000000E-03 0.  1.
         23    2    1    2    0    0 -0.88817841970E-15 -0.88817841970E-15 -0.14210854715E-13  0.91188000000E+02  0.91188000000E+02 0.  0.
    9900012    2    3    3    0    0  0.54300666980E+01  0.37794661196E+01  0.36221675918E+02  0.54367084819E+02  0.40000001461E+02 0.  0.
        -12    1    3    3    0    0 -0.54300666980E+01 -0.37794661196E+01 -0.36221675918E+02  0.36820915181E+02  0.00000000000E+00 0.  1.
         11    1    4    4    0    0  0.12189314118E+02 -0.77837437205E+01  0.15579134442E+02  0.21257362846E+02  0.51100000000E-03 0. -1.
        -11    1    4    4    0    0 -0.46576630682E+00 -0.31362558339E+01 -0.31329427488E+01  0.44573949159E+01  0.51100000000E-03 0.  1.
        -12    1    4    4    0    0 -0.62934811130E+01  0.14699465674E+02  0.23775484225E+02  0.28652327057E+02  0.00000000000E+00 0.  1.
</event>
<event>
 8    1  0.2432279E-006  0.9118800E+02  0.7816164E-02  0.1184000E+00
        -11   -1    0    0    0    0  0.00000000000E+00  0.00000000000E+00  0.45593999997E+02  0.45594000000E+02  0.51100000000E-03 0.  1.
         11   -1    0    0    0    0 -0.00000000000E+00 -0.00000000000E+00 -0.45593999997E+02  0.45594000000E+02  0.51100000000E-03 0. -1.
         23    2    1    2    0    0  0.00000000000E+00  0.00000000000E+00 -0.35527136788E-14  0.91188000000E+02  0.91188000000E+02 0.  0.
    9900012    2    3    3    0    0  0.16835701705E+02 -0.16538014452E+02 -0.28263609407E+02  0.54367103886E+02  0.40000044929E+02 0.  0.
        -12    1    3    3    0    0 -0.16835701705E+02  0.16538014452E+02  0.28263609407E+02  0.36820896114E+02  0.00000000000E+00 0.  1.
         11    1    4    4    0    0  0.24345820094E+02 -0.66415400826E+01 -0.21685048276E+02  0.33272666405E+02  0.51100000000E-03 0. -1.
        -11    1    4    4    0    0 -0.69220668426E+01 -0.11659170352E+01 -0.95509277577E+01  0.11853041517E+02  0.51100000000E-03 0.  1.
        -12    1    4    4    0    0 -0.58805154631E+00 -0.87305573346E+01  0.29723666270E+01  0.92413959638E+01  0.00000000000E+00 0.  1.
</event>
<event>
 8    1  0.2432279E-006  0.9118800E+02  0.7816164E-02  0.1184000E+00
        -11   -1    0    0    0    0  0.00000000000E+00  0.00000000000E+00  0.45593999997E+02  0.45594000000E+02  0.51100000000E-03 0. -1.
         11   -1    0    0    0    0 -0.00000000000E+00 -0.00000000000E+00 -0.45593999997E+02  0.45594000000E+02  0.51100000000E-03 0.  1.
         23    2    1    2    0    0  0.00000000000E+00  0.00000000000E+00  0.71054273576E-14  0.91188000000E+02  0.91188000000E+02 0.  0.
    9900012    2    3    3    0    0  0.33841186926E+01  0.70250041384E+01  0.35985795721E+02  0.54367076110E+02  0.39999981608E+02 0.  0.
        -12    1    3    3    0    0 -0.33841186926E+01 -0.70250041384E+01 -0.35985795721E+02  0.36820923890E+02  0.00000000000E+00 0.  1.
         11    1    4    4    0    0  0.78658257375E+01  0.74942248441E+01  0.49772797485E+01  0.11950227383E+02  0.51100000000E-03 0. -1.
        -11    1    4    4    0    0  0.15497358989E+01  0.13399677926E+02  0.11451418006E+02  0.17694293557E+02  0.51100000000E-03 0.  1.
         12    1    4    4    0    0 -0.60314429438E+01 -0.13868898632E+02  0.19557097967E+02  0.24722555170E+02  0.00000000000E+00 0. -1.
</event>
<event>
 8    1  0.2432279E-006  0.9118800E+02  0.7816164E-02  0.1184000E+00
        -11   -1    0    0    0    0  0.00000000000E+00  0.00000000000E+00  0.45593999997E+02  0.45594000000E+02  0.51100000000E-03 0. -1.
         11   -1    0    0    0    0 -0.00000000000E+00 -0.00000000000E+00 -0.45593999997E+02  0.45594000000E+02  0.51100000000E-03 0.  1.
         23    2    1    2    0    0 -0.17763568394E-14  0.00000000000E+00  0.35527136788E-14  0.91188000000E+02  0.91188000000E+02 0.  0.
    9900012    2    3    3    0    0 -0.15058081395E+02 -0.13955972061E+02  0.30565716793E+02  0.54367108993E+02  0.40000056572E+02 0.  0.
        -12    1    3    3    0    0  0.15058081395E+02  0.13955972061E+02 -0.30565716793E+02  0.36820891007E+02  0.00000000000E+00 0.  1.
         11    1    4    4    0    0  0.24581545494E+01 -0.11792230978E+02  0.35181986393E+01  0.12548982315E+02  0.51100000000E-03 0. -1.
        -11    1    4    4    0    0 -0.81889529307E+00  0.95082304962E+01  0.23991939873E+01  0.98403845819E+01  0.51100000000E-03 0.  1.
         12    1    4    4    0    0 -0.16697340651E+02 -0.11671971579E+02  0.24648324166E+02  0.31977742096E+02  0.00000000000E+00 0. -1.
</event>
<event>
 8    1  0.2432279E-006  0.9118800E+02  0.7816164E-02  0.1184000E+00
        -11   -1    0    0    0    0  0.00000000000E+00  0.00000000000E+00  0.45593999997E+02  0.45594000000E+02  0.51100000000E-03 0.  1.
         11   -1    0    0    0    0 -0.00000000000E+00 -0.00000000000E+00 -0.45593999997E+02  0.45594000000E+02  0.51100000000E-03 0. -1.
         23    2    1    2    0    0  0.00000000000E+00  0.00000000000E+00  0.00000000000E+00  0.91188000000E+02  0.91188000000E+02 0.  0.
    9900012    2    3    3    0    0 -0.89270919955E+01  0.13696326200E+02  0.32992396249E+02  0.54367074793E+02  0.39999978605E+02 0.  0.
         12    1    3    3    0    0  0.89270919955E+01 -0.13696326200E+02 -0.32992396249E+02  0.36820925207E+02  0.00000000000E+00 0. -1.
         11    1    4    4    0    0 -0.14989010654E+02  0.11214311762E+01  0.99191596535E+01  0.18008824969E+02  0.51100000000E-03 0. -1.
        -11    1    4    4    0    0 -0.73846523920E+00  0.77060245361E+01  0.26283348694E+02  0.27399681821E+02  0.51100000000E-03 0.  1.
        -12    1    4    4    0    0  0.68003838973E+01  0.48688704875E+01 -0.32101120990E+01  0.89585680029E+01  0.00000000000E+00 0.  1.
</event>
<event>
 8    1  0.2432279E-006  0.9118800E+02  0.7816164E-02  0.1184000E+00
        -11   -1    0    0    0    0  0.00000000000E+00  0.00000000000E+00  0.45593999997E+02  0.45594000000E+02  0.51100000000E-03 0.  1.
         11   -1    0    0    0    0 -0.00000000000E+00 -0.00000000000E+00 -0.45593999997E+02  0.45594000000E+02  0.51100000000E-03 0. -1.
         23    2    1    2    0    0  0.00000000000E+00  0.17763568394E-14 -0.35527136788E-14  0.91188000000E+02  0.91188000000E+02 0.  0.
    9900012    2    3    3    0    0  0.16277886532E+02 -0.12751617783E+02  0.30466483772E+02  0.54367082312E+02  0.39999995746E+02 0.  0.
         12    1    3    3    0    0 -0.16277886532E+02  0.12751617783E+02 -0.30466483772E+02  0.36820917688E+02  0.00000000000E+00 0. -1.
         11    1    4    4    0    0  0.93099985195E+01  0.70453543375E+01  0.81843389790E+00  0.11703970458E+02  0.51100000000E-03 0. -1.
        -11    1    4    4    0    0 -0.52809498017E+01 -0.97595374725E+01  0.27224997133E+01  0.11425804455E+02  0.51100000000E-03 0.  1.
        -12    1    4    4    0    0  0.12248837814E+02 -0.10037434648E+02  0.26925550160E+02  0.31237307399E+02  0.00000000000E+00 0.  1.
</event>
<event>
 8    1  0.2432279E-006  0.9118800E+02  0.7816164E-02  0.1184000E+00
        -11   -1    0    0    0    0  0.00000000000E+00  0.00000000000E+00  0.45593999997E+02  0.45594000000E+02  0.51100000000E-03 0.  1.
         11   -1    0    0    0    0 -0.00000000000E+00 -0.00000000000E+00 -0.45593999997E+02  0.45594000000E+02  0.51100000000E-03 0. -1.
         23    2    1    2    0    0  0.00000000000E+00  0.00000000000E+00  0.35527136788E-14  0.91188000000E+02  0.91188000000E+02 0.  0.
    9900012    2    3    3    0    0 -0.39910889549E+01 -0.17893849195E+02 -0.31932147847E+02  0.54367072579E+02  0.39999973557E+02 0.  0.
        -12    1    3    3    0    0  0.39910889549E+01  0.17893849195E+02  0.31932147847E+02  0.36820927421E+02  0.00000000000E+00 0.  1.
         11    1    4    4    0    0  0.20419230574E+01 -0.73769417125E+01 -0.23828199826E+02  0.25027421481E+02  0.51100000000E-03 0. -1.
        -11    1    4    4    0    0  0.65874351842E+01 -0.12339806016E+02 -0.88733082776E+01  0.16565044970E+02  0.51100000000E-03 0.  1.
         12    1    4    4    0    0 -0.12620447196E+02  0.18228985337E+01  0.76936025618E+00  0.12774606127E+02  0.00000000000E+00 0. -1.
</event>
<event>
 8    1  0.2432279E-006  0.9118800E+02  0.7816164E-02  0.1184000E+00
        -11   -1    0    0    0    0  0.00000000000E+00  0.00000000000E+00  0.45593999997E+02  0.45594000000E+02  0.51100000000E-03 0.  1.
         11   -1    0    0    0    0 -0.00000000000E+00 -0.00000000000E+00 -0.45593999997E+02  0.45594000000E+02  0.51100000000E-03 0. -1.
         23    2    1    2    0    0  0.00000000000E+00  0.16653345369E-15  0.00000000000E+00  0.91188000000E+02  0.91188000000E+02 0.  0.
    9900012    2    3    3    0    0  0.10691508906E+02 -0.40533293073E+00  0.35232197005E+02  0.54367077099E+02  0.39999983864E+02 0.  0.
         12    1    3    3    0    0 -0.10691508906E+02  0.40533293073E+00 -0.35232197005E+02  0.36820922901E+02  0.00000000000E+00 0. -1.
         11    1    4    4    0    0  0.44531911934E+01 -0.18901959950E+01 -0.73398422760E+00  0.48931059474E+01  0.51100000000E-03 0. -1.
        -11    1    4    4    0    0  0.14368816665E+02 -0.29002746480E+01  0.37358995566E+02  0.40131895487E+02  0.51100000000E-03 0.  1.
        -12    1    4    4    0    0 -0.81304989524E+01  0.43851377122E+01 -0.13928143337E+01  0.93420756655E+01  0.00000000000E+00 0.  1.
</event>
<event>
 8    1  0.2432279E-006  0.9118800E+02  0.7816164E-02  0.1184000E+00
        -11   -1    0    0    0    0  0.00000000000E+00  0.00000000000E+00  0.45593999997E+02  0.45594000000E+02  0.51100000000E-03 0.  1.
         11   -1    0    0    0    0 -0.00000000000E+00 -0.00000000000E+00 -0.45593999997E+02  0.45594000000E+02  0.51100000000E-03 0. -1.
         23    2    1    2    0    0  0.17763568394E-14  0.00000000000E+00  0.00000000000E+00  0.91188000000E+02  0.91188000000E+02 0.  0.
    9900012    2    3    3    0    0 -0.14112091683E+02 -0.21778940715E+02  0.26121005199E+02  0.54367077919E+02  0.39999985731E+02 0.  0.
         12    1    3    3    0    0  0.14112091683E+02  0.21778940715E+02 -0.26121005199E+02  0.36820922081E+02  0.00000000000E+00 0. -1.
         11    1    4    4    0    0 -0.96432330190E+01 -0.54524934299E+01 -0.33248536691E+01  0.11566169627E+02  0.51100000000E-03 0. -1.
        -11    1    4    4    0    0  0.41747108865E+01 -0.16632229957E+01  0.24734899672E+02  0.25139804768E+02  0.51100000000E-03 0.  1.
        -12    1    4    4    0    0 -0.86435695501E+01 -0.14663224289E+02  0.47109591963E+01  0.17661103524E+02  0.00000000000E+00 0.  1.
</event>
<event>
 8    1  0.2432279E-006  0.9118800E+02  0.7816164E-02  0.1184000E+00
        -11   -1    0    0    0    0  0.00000000000E+00  0.00000000000E+00  0.45593999997E+02  0.45594000000E+02  0.51100000000E-03 0. -1.
         11   -1    0    0    0    0 -0.00000000000E+00 -0.00000000000E+00 -0.45593999997E+02  0.45594000000E+02  0.51100000000E-03 0.  1.
         23    2    1    2    0    0  0.00000000000E+00 -0.35527136788E-14  0.88817841970E-15  0.91188000000E+02  0.91188000000E+02 0.  0.
    9900012    2    3    3    0    0 -0.27800284113E+02 -0.23458167576E+02 -0.57130037669E+01  0.54367084275E+02  0.40000000221E+02 0.  0.
        -12    1    3    3    0    0  0.27800284113E+02  0.23458167576E+02  0.57130037669E+01  0.36820915725E+02  0.00000000000E+00 0.  1.
         11    1    4    4    0    0 -0.12438799502E+02 -0.51141720986E+01  0.20464023632E+01  0.13603905770E+02  0.51100000000E-03 0. -1.
        -11    1    4    4    0    0 -0.62504546697E+01 -0.61533708808E+01  0.12594986000E+02  0.15348153940E+02  0.51100000000E-03 0.  1.
        -12    1    4    4    0    0 -0.91110299410E+01 -0.12190624597E+02 -0.20354392130E+02  0.25415024565E+02  0.00000000000E+00 0.  1.
</event>
<event>
 8    1  0.2432279E-006  0.9118800E+02  0.7816164E-02  0.1184000E+00
        -11   -1    0    0    0    0  0.00000000000E+00  0.00000000000E+00  0.45593999997E+02  0.45594000000E+02  0.51100000000E-03 0. -1.
         11   -1    0    0    0    0 -0.00000000000E+00 -0.00000000000E+00 -0.45593999997E+02  0.45594000000E+02  0.51100000000E-03 0.  1.
         23    2    1    2    0    0  0.00000000000E+00  0.00000000000E+00  0.00000000000E+00  0.91188000000E+02  0.91188000000E+02 0.  0.
    9900012    2    3    3    0    0  0.14537782671E+02  0.23666674049E+02  0.24172735249E+02  0.54367085903E+02  0.40000003934E+02 0.  0.
        -12    1    3    3    0    0 -0.14537782671E+02 -0.23666674049E+02 -0.24172735249E+02  0.36820914097E+02  0.00000000000E+00 0.  1.
         11    1    4    4    0    0  0.44520784163E+01  0.19908265272E+02  0.17426948004E+02  0.26830179749E+02  0.51100000000E-03 0. -1.
        -11    1    4    4    0    0 -0.11090851822E+01 -0.89247687222E+01 -0.76826284129E+00  0.90261727626E+01  0.51100000000E-03 0.  1.
         12    1    4    4    0    0  0.11194789437E+02  0.12683177499E+02  0.75140500859E+01  0.18510733392E+02  0.00000000000E+00 0. -1.
</event>
<event>
 8    1  0.2432279E-006  0.9118800E+02  0.7816164E-02  0.1184000E+00
        -11   -1    0    0    0    0  0.00000000000E+00  0.00000000000E+00  0.45593999997E+02  0.45594000000E+02  0.51100000000E-03 0. -1.
         11   -1    0    0    0    0 -0.00000000000E+00 -0.00000000000E+00 -0.45593999997E+02  0.45594000000E+02  0.51100000000E-03 0.  1.
         23    2    1    2    0    0  0.00000000000E+00  0.00000000000E+00  0.00000000000E+00  0.91188000000E+02  0.91188000000E+02 0.  0.
    9900012    2    3    3    0    0 -0.17539954231E+02 -0.23083745110E+02 -0.22699576376E+02  0.54367081347E+02  0.39999993548E+02 0.  0.
         12    1    3    3    0    0  0.17539954231E+02  0.23083745110E+02  0.22699576376E+02  0.36820918653E+02  0.00000000000E+00 0. -1.
         11    1    4    4    0    0 -0.24899764445E+02 -0.42512236489E+01 -0.55984091013E+01  0.25873023725E+02  0.51100000000E-03 0. -1.
        -11    1    4    4    0    0 -0.18270779957E+01 -0.57574250074E+01 -0.16404862766E+01  0.62591814323E+01  0.51100000000E-03 0.  1.
         12    1    4    4    0    0  0.91868882096E+01 -0.13075096454E+02 -0.15460680999E+02  0.22234876190E+02  0.00000000000E+00 0. -1.
</event>
<event>
 8    1  0.2432279E-006  0.9118800E+02  0.7816164E-02  0.1184000E+00
        -11   -1    0    0    0    0  0.00000000000E+00  0.00000000000E+00  0.45593999997E+02  0.45594000000E+02  0.51100000000E-03 0. -1.
         11   -1    0    0    0    0 -0.00000000000E+00 -0.00000000000E+00 -0.45593999997E+02  0.45594000000E+02  0.51100000000E-03 0.  1.
         23    2    1    2    0    0 -0.35527136788E-14  0.00000000000E+00 -0.35527136788E-14  0.91188000000E+02  0.91188000000E+02 0.  0.
    9900012    2    3    3    0    0  0.22142351311E+02 -0.21484460913E+02  0.20097638043E+02  0.54367070664E+02  0.39999969193E+02 0.  0.
        -12    1    3    3    0    0 -0.22142351311E+02  0.21484460913E+02 -0.20097638043E+02  0.36820929336E+02  0.00000000000E+00 0.  1.
         11    1    4    4    0    0  0.39450947359E+01 -0.21403561803E+02  0.13159801231E+01  0.21803853656E+02  0.51100000000E-03 0. -1.
        -11    1    4    4    0    0  0.95588054432E+01 -0.94319605746E+00 -0.22021939942E+01  0.98544425998E+01  0.51100000000E-03 0.  1.
         12    1    4    4    0    0  0.86384511314E+01  0.86229694773E+00  0.20983851914E+02  0.22708774408E+02  0.00000000000E+00 0. -1.
</event>
<event>
 8    1  0.2432279E-006  0.9118800E+02  0.7816164E-02  0.1184000E+00
        -11   -1    0    0    0    0  0.00000000000E+00  0.00000000000E+00  0.45593999997E+02  0.45594000000E+02  0.51100000000E-03 0.  1.
         11   -1    0    0    0    0 -0.00000000000E+00 -0.00000000000E+00 -0.45593999997E+02  0.45594000000E+02  0.51100000000E-03 0. -1.
         23    2    1    2    0    0  0.35527136788E-14  0.00000000000E+00  0.00000000000E+00  0.91188000000E+02  0.91188000000E+02 0.  0.
    9900012    2    3    3    0    0  0.30550048457E+02 -0.11780360218E+02 -0.16843328527E+02  0.54367081170E+02  0.39999993144E+02 0.  0.
        -12    1    3    3    0    0 -0.30550048457E+02  0.11780360218E+02  0.16843328527E+02  0.36820918830E+02  0.00000000000E+00 0.  1.
         11    1    4    4    0    0  0.13118732378E+02 -0.10081428118E+02  0.74185211811E+01  0.18132037637E+02  0.51100000000E-03 0. -1.
        -11    1    4    4    0    0  0.70912612870E+01  0.75742734814E+01 -0.29325484735E+01  0.10782181886E+02  0.51100000000E-03 0.  1.
         12    1    4    4    0    0  0.10340054792E+02 -0.92732055817E+01 -0.21329301235E+02  0.25452861647E+02  0.00000000000E+00 0. -1.
</event>
<event>
 8    1  0.2432279E-006  0.9118800E+02  0.7816164E-02  0.1184000E+00
        -11   -1    0    0    0    0  0.00000000000E+00  0.00000000000E+00  0.45593999997E+02  0.45594000000E+02  0.51100000000E-03 0. -1.
         11   -1    0    0    0    0 -0.00000000000E+00 -0.00000000000E+00 -0.45593999997E+02  0.45594000000E+02  0.51100000000E-03 0.  1.
         23    2    1    2    0    0  0.00000000000E+00  0.00000000000E+00  0.00000000000E+00  0.91188000000E+02  0.91188000000E+02 0.  0.
    9900012    2    3    3    0    0 -0.23825447190E+02 -0.20171523556E+02  0.19525221892E+02  0.54367128387E+02  0.40000100784E+02 0.  0.
        -12    1    3    3    0    0  0.23825447190E+02  0.20171523556E+02 -0.19525221892E+02  0.36820871613E+02  0.00000000000E+00 0.  1.
         11    1    4    4    0    0 -0.20633334520E+02 -0.19720817124E+02 -0.42039513371E+00  0.28545084582E+02  0.51100000000E-03 0. -1.
        -11    1    4    4    0    0 -0.96312079381E+01 -0.17752073485E+01  0.12721609963E+02  0.16054622007E+02  0.51100000000E-03 0.  1.
        -12    1    4    4    0    0  0.64390952677E+01  0.13245009165E+01  0.72240070631E+01  0.97674217986E+01  0.00000000000E+00 0.  1.
</event>
<event>
 8    1  0.2432279E-006  0.9118800E+02  0.7816164E-02  0.1184000E+00
        -11   -1    0    0    0    0  0.00000000000E+00  0.00000000000E+00  0.45593999997E+02  0.45594000000E+02  0.51100000000E-03 0. -1.
         11   -1    0    0    0    0 -0.00000000000E+00 -0.00000000000E+00 -0.45593999997E+02  0.45594000000E+02  0.51100000000E-03 0.  1.
         23    2    1    2    0    0  0.35527136788E-14  0.00000000000E+00  0.00000000000E+00  0.91188000000E+02  0.91188000000E+02 0.  0.
    9900012    2    3    3    0    0  0.28270053726E+02  0.23068446973E+02  0.49427488442E+01  0.54367082718E+02  0.39999996671E+02 0.  0.
         12    1    3    3    0    0 -0.28270053726E+02 -0.23068446973E+02 -0.49427488442E+01  0.36820917282E+02  0.00000000000E+00 0. -1.
         11    1    4    4    0    0  0.93142327022E+01  0.78143977068E+01  0.69786675759E+01  0.14018614188E+02  0.51100000000E-03 0. -1.
        -11    1    4    4    0    0  0.27386934194E+02  0.15844978892E+02 -0.32628675534E+01  0.31808077992E+02  0.51100000000E-03 0.  1.
         12    1    4    4    0    0 -0.84311131708E+01 -0.59092962590E+00  0.12269488217E+01  0.85403905374E+01  0.00000000000E+00 0. -1.
</event>
<event>
 8    1  0.2432279E-006  0.9118800E+02  0.7816164E-02  0.1184000E+00
        -11   -1    0    0    0    0  0.00000000000E+00  0.00000000000E+00  0.45593999997E+02  0.45594000000E+02  0.51100000000E-03 0. -1.
         11   -1    0    0    0    0 -0.00000000000E+00 -0.00000000000E+00 -0.45593999997E+02  0.45594000000E+02  0.51100000000E-03 0.  1.
         23    2    1    2    0    0 -0.71054273576E-14 -0.17763568394E-14  0.88817841970E-15  0.91188000000E+02  0.91188000000E+02 0.  0.
    9900012    2    3    3    0    0 -0.33308409879E+02 -0.13825037591E+02  0.74295247325E+01  0.54367086502E+02  0.40000005299E+02 0.  0.
        -12    1    3    3    0    0  0.33308409879E+02  0.13825037591E+02 -0.74295247325E+01  0.36820913498E+02  0.00000000000E+00 0.  1.
         11    1    4    4    0    0  0.30771345317E+01 -0.72128740625E+01  0.13071515551E+01  0.79500285922E+01  0.51100000000E-03 0. -1.
        -11    1    4    4    0    0 -0.25254505186E+02  0.40832394886E+01  0.13918200168E+02  0.29123515809E+02  0.51100000000E-03 0.  1.
        -12    1    4    4    0    0 -0.11131039225E+02 -0.10695403017E+02 -0.77958269906E+01  0.17293542101E+02  0.00000000000E+00 0.  1.
</event>
<event>
 8    1  0.2432279E-006  0.9118800E+02  0.7816164E-02  0.1184000E+00
        -11   -1    0    0    0    0  0.00000000000E+00  0.00000000000E+00  0.45593999997E+02  0.45594000000E+02  0.51100000000E-03 0. -1.
         11   -1    0    0    0    0 -0.00000000000E+00 -0.00000000000E+00 -0.45593999997E+02  0.45594000000E+02  0.51100000000E-03 0.  1.
         23    2    1    2    0    0  0.35527136788E-14  0.55511151231E-15 -0.35527136788E-14  0.91188000000E+02  0.91188000000E+02 0.  0.
    9900012    2    3    3    0    0 -0.20705016046E+02  0.87870616375E+00  0.30435335440E+02  0.54367089401E+02  0.40000011907E+02 0.  0.
        -12    1    3    3    0    0  0.20705016046E+02 -0.87870616375E+00 -0.30435335440E+02  0.36820910599E+02  0.00000000000E+00 0.  1.
         11    1    4    4    0    0 -0.17567872057E+02  0.39941416601E+01  0.23289276041E+02  0.29444416703E+02  0.51100000000E-03 0. -1.
        -11    1    4    4    0    0 -0.17972370980E-01  0.64550945996E+01  0.12092070823E+02  0.13707178643E+02  0.51100000000E-03 0.  1.
        -12    1    4    4    0    0 -0.31191716179E+01 -0.95705300960E+01 -0.49460114232E+01  0.11215494055E+02  0.00000000000E+00 0.  1.
</event>
<event>
 8    1  0.2432279E-006  0.9118800E+02  0.7816164E-02  0.1184000E+00
        -11   -1    0    0    0    0  0.00000000000E+00  0.00000000000E+00  0.45593999997E+02  0.45594000000E+02  0.51100000000E-03 0. -1.
         11   -1    0    0    0    0 -0.00000000000E+00 -0.00000000000E+00 -0.45593999997E+02  0.45594000000E+02  0.51100000000E-03 0.  1.
         23    2    1    2    0    0  0.00000000000E+00 -0.35527136788E-14  0.00000000000E+00  0.91188000000E+02  0.91188000000E+02 0.  0.
    9900012    2    3    3    0    0  0.26330291441E+02 -0.20081004498E+02 -0.16101248936E+02  0.54367065651E+02  0.39999957765E+02 0.  0.
         12    1    3    3    0    0 -0.26330291441E+02  0.20081004498E+02  0.16101248936E+02  0.36820934349E+02  0.00000000000E+00 0. -1.
         11    1    4    4    0    0 -0.63288551591E+01 -0.71110383767E+01 -0.53360587334E+01  0.10913056285E+02  0.51100000000E-03 0. -1.
        -11    1    4    4    0    0  0.11018606644E+01  0.54145967756E+01 -0.69476980645E+00  0.55690807600E+01  0.51100000000E-03 0.  1.
         12    1    4    4    0    0  0.31557285936E+02 -0.18384562897E+02 -0.10070420396E+02  0.37884928606E+02  0.00000000000E+00 0. -1.
</event>
<event>
 8    1  0.2432279E-006  0.9118800E+02  0.7816164E-02  0.1184000E+00
        -11   -1    0    0    0    0  0.00000000000E+00  0.00000000000E+00  0.45593999997E+02  0.45594000000E+02  0.51100000000E-03 0.  1.
         11   -1    0    0    0    0 -0.00000000000E+00 -0.00000000000E+00 -0.45593999997E+02  0.45594000000E+02  0.51100000000E-03 0. -1.
         23    2    1    2    0    0  0.17763568394E-14  0.88817841970E-15  0.00000000000E+00  0.91188000000E+02  0.91188000000E+02 0.  0.
    9900012    2    3    3    0    0 -0.15144866811E+02 -0.25388931324E+01 -0.33465880747E+02  0.54367107246E+02  0.40000052589E+02 0.  0.
        -12    1    3    3    0    0  0.15144866811E+02  0.25388931324E+01  0.33465880747E+02  0.36820892754E+02  0.00000000000E+00 0.  1.
         11    1    4    4    0    0 -0.23775451600E+01 -0.32494847056E+01  0.16500036149E+01  0.43513657661E+01  0.51100000000E-03 0. -1.
        -11    1    4    4    0    0 -0.38727786260E+01 -0.13175215735E+02 -0.32136725528E+01  0.14103631287E+02  0.51100000000E-03 0.  1.
         12    1    4    4    0    0 -0.88945430247E+01  0.13885807308E+02 -0.31902211809E+02  0.35912110193E+02  0.00000000000E+00 0. -1.
</event>
<event>
 8    1  0.2432279E-006  0.9118800E+02  0.7816164E-02  0.1184000E+00
        -11   -1    0    0    0    0  0.00000000000E+00  0.00000000000E+00  0.45593999997E+02  0.45594000000E+02  0.51100000000E-03 0.  1.
         11   -1    0    0    0    0 -0.00000000000E+00 -0.00000000000E+00 -0.45593999997E+02  0.45594000000E+02  0.51100000000E-03 0. -1.
         23    2    1    2    0    0 -0.17763568394E-14  0.35527136788E-14  0.00000000000E+00  0.91188000000E+02  0.91188000000E+02 0.  0.
    9900012    2    3    3    0    0 -0.12933321218E+02  0.31734167299E+02 -0.13470415371E+02  0.54367078472E+02  0.39999986994E+02 0.  0.
        -12    1    3    3    0    0  0.12933321218E+02 -0.31734167299E+02  0.13470415371E+02  0.36820921528E+02  0.00000000000E+00 0.  1.
         11    1    4    4    0    0 -0.16642523026E+01 -0.51806627866E+01 -0.77509556227E+01  0.94702859493E+01  0.51100000000E-03 0. -1.
        -11    1    4    4    0    0 -0.90020867985E+01  0.17297732737E+01  0.67531105459E-01  0.91670193094E+01  0.51100000000E-03 0.  1.
        -12    1    4    4    0    0 -0.22669821164E+01  0.35185056812E+02 -0.57869908537E+01  0.35729773214E+02  0.00000000000E+00 0.  1.
</event>
<event>
 8    1  0.2432279E-006  0.9118800E+02  0.7816164E-02  0.1184000E+00
        -11   -1    0    0    0    0  0.00000000000E+00  0.00000000000E+00  0.45593999997E+02  0.45594000000E+02  0.51100000000E-03 0. -1.
         11   -1    0    0    0    0 -0.00000000000E+00 -0.00000000000E+00 -0.45593999997E+02  0.45594000000E+02  0.51100000000E-03 0.  1.
         23    2    1    2    0    0  0.35527136788E-14  0.13322676296E-14  0.00000000000E+00  0.91188000000E+02  0.91188000000E+02 0.  0.
    9900012    2    3    3    0    0  0.30739730499E+02 -0.76916735783E+00 -0.20254788821E+02  0.54367093985E+02  0.40000022358E+02 0.  0.
        -12    1    3    3    0    0 -0.30739730499E+02  0.76916735783E+00  0.20254788821E+02  0.36820906015E+02  0.00000000000E+00 0.  1.
         11    1    4    4    0    0  0.10249091142E+02  0.96327064483E+00 -0.30681381048E+01  0.10741751778E+02  0.51100000000E-03 0. -1.
        -11    1    4    4    0    0  0.74212890608E+01 -0.74517365871E+01 -0.25169075583E+02  0.27277944854E+02  0.51100000000E-03 0.  1.
        -12    1    4    4    0    0  0.13069350296E+02  0.57192985844E+01  0.79824248669E+01  0.16347397353E+02  0.00000000000E+00 0.  1.
</event>
<event>
 8    1  0.2432279E-006  0.9118800E+02  0.7816164E-02  0.1184000E+00
        -11   -1    0    0    0    0  0.00000000000E+00  0.00000000000E+00  0.45593999997E+02  0.45594000000E+02  0.51100000000E-03 0. -1.
         11   -1    0    0    0    0 -0.00000000000E+00 -0.00000000000E+00 -0.45593999997E+02  0.45594000000E+02  0.51100000000E-03 0.  1.
         23    2    1    2    0    0 -0.17763568394E-14  0.00000000000E+00  0.17763568394E-14  0.91188000000E+02  0.91188000000E+02 0.  0.
    9900012    2    3    3    0    0 -0.14299942579E+02  0.32444024198E+02 -0.99336176878E+01  0.54367084418E+02  0.40000000547E+02 0.  0.
        -12    1    3    3    0    0  0.14299942579E+02 -0.32444024198E+02  0.99336176878E+01  0.36820915582E+02  0.00000000000E+00 0.  1.
         11    1    4    4    0    0  0.17609293706E+01 -0.13616922664E+01  0.22776445592E+00  0.22376226190E+01  0.51100000000E-03 0. -1.
        -11    1    4    4    0    0  0.47999924180E+01  0.16007489487E+00 -0.11558823353E+02  0.12516866570E+02  0.51100000000E-03 0.  1.
         12    1    4    4    0    0 -0.20860864368E+02  0.33645641569E+02  0.13974412088E+01  0.39612595229E+02  0.00000000000E+00 0. -1.
</event>
<event>
 8    1  0.2432279E-006  0.9118800E+02  0.7816164E-02  0.1184000E+00
        -11   -1    0    0    0    0  0.00000000000E+00  0.00000000000E+00  0.45593999997E+02  0.45594000000E+02  0.51100000000E-03 0. -1.
         11   -1    0    0    0    0 -0.00000000000E+00 -0.00000000000E+00 -0.45593999997E+02  0.45594000000E+02  0.51100000000E-03 0.  1.
         23    2    1    2    0    0  0.00000000000E+00  0.00000000000E+00  0.44408920985E-15  0.91188000000E+02  0.91188000000E+02 0.  0.
    9900012    2    3    3    0    0  0.35467670875E+02 -0.96755981926E+01 -0.20508198792E+01  0.54367099144E+02  0.40000034119E+02 0.  0.
         12    1    3    3    0    0 -0.35467670875E+02  0.96755981926E+01  0.20508198792E+01  0.36820900856E+02  0.00000000000E+00 0. -1.
         11    1    4    4    0    0  0.15006894738E+02 -0.74271661885E+01  0.24462816181E+01  0.16921996965E+02  0.51100000000E-03 0. -1.
        -11    1    4    4    0    0  0.24699151022E+02  0.58243137046E+01  0.31156098093E+01  0.25567121779E+02  0.51100000000E-03 0.  1.
         12    1    4    4    0    0 -0.42383748854E+01 -0.80727457087E+01 -0.76127113065E+01  0.11877980400E+02  0.00000000000E+00 0. -1.
</event>
<event>
 8    1  0.2432279E-006  0.9118800E+02  0.7816164E-02  0.1184000E+00
        -11   -1    0    0    0    0  0.00000000000E+00  0.00000000000E+00  0.45593999997E+02  0.45594000000E+02  0.51100000000E-03 0.  1.
         11   -1    0    0    0    0 -0.00000000000E+00 -0.00000000000E+00 -0.45593999997E+02  0.45594000000E+02  0.51100000000E-03 0. -1.
         23    2    1    2    0    0  0.00000000000E+00  0.00000000000E+00  0.71054273576E-14  0.91188000000E+02  0.91188000000E+02 0.  0.
    9900012    2    3    3    0    0  0.43471816485E+01 -0.46735542263E+01  0.36263565637E+02  0.54366996617E+02  0.39999800388E+02 0.  0.
         12    1    3    3    0    0 -0.43471816485E+01  0.46735542263E+01 -0.36263565637E+02  0.36821003383E+02  0.00000000000E+00 0. -1.
         11    1    4    4    0    0 -0.86562946872E+00 -0.26894548212E+01  0.18884120955E+02  0.19094305594E+02  0.51100000000E-03 0. -1.
        -11    1    4    4    0    0 -0.83111733336E+00  0.48480295327E+01  0.23680658800E+02  0.24186106504E+02  0.51100000000E-03 0.  1.
         12    1    4    4    0    0  0.60439284506E+01 -0.68321289378E+01 -0.63012141179E+01  0.11086584519E+02  0.00000000000E+00 0. -1.
</event>
<event>
 8    1  0.2432279E-006  0.9118800E+02  0.7816164E-02  0.1184000E+00
        -11   -1    0    0    0    0  0.00000000000E+00  0.00000000000E+00  0.45593999997E+02  0.45594000000E+02  0.51100000000E-03 0.  1.
         11   -1    0    0    0    0 -0.00000000000E+00 -0.00000000000E+00 -0.45593999997E+02  0.45594000000E+02  0.51100000000E-03 0. -1.
         23    2    1    2    0    0  0.00000000000E+00  0.00000000000E+00  0.00000000000E+00  0.91188000000E+02  0.91188000000E+02 0.  0.
    9900012    2    3    3    0    0 -0.15595790889E+02 -0.32190667719E+02 -0.87356800530E+01  0.54367083558E+02  0.39999998587E+02 0.  0.
        -12    1    3    3    0    0  0.15595790889E+02  0.32190667719E+02  0.87356800530E+01  0.36820916442E+02  0.00000000000E+00 0.  1.
         11    1    4    4    0    0 -0.19828859827E+01 -0.16387660269E+00 -0.19609111692E+01  0.27935399113E+01  0.51100000000E-03 0. -1.
        -11    1    4    4    0    0 -0.15165667759E+02 -0.87160689049E+00 -0.12726241526E+02  0.19817023005E+02  0.51100000000E-03 0.  1.
        -12    1    4    4    0    0  0.15527628526E+01 -0.31155184226E+02  0.59514726422E+01  0.31756520641E+02  0.00000000000E+00 0.  1.
</event>
<event>
 8    1  0.2432279E-006  0.9118800E+02  0.7816164E-02  0.1184000E+00
        -11   -1    0    0    0    0  0.00000000000E+00  0.00000000000E+00  0.45593999997E+02  0.45594000000E+02  0.51100000000E-03 0.  1.
         11   -1    0    0    0    0 -0.00000000000E+00 -0.00000000000E+00 -0.45593999997E+02  0.45594000000E+02  0.51100000000E-03 0. -1.
         23    2    1    2    0    0 -0.88817841970E-15  0.88817841970E-15  0.00000000000E+00  0.91188000000E+02  0.91188000000E+02 0.  0.
    9900012    2    3    3    0    0  0.78653937066E+01 -0.40760862005E+01  0.35739282547E+02  0.54367147024E+02  0.40000143271E+02 0.  0.
         12    1    3    3    0    0 -0.78653937066E+01  0.40760862005E+01 -0.35739282547E+02  0.36820852976E+02  0.00000000000E+00 0. -1.
         11    1    4    4    0    0 -0.10786322460E+01  0.12662380642E+02  0.10470056543E+02  0.16465764947E+02  0.51100000000E-03 0. -1.
        -11    1    4    4    0    0  0.13385888006E+02 -0.32763285679E+01  0.15175076561E+02  0.20498762780E+02  0.51100000000E-03 0.  1.
        -12    1    4    4    0    0 -0.44418620538E+01 -0.13462138274E+02  0.10094149443E+02  0.17402619297E+02  0.00000000000E+00 0.  1.
</event>
<event>
 8    1  0.2432279E-006  0.9118800E+02  0.7816164E-02  0.1184000E+00
        -11   -1    0    0    0    0  0.00000000000E+00  0.00000000000E+00  0.45593999997E+02  0.45594000000E+02  0.51100000000E-03 0.  1.
         11   -1    0    0    0    0 -0.00000000000E+00 -0.00000000000E+00 -0.45593999997E+02  0.45594000000E+02  0.51100000000E-03 0. -1.
         23    2    1    2    0    0 -0.13322676296E-14  0.00000000000E+00  0.00000000000E+00  0.91188000000E+02  0.91188000000E+02 0.  0.
    9900012    2    3    3    0    0  0.21935238060E+01 -0.90745656896E+01  0.35617707175E+02  0.54367077231E+02  0.39999984164E+02 0.  0.
         12    1    3    3    0    0 -0.21935238060E+01  0.90745656896E+01 -0.35617707175E+02  0.36820922769E+02  0.00000000000E+00 0. -1.
         11    1    4    4    0    0  0.98596130599E+01  0.67928058604E+01  0.47874178662E+01  0.12894710204E+02  0.51100000000E-03 0. -1.
        -11    1    4    4    0    0 -0.43603577172E+01 -0.22560484907E+01 -0.23602131772E+01  0.54473003145E+01  0.51100000000E-03 0.  1.
        -12    1    4    4    0    0 -0.33057315368E+01 -0.13611323059E+02  0.33190502486E+02  0.36025066713E+02  0.00000000000E+00 0.  1.
</event>
<event>
 8    1  0.2432279E-006  0.9118800E+02  0.7816164E-02  0.1184000E+00
        -11   -1    0    0    0    0  0.00000000000E+00  0.00000000000E+00  0.45593999997E+02  0.45594000000E+02  0.51100000000E-03 0.  1.
         11   -1    0    0    0    0 -0.00000000000E+00 -0.00000000000E+00 -0.45593999997E+02  0.45594000000E+02  0.51100000000E-03 0. -1.
         23    2    1    2    0    0  0.00000000000E+00  0.17763568394E-14 -0.71054273576E-14  0.91188000000E+02  0.91188000000E+02 0.  0.
    9900012    2    3    3    0    0  0.22993637678E+02  0.39680355258E+01  0.28483798435E+02  0.54367089461E+02  0.40000012045E+02 0.  0.
         12    1    3    3    0    0 -0.22993637678E+02 -0.39680355258E+01 -0.28483798435E+02  0.36820910539E+02  0.00000000000E+00 0. -1.
         11    1    4    4    0    0 -0.27187850655E+01 -0.98021813226E+01  0.12059258391E+02  0.15776573269E+02  0.51100000000E-03 0. -1.
        -11    1    4    4    0    0  0.16333640654E+02  0.12985548154E+02  0.14665926036E+01  0.20918010709E+02  0.51100000000E-03 0.  1.
        -12    1    4    4    0    0  0.93787820893E+01  0.78466869414E+00  0.14957947441E+02  0.17672505484E+02  0.00000000000E+00 0.  1.
</event>
<event>
 8    1  0.2432279E-006  0.9118800E+02  0.7816164E-02  0.1184000E+00
        -11   -1    0    0    0    0  0.00000000000E+00  0.00000000000E+00  0.45593999997E+02  0.45594000000E+02  0.51100000000E-03 0. -1.
         11   -1    0    0    0    0 -0.00000000000E+00 -0.00000000000E+00 -0.45593999997E+02  0.45594000000E+02  0.51100000000E-03 0.  1.
         23    2    1    2    0    0  0.00000000000E+00  0.17763568394E-14  0.35527136788E-14  0.91188000000E+02  0.91188000000E+02 0.  0.
    9900012    2    3    3    0    0 -0.35599094547E+02  0.67237884933E+01  0.65784349352E+01  0.54367072928E+02  0.39999974354E+02 0.  0.
        -12    1    3    3    0    0  0.35599094547E+02 -0.67237884933E+01 -0.65784349352E+01  0.36820927072E+02  0.00000000000E+00 0.  1.
         11    1    4    4    0    0 -0.25000322601E+02  0.78161715650E+00  0.20641136181E+02  0.32429670961E+02  0.51100000000E-03 0. -1.
        -11    1    4    4    0    0 -0.62238536935E+01 -0.29036364195E+01 -0.46067273520E+01  0.82697881722E+01  0.51100000000E-03 0.  1.
         12    1    4    4    0    0 -0.43749182522E+01  0.88458077564E+01 -0.94559738934E+01  0.13667613795E+02  0.00000000000E+00 0. -1.
</event>
<event>
 8    1  0.2432279E-006  0.9118800E+02  0.7816164E-02  0.1184000E+00
        -11   -1    0    0    0    0  0.00000000000E+00  0.00000000000E+00  0.45593999997E+02  0.45594000000E+02  0.51100000000E-03 0. -1.
         11   -1    0    0    0    0 -0.00000000000E+00 -0.00000000000E+00 -0.45593999997E+02  0.45594000000E+02  0.51100000000E-03 0.  1.
         23    2    1    2    0    0  0.72164496601E-15  0.00000000000E+00  0.00000000000E+00  0.91188000000E+02  0.91188000000E+02 0.  0.
    9900012    2    3    3    0    0  0.42895989656E+00  0.19909957303E+02 -0.30970776971E+02  0.54367089737E+02  0.40000012673E+02 0.  0.
         12    1    3    3    0    0 -0.42895989656E+00 -0.19909957303E+02  0.30970776971E+02  0.36820910263E+02  0.00000000000E+00 0. -1.
         11    1    4    4    0    0 -0.93807105079E+01  0.26321398961E+00 -0.21373977244E+01  0.96247327512E+01  0.51100000000E-03 0. -1.
        -11    1    4    4    0    0  0.13456644733E+02  0.16368325579E+02 -0.69261018860E+01  0.22292919444E+02  0.51100000000E-03 0.  1.
         12    1    4    4    0    0 -0.36469743281E+01  0.32784177344E+01 -0.21907277361E+02  0.22449437542E+02  0.00000000000E+00 0. -1.
</event>
<event>
 8    1  0.2432279E-006  0.9118800E+02  0.7816164E-02  0.1184000E+00
        -11   -1    0    0    0    0  0.00000000000E+00  0.00000000000E+00  0.45593999997E+02  0.45594000000E+02  0.51100000000E-03 0.  1.
         11   -1    0    0    0    0 -0.00000000000E+00 -0.00000000000E+00 -0.45593999997E+02  0.45594000000E+02  0.51100000000E-03 0. -1.
         23    2    1    2    0    0  0.35527136788E-14  0.00000000000E+00  0.00000000000E+00  0.91188000000E+02  0.91188000000E+02 0.  0.
    9900012    2    3    3    0    0 -0.16132248279E+02  0.12338507973E+02  0.30713062801E+02  0.54367076056E+02  0.39999981484E+02 0.  0.
         12    1    3    3    0    0  0.16132248279E+02 -0.12338507973E+02 -0.30713062801E+02  0.36820923944E+02  0.00000000000E+00 0. -1.
         11    1    4    4    0    0 -0.14946070882E+02 -0.80987574417E+01  0.15336046054E+02  0.22894742099E+02  0.51100000000E-03 0. -1.
        -11    1    4    4    0    0 -0.96229649128E+01  0.10153232747E+02  0.96235699058E+01  0.16979478405E+02  0.51100000000E-03 0.  1.
        -12    1    4    4    0    0  0.84367875161E+01  0.10284032668E+02  0.57534468405E+01  0.14492855552E+02  0.00000000000E+00 0.  1.
</event>
<event>
 8    1  0.2432279E-006  0.9118800E+02  0.7816164E-02  0.1184000E+00
        -11   -1    0    0    0    0  0.00000000000E+00  0.00000000000E+00  0.45593999997E+02  0.45594000000E+02  0.51100000000E-03 0. -1.
         11   -1    0    0    0    0 -0.00000000000E+00 -0.00000000000E+00 -0.45593999997E+02  0.45594000000E+02  0.51100000000E-03 0.  1.
         23    2    1    2    0    0  0.00000000000E+00  0.00000000000E+00  0.35527136788E-14  0.91188000000E+02  0.91188000000E+02 0.  0.
    9900012    2    3    3    0    0  0.27548553528E+02 -0.82945844589E+01  0.22979494219E+02  0.54367080845E+02  0.39999992403E+02 0.  0.
        -12    1    3    3    0    0 -0.27548553528E+02  0.82945844589E+01 -0.22979494219E+02  0.36820919155E+02  0.00000000000E+00 0.  1.
         11    1    4    4    0    0  0.15353221098E+02 -0.23692278081E+02  0.13662173870E+02  0.31363999010E+02  0.51100000000E-03 0. -1.
        -11    1    4    4    0    0  0.93665211387E+01  0.11762167586E+02  0.10386035937E+02  0.18274300187E+02  0.51100000000E-03 0.  1.
         12    1    4    4    0    0  0.28288112911E+01  0.36355260356E+01 -0.10687155873E+01  0.47287816489E+01  0.00000000000E+00 0. -1.
</event>
<event>
 8    1  0.2432279E-006  0.9118800E+02  0.7816164E-02  0.1184000E+00
        -11   -1    0    0    0    0  0.00000000000E+00  0.00000000000E+00  0.45593999997E+02  0.45594000000E+02  0.51100000000E-03 0. -1.
         11   -1    0    0    0    0 -0.00000000000E+00 -0.00000000000E+00 -0.45593999997E+02  0.45594000000E+02  0.51100000000E-03 0.  1.
         23    2    1    2    0    0  0.00000000000E+00  0.00000000000E+00  0.00000000000E+00  0.91188000000E+02  0.91188000000E+02 0.  0.
    9900012    2    3    3    0    0 -0.30913429691E+02  0.16629992151E+02 -0.11116773512E+02  0.54367089806E+02  0.40000012831E+02 0.  0.
         12    1    3    3    0    0  0.30913429691E+02 -0.16629992151E+02  0.11116773512E+02  0.36820910194E+02  0.00000000000E+00 0. -1.
         11    1    4    4    0    0 -0.15990401710E+01  0.10493309380E+02 -0.15570759220E+01  0.10728045344E+02  0.51100000000E-03 0. -1.
        -11    1    4    4    0    0 -0.23900762503E+02  0.38533619136E+01  0.77018265749E+01  0.25404979416E+02  0.51100000000E-03 0.  1.
        -12    1    4    4    0    0 -0.54136270163E+01  0.22833208572E+01 -0.17261524165E+02  0.18234065046E+02  0.00000000000E+00 0.  1.
</event>
<event>
 8    1  0.2432279E-006  0.9118800E+02  0.7816164E-02  0.1184000E+00
        -11   -1    0    0    0    0  0.00000000000E+00  0.00000000000E+00  0.45593999997E+02  0.45594000000E+02  0.51100000000E-03 0.  1.
         11   -1    0    0    0    0 -0.00000000000E+00 -0.00000000000E+00 -0.45593999997E+02  0.45594000000E+02  0.51100000000E-03 0. -1.
         23    2    1    2    0    0  0.35527136788E-14  0.00000000000E+00  0.00000000000E+00  0.91188000000E+02  0.91188000000E+02 0.  0.
    9900012    2    3    3    0    0  0.28835131592E+02 -0.19860834178E+02  0.11395879646E+02  0.54367032860E+02  0.39999883011E+02 0.  0.
         12    1    3    3    0    0 -0.28835131592E+02  0.19860834178E+02 -0.11395879646E+02  0.36820967140E+02  0.00000000000E+00 0. -1.
         11    1    4    4    0    0 -0.16547736821E+01  0.15854918532E+01  0.12419476607E+02  0.12629151191E+02  0.51100000000E-03 0. -1.
        -11    1    4    4    0    0  0.27370615166E+02 -0.24928197649E+02 -0.14031886866E+01  0.37047733417E+02  0.51100000000E-03 0.  1.
        -12    1    4    4    0    0  0.31192901085E+01  0.34818716180E+01  0.37959172516E+00  0.46901482517E+01  0.00000000000E+00 0.  1.
</event>
<event>
 8    1  0.2432279E-006  0.9118800E+02  0.7816164E-02  0.1184000E+00
        -11   -1    0    0    0    0  0.00000000000E+00  0.00000000000E+00  0.45593999997E+02  0.45594000000E+02  0.51100000000E-03 0.  1.
         11   -1    0    0    0    0 -0.00000000000E+00 -0.00000000000E+00 -0.45593999997E+02  0.45594000000E+02  0.51100000000E-03 0. -1.
         23    2    1    2    0    0 -0.53290705182E-14  0.00000000000E+00  0.00000000000E+00  0.91188000000E+02  0.91188000000E+02 0.  0.
    9900012    2    3    3    0    0 -0.62139791133E+01 -0.80367490179E+01 -0.35391747785E+02  0.54367099923E+02  0.40000035895E+02 0.  0.
         12    1    3    3    0    0  0.62139791133E+01  0.80367490179E+01  0.35391747785E+02  0.36820900077E+02  0.00000000000E+00 0. -1.
         11    1    4    4    0    0 -0.98916225089E+01 -0.33188805977E+01  0.78435664696E+00  0.10463000520E+02  0.51100000000E-03 0.  1.
        -11    1    4    4    0    0  0.14032932764E+02 -0.23722222697E+01 -0.19697357476E+02  0.24300957435E+02  0.51100000000E-03 0. -1.
        -12    1    4    4    0    0 -0.10355289368E+02 -0.23456461505E+01 -0.16478746956E+02  0.19603141968E+02  0.00000000000E+00 0.  1.
</event>
<event>
 8    1  0.2432279E-006  0.9118800E+02  0.7816164E-02  0.1184000E+00
        -11   -1    0    0    0    0  0.00000000000E+00  0.00000000000E+00  0.45593999997E+02  0.45594000000E+02  0.51100000000E-03 0.  1.
         11   -1    0    0    0    0 -0.00000000000E+00 -0.00000000000E+00 -0.45593999997E+02  0.45594000000E+02  0.51100000000E-03 0. -1.
         23    2    1    2    0    0  0.17763568394E-14 -0.17763568394E-14 -0.71054273576E-14  0.91188000000E+02  0.91188000000E+02 0.  0.
    9900012    2    3    3    0    0 -0.83156902018E+01  0.77898168378E+01  0.35013533330E+02  0.54367089282E+02  0.40000011636E+02 0.  0.
         12    1    3    3    0    0  0.83156902018E+01 -0.77898168378E+01 -0.35013533330E+02  0.36820910718E+02  0.00000000000E+00 0. -1.
         11    1    4    4    0    0 -0.22611638665E+01  0.46183082712E+01  0.22223657126E+01  0.56018338908E+01  0.51100000000E-03 0. -1.
        -11    1    4    4    0    0 -0.14929743012E+02  0.12603041609E+02  0.29532988219E+02  0.35410892075E+02  0.51100000000E-03 0.  1.
         12    1    4    4    0    0  0.88752166764E+01 -0.94315330421E+01  0.32581793984E+01  0.13354363316E+02  0.00000000000E+00 0. -1.
</event>
<event>
 8    1  0.2432279E-006  0.9118800E+02  0.7816164E-02  0.1184000E+00
        -11   -1    0    0    0    0  0.00000000000E+00  0.00000000000E+00  0.45593999997E+02  0.45594000000E+02  0.51100000000E-03 0.  1.
         11   -1    0    0    0    0 -0.00000000000E+00 -0.00000000000E+00 -0.45593999997E+02  0.45594000000E+02  0.51100000000E-03 0. -1.
         23    2    1    2    0    0  0.71054273576E-14  0.00000000000E+00  0.00000000000E+00  0.91188000000E+02  0.91188000000E+02 0.  0.
    9900012    2    3    3    0    0  0.33937503563E+02 -0.13298543079E+02  0.52127472967E+01  0.54367107419E+02  0.40000052982E+02 0.  0.
        -12    1    3    3    0    0 -0.33937503563E+02  0.13298543079E+02 -0.52127472967E+01  0.36820892581E+02  0.00000000000E+00 0.  1.
         11    1    4    4    0    0  0.16456989975E+02 -0.23273244638E+01  0.13817583485E+02  0.21614221518E+02  0.51100000000E-03 0. -1.
        -11    1    4    4    0    0  0.50913785324E+01  0.74803329716E+01 -0.38582832404E+00  0.90568416395E+01  0.51100000000E-03 0.  1.
         12    1    4    4    0    0  0.12389135055E+02 -0.18451551587E+02 -0.82190078639E+01  0.23696044261E+02  0.00000000000E+00 0. -1.
</event>
<event>
 8    1  0.2432279E-006  0.9118800E+02  0.7816164E-02  0.1184000E+00
        -11   -1    0    0    0    0  0.00000000000E+00  0.00000000000E+00  0.45593999997E+02  0.45594000000E+02  0.51100000000E-03 0.  1.
         11   -1    0    0    0    0 -0.00000000000E+00 -0.00000000000E+00 -0.45593999997E+02  0.45594000000E+02  0.51100000000E-03 0. -1.
         23    2    1    2    0    0  0.00000000000E+00  0.00000000000E+00  0.17763568394E-14  0.91188000000E+02  0.91188000000E+02 0.  0.
    9900012    2    3    3    0    0  0.34173548547E+02  0.86754176428E+01 -0.10615340231E+02  0.54367085566E+02  0.40000003165E+02 0.  0.
        -12    1    3    3    0    0 -0.34173548547E+02 -0.86754176428E+01  0.10615340231E+02  0.36820914434E+02  0.00000000000E+00 0.  1.
         11    1    4    4    0    0  0.12801561265E+02 -0.58262637050E+01  0.33427938843E+01  0.14456818143E+02  0.51100000000E-03 0. -1.
        -11    1    4    4    0    0  0.26239117234E+02  0.10963679319E+02 -0.46332223737E+01  0.28812502274E+02  0.51100000000E-03 0.  1.
         12    1    4    4    0    0 -0.48671299532E+01  0.35380020289E+01 -0.93249117413E+01  0.11097765150E+02  0.00000000000E+00 0. -1.
</event>
<event>
 8    1  0.2432279E-006  0.9118800E+02  0.7816164E-02  0.1184000E+00
        -11   -1    0    0    0    0  0.00000000000E+00  0.00000000000E+00  0.45593999997E+02  0.45594000000E+02  0.51100000000E-03 0.  1.
         11   -1    0    0    0    0 -0.00000000000E+00 -0.00000000000E+00 -0.45593999997E+02  0.45594000000E+02  0.51100000000E-03 0. -1.
         23    2    1    2    0    0  0.35527136788E-14  0.00000000000E+00  0.00000000000E+00  0.91188000000E+02  0.91188000000E+02 0.  0.
    9900012    2    3    3    0    0  0.28709402043E+02  0.18385691297E+02  0.13911047860E+02  0.54367073033E+02  0.39999974594E+02 0.  0.
        -12    1    3    3    0    0 -0.28709402043E+02 -0.18385691297E+02 -0.13911047860E+02  0.36820926967E+02  0.00000000000E+00 0.  1.
         11    1    4    4    0    0  0.17075010878E+02  0.12024428673E+02  0.16248473114E+02  0.26460456538E+02  0.51100000000E-03 0. -1.
        -11    1    4    4    0    0  0.43129124478E+01  0.15431598143E+02 -0.25361653733E-01  0.16022985942E+02  0.51100000000E-03 0.  1.
        -12    1    4    4    0    0  0.73214787169E+01 -0.90703355187E+01 -0.23120636012E+01  0.11883630553E+02  0.00000000000E+00 0.  1.
</event>
<event>
 8    1  0.2432279E-006  0.9118800E+02  0.7816164E-02  0.1184000E+00
        -11   -1    0    0    0    0  0.00000000000E+00  0.00000000000E+00  0.45593999997E+02  0.45594000000E+02  0.51100000000E-03 0. -1.
         11   -1    0    0    0    0 -0.00000000000E+00 -0.00000000000E+00 -0.45593999997E+02  0.45594000000E+02  0.51100000000E-03 0.  1.
         23    2    1    2    0    0 -0.22204460493E-15  0.71054273576E-14  0.17763568394E-14  0.91188000000E+02  0.91188000000E+02 0.  0.
    9900012    2    3    3    0    0  0.94850146840E+00  0.35733051060E+02  0.88334458938E+01  0.54367077151E+02  0.39999983981E+02 0.  0.
        -12    1    3    3    0    0 -0.94850146840E+00 -0.35733051060E+02 -0.88334458938E+01  0.36820922849E+02  0.00000000000E+00 0.  1.
         11    1    4    4    0    0 -0.24726879348E+01  0.34235180109E+02  0.10787854921E+02  0.35979710349E+02  0.51100000000E-03 0. -1.
        -11    1    4    4    0    0 -0.29080131966E+01  0.90570522430E+00  0.68681571522E+01  0.75132167301E+01  0.51100000000E-03 0.  1.
        -12    1    4    4    0    0  0.63292025998E+01  0.59216572682E+00 -0.88225661798E+01  0.10874150072E+02  0.00000000000E+00 0.  1.
</event>
<event>
 8    1  0.2432279E-006  0.9118800E+02  0.7816164E-02  0.1184000E+00
        -11   -1    0    0    0    0  0.00000000000E+00  0.00000000000E+00  0.45593999997E+02  0.45594000000E+02  0.51100000000E-03 0.  1.
         11   -1    0    0    0    0 -0.00000000000E+00 -0.00000000000E+00 -0.45593999997E+02  0.45594000000E+02  0.51100000000E-03 0. -1.
         23    2    1    2    0    0  0.17763568394E-14 -0.35527136788E-14  0.00000000000E+00  0.91188000000E+02  0.91188000000E+02 0.  0.
    9900012    2    3    3    0    0  0.96727065389E+01 -0.26584431127E+02  0.23568765914E+02  0.54367082618E+02  0.39999996444E+02 0.  0.
         12    1    3    3    0    0 -0.96727065389E+01  0.26584431127E+02 -0.23568765914E+02  0.36820917382E+02  0.00000000000E+00 0. -1.
         11    1    4    4    0    0 -0.49467453377E+01 -0.82744696585E+01 -0.22273896302E+01  0.98943621518E+01  0.51100000000E-03 0. -1.
        -11    1    4    4    0    0 -0.16608022566E+01 -0.19728452946E+02  0.12595810353E+02  0.23465390653E+02  0.51100000000E-03 0.  1.
        -12    1    4    4    0    0  0.16280254133E+02  0.14184914774E+01  0.13200345191E+02  0.21007329813E+02  0.00000000000E+00 0.  1.
</event>
