<LesHouchesEvents version="3.0">
<header>
<!--
#*********************************************************************
#                                                                    *
#                        MadGraph5_aMC@NLO                           *
#                                                                    *
#                           Going Beyond                             *
#                                                                    *
#                   http://madgraph.hep.uiuc.edu                     *
#                   http://madgraph.phys.ucl.ac.be                   *
#                   http://amcatnlo.cern.ch                          *
#                                                                    *
#                     The MadGraph5_aMC@NLO team                     *
#                                                                    *
#....................................................................*
#                                                                    *
# This file contains all the information necessary to reproduce      *
# the events generated:                                              *
#                                                                    *
# 1. software version                                                *
# 2. proc_card          : code generation info including model       *
# 3. param_card         : model primary parameters in the LH format  *
# 4. run_card           : running parameters (collider and cuts)     *
# 5. pythia_card        : present only if pythia has been run        *
# 6. pgs_card           : present only if pgs has been run           *
# 7. delphes_cards      : present only if delphes has been run       *
#                                                                    *
#                                                                    *
#*********************************************************************
-->
<MGVersion>
2.6.7
</MGVersion>
<MG5ProcCard>
<![CDATA[
#************************************************************
#*                     MadGraph5_aMC@NLO                    *
#*                                                          *
#*                *                       *                 *
#*                  *        * *        *                   *
#*                    * * * * 5 * * * *                     *
#*                  *        * *        *                   *
#*                *                       *                 *
#*                                                          *
#*                                                          *
#*         VERSION 2.6.7                 2019-10-16         *
#*                                                          *
#*    The MadGraph5_aMC@NLO Development Team - Find us at   *
#*    https://server06.fynu.ucl.ac.be/projects/madgraph     *
#*                                                          *
#************************************************************
#*                                                          *
#*               Command File for MadGraph5_aMC@NLO         *
#*                                                          *
#*     run as ./bin/mg5_aMC  filename                       *
#*                                                          *
#************************************************************
set low_mem_multicore_nlo_generation False
set default_unset_couplings 99
set group_subprocesses Auto
set ignore_six_quark_processes False
set loop_optimized_output True
set loop_color_flows False
set gauge unitary
set complex_mass_scheme False
set max_npoint_for_channel 0
import model sm
define p = g u c d s u~ c~ d~ s~
define j = g u c d s u~ c~ d~ s~
define l+ = e+ mu+
define l- = e- mu-
define vl = ve vm vt
define vl~ = ve~ vm~ vt~
import model SM_HeavyN_Dirac_CKM_Masses_LO
define e = e+ e-
define nue = ve ve~
generate e+ e- > n1 ve~ , (n1 > z ve, z > e+ e-)
add process e+ e- > n1~ ve , (n1~ > z ve~, z > e+ e-)
add process e+ e- > n1 ve~ , (n1 > e+ e- ve)
add process e+ e- > n1~ ve , (n1~ > e+ e- ve~)
output HNL_Dirac_20GeV_1e-3Ve
]]>
</MG5ProcCard>
<MGProcCard>
#*********************************************************************
#                        MadGraph/MadEvent                           *
#                   http://madgraph.hep.uiuc.edu                     *
#                                                                    *
#                          proc_card.dat                             *
#*********************************************************************
#                                                                    *
#            This Files is generated by MADGRAPH 5                   *
#                                                                    *
# WARNING: This Files is generated for MADEVENT (compatibility issue)*
#          This files is NOT a valid MG4 proc_card.dat               *
#          Running this in MG4 will NEVER reproduce the result of MG5*
#                                                                    *
#*********************************************************************
#*********************************************************************
# Process(es) requested : mg2 input                                  *
#*********************************************************************
# Begin PROCESS # This is TAG. Do not modify this line
e+ e- > n1 ve~ , (n1 > z ve , z > e+ e-)           #Process
# Be carefull the coupling are here in MG5 convention
          
end_coup           # End the couplings input

done               # this tells MG there are no more procs
# End PROCESS  # This is TAG. Do not modify this line
#*********************************************************************
# Model information                                                  *
#*********************************************************************
# Begin MODEL  # This is TAG. Do not modify this line
SM_HeavyN_Dirac_CKM_Masses_LO
# End   MODEL  # This is TAG. Do not modify this line
#*********************************************************************
# Start multiparticle definitions                                    *
#*********************************************************************
# Begin MULTIPARTICLES # This is TAG. Do not modify this line

# End  MULTIPARTICLES # This is TAG. Do not modify this line
</MGProcCard>
<MGRunCard>
<![CDATA[
#*********************************************************************
#                       MadGraph5_aMC@NLO                            *
#                                                                    *
#                     run_card.dat MadEvent                          *
#                                                                    *
#  This file is used to set the parameters of the run.               *
#                                                                    *
#  Some notation/conventions:                                        *
#                                                                    *
#   Lines starting with a '# ' are info or comments                  *
#                                                                    *
#   mind the format:   value    = variable     ! comment             *
#                                                                    *
#   To display more options, you can type the command:               *
#      update full_run_card                                          *
#*********************************************************************
#
#*******************                                                 
# Running parameters
#*******************                                                 
#                                                                    
#*********************************************************************
# Tag name for the run (one word)                                    *
#*********************************************************************
  tag_1	= run_tag ! name of the run 
#*********************************************************************
# Number of events and rnd seed                                      *
# Warning: Do not generate more than 1M events in a single run       *
#*********************************************************************
  1000	= nevents ! Number of unweighted events requested 
 21 = iseed ! rnd seed (0=assigned automatically=default))
#*********************************************************************
# Collider type and energy                                           *
# lpp: 0=No PDF, 1=proton, -1=antiproton, 2=photon from proton,      *
#                                         3=photon from electron     *
#*********************************************************************
  0	= lpp1 ! beam 1 type 
  0	= lpp2 ! beam 2 type
  45.594	= ebeam1 ! beam 1 total energy in GeV
  45.594	= ebeam2 ! beam 2 total energy in GeV
#*********************************************************************
# Beam polarization from -100 (left-handed) to 100 (right-handed)    *
#*********************************************************************
  0.0	= polbeam1 ! beam polarization for beam 1
  0.0	= polbeam2 ! beam polarization for beam 2

#*********************************************************************
# PDF CHOICE: this automatically fixes also alpha_s and its evol.    *
#*********************************************************************
  nn23lo1	= pdlabel ! PDF set                                     
  230000	= lhaid ! if pdlabel=lhapdf, this is the lhapdf number
# To see heavy ion options: type "update ion_pdf"
#*********************************************************************
# Renormalization and factorization scales                           *
#*********************************************************************
  False	= fixed_ren_scale ! if .true. use fixed ren scale
  False	= fixed_fac_scale ! if .true. use fixed fac scale
  91.188	= scale ! fixed ren scale
  91.188	= dsqrt_q2fact1 ! fixed fact scale for pdf1
  91.188	= dsqrt_q2fact2 ! fixed fact scale for pdf2
  -1	= dynamical_scale_choice ! Choose one of the preselected dynamical choices
  1.0	= scalefact ! scale factor for event-by-event scales
#*********************************************************************
# Type and output format
#*********************************************************************
  False	= gridpack !True = setting up the grid pack
  0.0	= time_of_flight ! threshold (in mm) below which the invariant livetime is not written (-1 means not written)
  3.0	= lhe_version ! Change the way clustering information pass to shower.        
  True	= clusinfo ! include clustering tag in output
  average	= event_norm ! average/sum. Normalization of the weight in the LHEF

#*********************************************************************
# Matching parameter (MLM only)
#*********************************************************************
  0	= ickkw ! 0 no matching, 1 MLM
  1.0	= alpsfact ! scale factor for QCD emission vx
  False	= chcluster ! cluster only according to channel diag
  5	= asrwgtflavor ! highest quark flavor for a_s reweight
  True	= auto_ptj_mjj ! Automatic setting of ptj and mjj if xqcut >0
                                   ! (turn off for VBF and single top processes) 
  0.0	= xqcut ! minimum kt jet measure between partons
#*********************************************************************
#
#*********************************************************************
# handling of the helicities:
#  0: sum over all helicities
#  1: importance sampling over helicities
#*********************************************************************
  0	= nhel ! using helicities importance sampling or not.
#*********************************************************************
# Generation bias, check the wiki page below for more information:   *
#  'cp3.irmp.ucl.ac.be/projects/madgraph/wiki/LOEventGenerationBias' *
#*********************************************************************
  None	= bias_module ! Bias type of bias, [None, ptj_bias, -custom_folder-]
  {}	= bias_parameters ! Specifies the parameters of the module.
#
#*******************************                                                 
# Parton level cuts definition *
#*******************************                                     
#                                                                    
#
#*********************************************************************
# BW cutoff (M+/-bwcutoff*Gamma) ! Define on/off-shell for "$" and decay  
#*********************************************************************
  15.0	= bwcutoff ! (M+/-bwcutoff*Gamma)
#*********************************************************************
# Apply pt/E/eta/dr/mij/kt_durham cuts on decay products or not
# (note that etmiss/ptll/ptheavy/ht/sorted cuts always apply)
#*********************************************************************
  False	= cut_decays ! Cut decay products 
#*********************************************************************
# Standard Cuts                                                      *
#*********************************************************************
# Minimum and maximum pt's (for max, -1 means no cut)                *
#*********************************************************************
  0.0	= ptj ! minimum pt for the jets 
  0.0	= ptb ! minimum pt for the b 
  0.0	= pta ! minimum pt for the photons 
  0.0	= ptl ! minimum pt for the charged leptons 
  0.0	= misset ! minimum missing Et (sum of neutrino's momenta)
  -1.0	= ptjmax ! maximum pt for the jets
  -1.0	= ptbmax ! maximum pt for the b
  -1.0	= ptamax ! maximum pt for the photons
  -1.0	= ptlmax ! maximum pt for the charged leptons
  -1.0	= missetmax ! maximum missing Et (sum of neutrino's momenta)
  {}	= pt_min_pdg ! pt cut for other particles (use pdg code). Applied on particle and anti-particle
  {}	= pt_max_pdg ! pt cut for other particles (syntax e.g. {6: 100, 25: 50}) 
#*********************************************************************
# Minimum and maximum E's (in the center of mass frame)              *
#*********************************************************************
  0.0	= ej ! minimum E for the jets
  0.0	= eb ! minimum E for the b
  0.0	= ea ! minimum E for the photons
  0.0	= el ! minimum E for the charged leptons
  -1.0	= ejmax ! maximum E for the jets
  -1.0	= ebmax ! maximum E for the b
  -1.0	= eamax ! maximum E for the photons
  -1.0	= elmax ! maximum E for the charged leptons
  {}	= e_min_pdg ! E cut for other particles (use pdg code). Applied on particle and anti-particle
  {}	= e_max_pdg ! E cut for other particles (syntax e.g. {6: 100, 25: 50})

#*********************************************************************
# Maximum and minimum absolute rapidity (for max, -1 means no cut)   *
#*********************************************************************
  -1.0	= etaj ! max rap for the jets 
  -1.0	= etab ! max rap for the b
  -1.0	= etaa ! max rap for the photons 
  -1.0	= etal ! max rap for the charged leptons 
  0.0	= etajmin ! min rap for the jets
  0.0	= etabmin ! min rap for the b
  0.0	= etaamin ! min rap for the photons
  0.0	= etalmin ! main rap for the charged leptons
  {}	= eta_min_pdg ! rap cut for other particles (use pdg code). Applied on particle and anti-particle
  {}	= eta_max_pdg ! rap cut for other particles (syntax e.g. {6: 2.5, 23: 5})
#*********************************************************************
# Minimum and maximum DeltaR distance                                *
#*********************************************************************
  0.0	= drjj ! min distance between jets 
  0.0	= drbb ! min distance between b's 
  0.0	= drll ! min distance between leptons 
  0.0	= draa ! min distance between gammas 
  0.0	= drbj ! min distance between b and jet 
  0.0	= draj ! min distance between gamma and jet 
  0.0	= drjl ! min distance between jet and lepton 
  0.0	= drab ! min distance between gamma and b 
  0.0	= drbl ! min distance between b and lepton 
  0.0	= dral ! min distance between gamma and lepton 
  -1.0	= drjjmax ! max distance between jets
  -1.0	= drbbmax ! max distance between b's
  -1.0	= drllmax ! max distance between leptons
  -1.0	= draamax ! max distance between gammas
  -1.0	= drbjmax ! max distance between b and jet
  -1.0	= drajmax ! max distance between gamma and jet
  -1.0	= drjlmax ! max distance between jet and lepton
  -1.0	= drabmax ! max distance between gamma and b
  -1.0	= drblmax ! max distance between b and lepton
  -1.0	= dralmax ! maxdistance between gamma and lepton
#*********************************************************************
# Minimum and maximum invariant mass for pairs                       *
# WARNING: for four lepton final state mmll cut require to have      *
#          different lepton masses for each flavor!                  *           
#*********************************************************************
  0.0	= mmjj ! min invariant mass of a jet pair 
  0.0	= mmbb ! min invariant mass of a b pair 
  0.0	= mmaa ! min invariant mass of gamma gamma pair
  0.0	= mmll ! min invariant mass of l+l- (same flavour) lepton pair
  -1.0	= mmjjmax ! max invariant mass of a jet pair
  -1.0	= mmbbmax ! max invariant mass of a b pair
  -1.0	= mmaamax ! max invariant mass of gamma gamma pair
  -1.0	= mmllmax ! max invariant mass of l+l- (same flavour) lepton pair
  {}	= mxx_min_pdg ! min invariant mass of a pair of particles X/X~ (e.g. {6:250})
  {'default': False}	= mxx_only_part_antipart ! if True the invariant mass is applied only 
                       ! to pairs of particle/antiparticle and not to pairs of the same pdg codes.  
#*********************************************************************
# Minimum and maximum invariant mass for all letpons                 *
#*********************************************************************
  0.0	= mmnl ! min invariant mass for all letpons (l+- and vl) 
  -1.0	= mmnlmax ! max invariant mass for all letpons (l+- and vl) 
#*********************************************************************
# Minimum and maximum pt for 4-momenta sum of leptons                *
#*********************************************************************
  0.0	= ptllmin ! Minimum pt for 4-momenta sum of leptons(l and vl)
  -1.0	= ptllmax ! Maximum pt for 4-momenta sum of leptons(l and vl)
#*********************************************************************
# Inclusive cuts                                                     *
#*********************************************************************
  0.0	= ptheavy ! minimum pt for at least one heavy final state
  0.0	= xptj ! minimum pt for at least one jet  
  0.0	= xptb ! minimum pt for at least one b 
  0.0	= xpta ! minimum pt for at least one photon 
  0.0	= xptl ! minimum pt for at least one charged lepton 
#*********************************************************************
# Control the pt's of the jets sorted by pt                          *
#*********************************************************************
  0.0	= ptj1min ! minimum pt for the leading jet in pt
  0.0	= ptj2min ! minimum pt for the second jet in pt
  0.0	= ptj3min ! minimum pt for the third jet in pt
  0.0	= ptj4min ! minimum pt for the fourth jet in pt
  -1.0	= ptj1max ! maximum pt for the leading jet in pt 
  -1.0	= ptj2max ! maximum pt for the second jet in pt
  -1.0	= ptj3max ! maximum pt for the third jet in pt
  -1.0	= ptj4max ! maximum pt for the fourth jet in pt
  0	= cutuse ! reject event if fails any (0) / all (1) jet pt cuts
#*********************************************************************
# Control the pt's of leptons sorted by pt                           *
#*********************************************************************
  0.0	= ptl1min ! minimum pt for the leading lepton in pt
  0.0	= ptl2min ! minimum pt for the second lepton in pt
  0.0	= ptl3min ! minimum pt for the third lepton in pt
  0.0	= ptl4min ! minimum pt for the fourth lepton in pt
  -1.0	= ptl1max ! maximum pt for the leading lepton in pt 
  -1.0	= ptl2max ! maximum pt for the second lepton in pt
  -1.0	= ptl3max ! maximum pt for the third lepton in pt
  -1.0	= ptl4max ! maximum pt for the fourth lepton in pt
#*********************************************************************
# Control the Ht(k)=Sum of k leading jets                            *
#*********************************************************************
  0.0	= htjmin ! minimum jet HT=Sum(jet pt)
  -1.0	= htjmax ! maximum jet HT=Sum(jet pt)
  0.0	= ihtmin !inclusive Ht for all partons (including b)
  -1.0	= ihtmax !inclusive Ht for all partons (including b)
  0.0	= ht2min ! minimum Ht for the two leading jets
  0.0	= ht3min ! minimum Ht for the three leading jets
  0.0	= ht4min ! minimum Ht for the four leading jets
  -1.0	= ht2max ! maximum Ht for the two leading jets
  -1.0	= ht3max ! maximum Ht for the three leading jets
  -1.0	= ht4max ! maximum Ht for the four leading jets
#***********************************************************************
# Photon-isolation cuts, according to hep-ph/9801442                   *
# When ptgmin=0, all the other parameters are ignored                  *
# When ptgmin>0, pta and draj are not going to be used                 *
#***********************************************************************
  0.0	= ptgmin ! Min photon transverse momentum
  0.4	= r0gamma ! Radius of isolation code
  1.0	= xn ! n parameter of eq.(3.4) in hep-ph/9801442
  1.0	= epsgamma ! epsilon_gamma parameter of eq.(3.4) in hep-ph/9801442
  True	= isoem ! isolate photons from EM energy (photons and leptons)
#*********************************************************************
# WBF cuts                                                           *
#*********************************************************************
  0.0	= xetamin ! minimum rapidity for two jets in the WBF case  
  -1.0	= deltaeta ! minimum rapidity for two jets in the WBF case 
#***********************************************************************
# Turn on either the ktdurham or ptlund cut to activate                *
# CKKW(L) merging with Pythia8 [arXiv:1410.3012, arXiv:1109.4829]      *
#***********************************************************************
  0.0	= ktdurham 
  0.0	= dparameter 
  0.0	= ptlund 
  1, 2, 3, 4, 5, 6, 21	= pdgs_for_merging_cut ! PDGs for two cuts above   
#*********************************************************************
# maximal pdg code for quark to be considered as a light jet         *
# (otherwise b cuts are applied)                                     *
#*********************************************************************
  4	= maxjetflavor ! Maximum jet pdg code
#*********************************************************************
#
#*********************************************************************
# Store info for systematics studies                                 *
# WARNING: Do not use for interference type of computation           *
#*********************************************************************
  False	= use_syst ! Enable systematics studies
#
  systematics	= systematics_program ! none, systematics [python], SysCalc [depreceted, C++]
['--mur=0.5,1,2', '--muf=0.5,1,2', '--pdf=errorset'] = systematics_arguments ! see: https://cp3.irmp.ucl.ac.be/projects/madgraph/wiki/Systematics#Systematicspythonmodule
# Syscalc is deprecated but to see the associate options type'update syscalc'#********************************************************************* 
#  Additional hidden parameters
#*********************************************************************
  ['--mur=0.5,1,2', '--muf=0.5,1,2', '--pdf=errorset']	= systematics_arguments # Choose the argment to pass to the systematics command. like --mur=0.25,1,4. Look at the help of the systematics function for more details.
]]>
</MGRunCard>
<slha>
######################################################################
## PARAM_CARD AUTOMATICALY GENERATED BY MG5                       ####
######################################################################
###################################
## INFORMATION FOR CKMBLOCK
###################################
BLOCK CKMBLOCK # 
      1 2.275910e-01 # cabi
      2 3.508000e-03 # th13
      3 4.153900e-02 # th23
      4 1.200000e+00 # del13
###################################
## INFORMATION FOR MASS
###################################
BLOCK MASS # 
      1 5.040000e-03 # md
      2 2.550000e-03 # mu
      3 1.010000e-01 # ms
      4 1.270000e+00 # mc
      5 4.700000e+00 # mb
      6 1.733000e+02 # mt
      11 5.110000e-04 # me
      13 1.056600e-01 # mmu
      15 1.777000e+00 # mta
      23 9.118760e+01 # mz
      25 1.257000e+02 # mh
      9990012 2.000000e+01 # mn1
      9990014 1.000000e+04 # mn2
      9990016 1.000000e+04 # mn3
      12 0.000000e+00 # ve : 0.0
      14 0.000000e+00 # vm : 0.0
      16 0.000000e+00 # vt : 0.0
      21 0.000000e+00 # g : 0.0
      22 0.000000e+00 # a : 0.0
      24 7.995123e+01 # w+ : cmath.sqrt(mz__exp__2/2. + cmath.sqrt(mz__exp__4/4. - (aew*cmath.pi*mz__exp__2)/(gf*sqrt__2)))
###################################
## INFORMATION FOR NUMIXING
###################################
BLOCK NUMIXING # 
      1 1.000000e-03 # ven1
      2 0.000000e+00 # ven2
      3 0.000000e+00 # ven3
      4 0.000000e+00 # vmun1
      5 1.000000e+00 # vmun2
      6 0.000000e+00 # vmun3
      7 0.000000e+00 # vtan1
      8 0.000000e+00 # vtan2
      9 1.000000e+00 # vtan3
###################################
## INFORMATION FOR SMINPUTS
###################################
BLOCK SMINPUTS # 
      1 1.279400e+02 # aewm1
      2 1.174560e-05 # gf
      3 1.184000e-01 # as
###################################
## INFORMATION FOR YUKAWA
###################################
BLOCK YUKAWA # 
      1 5.040000e-03 # ymdo
      2 2.550000e-03 # ymup
      3 1.010000e-01 # yms
      4 1.270000e+00 # ymc
      5 4.700000e+00 # ymb
      6 1.733000e+02 # ymt
      11 5.110000e-04 # yme
      13 1.056600e-01 # ymm
      15 1.777000e+00 # ymtau
###################################
## INFORMATION FOR DECAY
###################################
BLOCK QNUMBERS 9990012 #   n1
      1 0 # 3 times electric charge
      2 2 # number of spin states (2s+1)
      3 1 # colour rep (1: singlet, 3: triplet, 8: octet)
      4 1 # particle/antiparticle distinction (0=own anti)
###################################
## INFORMATION FOR QNUMBERS 9990014
###################################
BLOCK QNUMBERS 9990014 #   n2
      1 0 # 3 times electric charge
      2 2 # number of spin states (2s+1)
      3 1 # colour rep (1: singlet, 3: triplet, 8: octet)
      4 1 # particle/antiparticle distinction (0=own anti)
###################################
## INFORMATION FOR QNUMBERS 9990016
###################################
BLOCK QNUMBERS 9990016 #   n3
      1 0 # 3 times electric charge
      2 2 # number of spin states (2s+1)
      3 1 # colour rep (1: singlet, 3: triplet, 8: octet)
      4 1 # particle/antiparticle distinction (0=own anti)
#
#*************************
#      Decay widths      *
#*************************
#
#      PDG        Width
DECAY  1   0.000000e+00
#
#      PDG        Width
DECAY  2   0.000000e+00
#
#      PDG        Width
DECAY  3   0.000000e+00
#
#      PDG        Width
DECAY  4   0.000000e+00
#
#      PDG        Width
DECAY  5   0.000000e+00
#
#      PDG        Width
DECAY  6   1.350000e+00
#
#      PDG        Width
DECAY  11   0.000000e+00
#
#      PDG        Width
DECAY  12   0.000000e+00
#
#      PDG        Width
DECAY  13   0.000000e+00
#
#      PDG        Width
DECAY  14   0.000000e+00
#
#      PDG        Width
DECAY  15   0.000000e+00
#
#      PDG        Width
DECAY  16   0.000000e+00
#
#      PDG        Width
DECAY  21   0.000000e+00
#
#      PDG        Width
DECAY  22   0.000000e+00
#
#      PDG        Width
DECAY  23   2.495200e+00
#
#      PDG        Width
DECAY  24   2.085000e+00
#
#      PDG        Width
DECAY  25   4.170000e-03
#
#      PDG        Width
DECAY  9990012   8.745426e-13
#  BR             NDA  ID1    ID2   ...
   2.479010e-01   3    -1  2  11 # 2.16799985083e-13
   2.416120e-01   3    -3  4  11 # 2.11299986671e-13
   8.801401e-02   3    -13  11  14 # 7.69720011418e-14
   8.252543e-02   3    -15  11  16 # 7.21720041183e-14
   5.148406e-02   3    -11  11  12 # 4.5025003691e-14
   4.848249e-02   3    -1  1  12 # 4.24000028591e-14
   4.810057e-02   3    -3  3  12 # 4.20659975493e-14
   3.770085e-02   3    -2  2  12 # 3.29709993812e-14
   3.468785e-02   3    -4  4  12 # 3.03360025274e-14
   2.164960e-02   3    -14  12  14 # 1.8933497473e-14
   2.164960e-02   3    -16  12  16 # 1.8933497473e-14
   1.819580e-02   3    -5  5  12 # 1.59130022411e-14
   1.353508e-02   3    -3  2  11 # 1.18370040544e-14
   1.293019e-02   3    -1  4  11 # 1.13080019811e-14
   1.111701e-02   3    -13  12  13 # 9.72229882963e-15
   1.098471e-02   3    -12  12  12 # 9.60659684365e-15
   9.429729e-03   3    -15  12  15 # 8.24669971696e-15
#
#      PDG        Width
DECAY  9990014   1.500000e+00
#
#      PDG        Width
DECAY  9990016   1.230000e+01
</slha>
<MGGenerationInfo>
#  Number of Events        :       1000
#  Integrated weight (pb)  :       0.000374823834
</MGGenerationInfo>
</header>
<init>
-11 11 4.559400e+01 4.559400e+01 0 0 247000 247000 -4 2
1.874700e-04 1.492907e-06 3.748238e-04 3
1.873538e-04 2.068446e-06 3.748238e-04 4
<generator name='MadGraph5_aMC@NLO' version='2.6.7'>please cite 1405.0301 </generator>
</init>
<event>
 8      4 +3.7482383e-04 9.11880000e+01 7.81616400e-03 1.18400000e-01
      -11 -1    0    0    0    0 +0.0000000000e+00 +0.0000000000e+00 +4.5593999997e+01 4.5594000000e+01 5.1100000000e-04 0.0000e+00 -1.0000e+00
       11 -1    0    0    0    0 -0.0000000000e+00 -0.0000000000e+00 -4.5593999997e+01 4.5594000000e+01 5.1100000000e-04 0.0000e+00 1.0000e+00
       23  2    1    2    0    0 -8.8817841970e-16 +0.0000000000e+00 +0.0000000000e+00 9.1188000000e+01 9.1188000000e+01 2.0934e-14 0.0000e+00
 -9990012  2    3    3    0    0 -2.7565999956e+00 +1.5379144524e+01 -4.0490815386e+01 4.7787273503e+01 2.0000011211e+01 1.8757e-02 0.0000e+00
      -11  1    4    4    0    0 -1.0005143660e+00 -2.1120955499e-01 -8.9511799149e+00 9.0093984596e+00 5.1100000000e-04 0.0000e+00 1.0000e+00
       11  1    4    4    0    0 -4.5119334655e+00 +3.0141721956e+00 -8.4371622175e-01 5.4913236060e+00 5.1100000000e-04 0.0000e+00 -1.0000e+00
      -12  1    4    4    0    0 +2.7558478358e+00 +1.2576181883e+01 -3.0695919249e+01 3.3286551438e+01 0.0000000000e+00 0.0000e+00 1.0000e+00
       12  1    3    3    0    0 +2.7565999956e+00 -1.5379144524e+01 +4.0490815386e+01 4.3400726497e+01 0.0000000000e+00 0.0000e+00 -1.0000e+00
</event>
<event>
 8      3 +3.7482383e-04 9.11880000e+01 7.81616400e-03 1.18400000e-01
      -11 -1    0    0    0    0 +0.0000000000e+00 +0.0000000000e+00 +4.5593999997e+01 4.5594000000e+01 5.1100000000e-04 0.0000e+00 1.0000e+00
       11 -1    0    0    0    0 -0.0000000000e+00 -0.0000000000e+00 -4.5593999997e+01 4.5594000000e+01 5.1100000000e-04 0.0000e+00 -1.0000e+00
       23  2    1    2    0    0 -8.8817841970e-16 +0.0000000000e+00 +0.0000000000e+00 9.1188000000e+01 9.1188000000e+01 7.8059e-14 0.0000e+00
  9990012  2    3    3    0    0 -7.5415294019e+00 +3.0103686747e+01 -3.0340010994e+01 4.7787275483e+01 2.0000020239e+01 1.1690e-02 0.0000e+00
      -11  1    4    4    0    0 -4.5614554960e+00 +3.5649868935e+00 -3.2950036972e+00 6.6613104880e+00 5.1100000000e-04 0.0000e+00 1.0000e+00
       11  1    4    4    0    0 +4.7697250774e+00 +1.5832719717e+01 -2.0617742230e+01 2.6429464350e+01 5.1100000000e-04 0.0000e+00 -1.0000e+00
       12  1    4    4    0    0 -7.7497989834e+00 +1.0705980136e+01 -6.4272650671e+00 1.4696500645e+01 0.0000000000e+00 0.0000e+00 -1.0000e+00
      -12  1    3    3    0    0 +7.5415294019e+00 -3.0103686747e+01 +3.0340010994e+01 4.3400724517e+01 0.0000000000e+00 0.0000e+00 1.0000e+00
</event>
<event>
 8      4 +3.7482383e-04 9.11880000e+01 7.81616400e-03 1.18400000e-01
      -11 -1    0    0    0    0 +0.0000000000e+00 +0.0000000000e+00 +4.5593999997e+01 4.5594000000e+01 5.1100000000e-04 0.0000e+00 -1.0000e+00
       11 -1    0    0    0    0 -0.0000000000e+00 -0.0000000000e+00 -4.5593999997e+01 4.5594000000e+01 5.1100000000e-04 0.0000e+00 1.0000e+00
       23  2    1    2    0    0 +0.0000000000e+00 +0.0000000000e+00 +0.0000000000e+00 9.1188000000e+01 9.1188000000e+01 1.9809e-14 0.0000e+00
 -9990012  2    3    3    0    0 +2.9508440659e+01 +6.7511948516e+00 -3.1101392055e+01 4.7787270860e+01 1.9999999161e+01 2.1487e-01 0.0000e+00
      -11  1    4    4    0    0 +2.3855820740e+01 +1.1386410673e+01 -2.4674730971e+01 3.6160653754e+01 5.1100000000e-04 0.0000e+00 1.0000e+00
       11  1    4    4    0    0 +3.8681104232e+00 -3.4496515918e+00 -3.6299092891e-01 5.1955882272e+00 5.1100000000e-04 0.0000e+00 -1.0000e+00
      -12  1    4    4    0    0 +1.7845094961e+00 -1.1855642296e+00 -6.0636701557e+00 6.4310288789e+00 0.0000000000e+00 0.0000e+00 1.0000e+00
       12  1    3    3    0    0 -2.9508440659e+01 -6.7511948516e+00 +3.1101392055e+01 4.3400729140e+01 0.0000000000e+00 0.0000e+00 -1.0000e+00
</event>
<event>
 8      4 +3.7482383e-04 9.11880000e+01 7.81616400e-03 1.18400000e-01
      -11 -1    0    0    0    0 +0.0000000000e+00 +0.0000000000e+00 +4.5593999997e+01 4.5594000000e+01 5.1100000000e-04 0.0000e+00 -1.0000e+00
       11 -1    0    0    0    0 -0.0000000000e+00 -0.0000000000e+00 -4.5593999997e+01 4.5594000000e+01 5.1100000000e-04 0.0000e+00 1.0000e+00
       23  2    1    2    0    0 +0.0000000000e+00 +0.0000000000e+00 +1.7763568394e-15 9.1188000000e+01 9.1188000000e+01 6.1473e-14 0.0000e+00
 -9990012  2    3    3    0    0 +3.8837347380e+00 +4.1849124330e+01 -1.0825470088e+01 4.7787269530e+01 1.9999993094e+01 3.9611e-02 0.0000e+00
      -11  1    4    4    0    0 +7.3877924486e+00 +7.5867875321e+00 -3.6113584312e+00 1.1188419562e+01 5.1100000000e-04 0.0000e+00 1.0000e+00
       11  1    4    4    0    0 -6.5442161548e+00 +1.4824974040e+01 -3.4501096132e+00 1.6568339596e+01 5.1100000000e-04 0.0000e+00 -1.0000e+00
      -12  1    4    4    0    0 +3.0401584441e+00 +1.9437362758e+01 -3.7640020439e+00 2.0030510371e+01 0.0000000000e+00 0.0000e+00 1.0000e+00
       12  1    3    3    0    0 -3.8837347380e+00 -4.1849124330e+01 +1.0825470088e+01 4.3400730470e+01 0.0000000000e+00 0.0000e+00 -1.0000e+00
</event>
<event>
 8      3 +3.7482383e-04 9.11880000e+01 7.81616400e-03 1.18400000e-01
      -11 -1    0    0    0    0 +0.0000000000e+00 +0.0000000000e+00 +4.5593999997e+01 4.5594000000e+01 5.1100000000e-04 0.0000e+00 -1.0000e+00
       11 -1    0    0    0    0 -0.0000000000e+00 -0.0000000000e+00 -4.5593999997e+01 4.5594000000e+01 5.1100000000e-04 0.0000e+00 1.0000e+00
       23  2    1    2    0    0 +7.1054273576e-15 -3.5527136788e-15 +0.0000000000e+00 9.1188000000e+01 9.1188000000e+01 1.2512e-13 0.0000e+00
  9990012  2    3    3    0    0 +3.0066783066e+01 -2.2679076066e+01 +2.1570072405e+01 4.7787309237e+01 2.0000174133e+01 3.3265e-01 0.0000e+00
      -11  1    4    4    0    0 +9.9024170848e-01 +8.3878446806e-01 -9.1367552509e-01 1.5871172771e+00 5.1100000000e-04 0.0000e+00 1.0000e+00
       11  1    4    4    0    0 +4.1116437071e+00 -4.4132880362e+00 -1.9996663214e+00 6.3546353887e+00 5.1100000000e-04 0.0000e+00 -1.0000e+00
       12  1    4    4    0    0 +2.4964897650e+01 -1.9104572498e+01 +2.4483414252e+01 3.9845556571e+01 0.0000000000e+00 0.0000e+00 -1.0000e+00
      -12  1    3    3    0    0 -3.0066783066e+01 +2.2679076066e+01 -2.1570072405e+01 4.3400690763e+01 0.0000000000e+00 0.0000e+00 1.0000e+00
</event>
<event>
 8      4 +3.7482383e-04 9.11880000e+01 7.81616400e-03 1.18400000e-01
      -11 -1    0    0    0    0 +0.0000000000e+00 +0.0000000000e+00 +4.5593999997e+01 4.5594000000e+01 5.1100000000e-04 0.0000e+00 -1.0000e+00
       11 -1    0    0    0    0 -0.0000000000e+00 -0.0000000000e+00 -4.5593999997e+01 4.5594000000e+01 5.1100000000e-04 0.0000e+00 1.0000e+00
       23  2    1    2    0    0 +0.0000000000e+00 +0.0000000000e+00 +0.0000000000e+00 9.1188000000e+01 9.1188000000e+01 4.9424e-14 0.0000e+00
 -9990012  2    3    3    0    0 -3.0029823313e+01 -1.8671969688e+01 -2.5163269433e+01 4.7787275711e+01 2.0000021278e+01 9.2638e-02 0.0000e+00
      -11  1    4    4    0    0 -1.3500496940e+01 -5.7494549287e+00 -5.7288466847e+00 1.5752438993e+01 5.1100000000e-04 0.0000e+00 1.0000e+00
       11  1    4    4    0    0 +1.1772254554e+00 -1.0760834053e+00 +1.4834867228e+00 2.1781984267e+00 5.1100000000e-04 0.0000e+00 -1.0000e+00
      -12  1    4    4    0    0 -1.7706551828e+01 -1.1846431354e+01 -2.0917909471e+01 2.9856638292e+01 0.0000000000e+00 0.0000e+00 1.0000e+00
       12  1    3    3    0    0 +3.0029823313e+01 +1.8671969688e+01 +2.5163269433e+01 4.3400724289e+01 0.0000000000e+00 0.0000e+00 -1.0000e+00
</event>
<event>
 8      4 +3.7482383e-04 9.11880000e+01 7.81616400e-03 1.18400000e-01
      -11 -1    0    0    0    0 +0.0000000000e+00 +0.0000000000e+00 +4.5593999997e+01 4.5594000000e+01 5.1100000000e-04 0.0000e+00 1.0000e+00
       11 -1    0    0    0    0 -0.0000000000e+00 -0.0000000000e+00 -4.5593999997e+01 4.5594000000e+01 5.1100000000e-04 0.0000e+00 -1.0000e+00
       23  2    1    2    0    0 +0.0000000000e+00 +0.0000000000e+00 +0.0000000000e+00 9.1188000000e+01 9.1188000000e+01 4.7963e-15 0.0000e+00
 -9990012  2    3    3    0    0 +5.9392426274e+00 -3.2687993504e+01 +2.7925705374e+01 4.7787256424e+01 1.9999933341e+01 3.6226e-02 0.0000e+00
      -11  1    4    4    0    0 -2.1452666145e+00 -1.3717031980e+01 +1.8568407000e+01 2.3185013996e+01 5.1100000000e-04 0.0000e+00 1.0000e+00
       11  1    4    4    0    0 -1.4447763840e-01 +1.0511284210e+00 +7.8365081533e-01 1.3190351045e+00 5.1100000000e-04 0.0000e+00 -1.0000e+00
      -12  1    4    4    0    0 +8.2289868803e+00 -2.0022089945e+01 +8.5736475581e+00 2.3283207324e+01 0.0000000000e+00 0.0000e+00 1.0000e+00
       12  1    3    3    0    0 -5.9392426274e+00 +3.2687993504e+01 -2.7925705374e+01 4.3400743576e+01 0.0000000000e+00 0.0000e+00 -1.0000e+00
</event>
<event>
 8      4 +3.7482383e-04 9.11880000e+01 7.81616400e-03 1.18400000e-01
      -11 -1    0    0    0    0 +0.0000000000e+00 +0.0000000000e+00 +4.5593999997e+01 4.5594000000e+01 5.1100000000e-04 0.0000e+00 1.0000e+00
       11 -1    0    0    0    0 -0.0000000000e+00 -0.0000000000e+00 -4.5593999997e+01 4.5594000000e+01 5.1100000000e-04 0.0000e+00 -1.0000e+00
       23  2    1    2    0    0 -1.6653345369e-16 +8.8817841970e-16 +0.0000000000e+00 9.1188000000e+01 9.1188000000e+01 8.0542e-14 0.0000e+00
 -9990012  2    3    3    0    0 +1.4354317236e-01 +6.3860682596e+00 +4.2928088181e+01 4.7787271580e+01 2.0000002444e+01 2.0414e-02 0.0000e+00
      -11  1    4    4    0    0 +2.9034782462e+00 -1.8091588918e+00 +1.5549951596e+01 1.5921816376e+01 5.1100000000e-04 0.0000e+00 1.0000e+00
       11  1    4    4    0    0 -4.2624461895e+00 -8.0182589027e-01 +1.7757202517e+00 4.6866357817e+00 5.1100000000e-04 0.0000e+00 -1.0000e+00
      -12  1    4    4    0    0 +1.5025111156e+00 +8.9970530416e+00 +2.5602416333e+01 2.7178819422e+01 0.0000000000e+00 0.0000e+00 1.0000e+00
       12  1    3    3    0    0 -1.4354317236e-01 -6.3860682596e+00 -4.2928088181e+01 4.3400728420e+01 0.0000000000e+00 0.0000e+00 -1.0000e+00
</event>
<event>
 8      3 +3.7482383e-04 9.11880000e+01 7.81616400e-03 1.18400000e-01
      -11 -1    0    0    0    0 +0.0000000000e+00 +0.0000000000e+00 +4.5593999997e+01 4.5594000000e+01 5.1100000000e-04 0.0000e+00 -1.0000e+00
       11 -1    0    0    0    0 -0.0000000000e+00 -0.0000000000e+00 -4.5593999997e+01 4.5594000000e+01 5.1100000000e-04 0.0000e+00 1.0000e+00
       23  2    1    2    0    0 +4.4408920985e-16 +0.0000000000e+00 +0.0000000000e+00 9.1188000000e+01 9.1188000000e+01 2.1363e-13 0.0000e+00
  9990012  2    3    3    0    0 +1.2146637526e+00 +4.2585188406e+01 +8.2854855259e+00 4.7787274775e+01 2.0000017011e+01 2.6896e-01 0.0000e+00
      -11  1    4    4    0    0 -6.0805880791e+00 +1.9035795941e+01 -7.9991193824e-02 1.9983530153e+01 5.1100000000e-04 0.0000e+00 1.0000e+00
       11  1    4    4    0    0 +2.3189624564e+00 +1.8511334370e+01 +8.9626712385e+00 2.0697259795e+01 5.1100000000e-04 0.0000e+00 -1.0000e+00
       12  1    4    4    0    0 +4.9762893752e+00 +5.0380580946e+00 -5.9719451872e-01 7.1064848275e+00 0.0000000000e+00 0.0000e+00 -1.0000e+00
      -12  1    3    3    0    0 -1.2146637526e+00 -4.2585188406e+01 -8.2854855259e+00 4.3400725225e+01 0.0000000000e+00 0.0000e+00 1.0000e+00
</event>
<event>
 8      4 +3.7482383e-04 9.11880000e+01 7.81616400e-03 1.18400000e-01
      -11 -1    0    0    0    0 +0.0000000000e+00 +0.0000000000e+00 +4.5593999997e+01 4.5594000000e+01 5.1100000000e-04 0.0000e+00 1.0000e+00
       11 -1    0    0    0    0 -0.0000000000e+00 -0.0000000000e+00 -4.5593999997e+01 4.5594000000e+01 5.1100000000e-04 0.0000e+00 -1.0000e+00
       23  2    1    2    0    0 +3.5527136788e-15 +7.1054273576e-15 +0.0000000000e+00 9.1188000000e+01 9.1188000000e+01 1.0867e-13 0.0000e+00
 -9990012  2    3    3    0    0 +2.2633404160e+01 +3.0004786066e+01 +2.1704049249e+01 4.7787263548e+01 1.9999965822e+01 2.1112e-01 0.0000e+00
      -11  1    4    4    0    0 +1.5460947902e+01 +2.0477291144e+01 +1.4289151049e+01 2.9369034723e+01 5.1100000000e-04 0.0000e+00 1.0000e+00
       11  1    4    4    0    0 +7.6687049255e+00 +3.7843881984e+00 -5.6926265115e-01 8.5705711302e+00 5.1100000000e-04 0.0000e+00 -1.0000e+00
      -12  1    4    4    0    0 -4.9624866730e-01 +5.7431067242e+00 +7.9841608508e+00 9.8476576949e+00 0.0000000000e+00 0.0000e+00 1.0000e+00
       12  1    3    3    0    0 -2.2633404160e+01 -3.0004786066e+01 -2.1704049249e+01 4.3400736452e+01 0.0000000000e+00 0.0000e+00 -1.0000e+00
</event>
<event>
 8      4 +3.7482383e-04 9.11880000e+01 7.81616400e-03 1.18400000e-01
      -11 -1    0    0    0    0 +0.0000000000e+00 +0.0000000000e+00 +4.5593999997e+01 4.5594000000e+01 5.1100000000e-04 0.0000e+00 -1.0000e+00
       11 -1    0    0    0    0 -0.0000000000e+00 -0.0000000000e+00 -4.5593999997e+01 4.5594000000e+01 5.1100000000e-04 0.0000e+00 1.0000e+00
       23  2    1    2    0    0 +3.5527136788e-15 +3.5527136788e-15 -3.5527136788e-15 9.1188000000e+01 9.1188000000e+01 3.0055e-14 0.0000e+00
 -9990012  2    3    3    0    0 +2.3584780562e+01 -2.2841987169e+01 -2.8383535830e+01 4.7787270073e+01 1.9999995571e+01 2.0533e-01 0.0000e+00
      -11  1    4    4    0    0 +6.3763714172e+00 -1.7703327218e+00 -6.5737677067e+00 9.3277335146e+00 5.1100000000e-04 0.0000e+00 1.0000e+00
       11  1    4    4    0    0 +1.6539362684e+01 -1.9344877151e+01 -1.1402718128e+01 2.7889008066e+01 5.1100000000e-04 0.0000e+00 -1.0000e+00
      -12  1    4    4    0    0 +6.6904646086e-01 -1.7267772969e+00 -1.0407049995e+01 1.0570528492e+01 0.0000000000e+00 0.0000e+00 1.0000e+00
       12  1    3    3    0    0 -2.3584780562e+01 +2.2841987169e+01 +2.8383535830e+01 4.3400729927e+01 0.0000000000e+00 0.0000e+00 -1.0000e+00
</event>
<event>
 8      4 +3.7482383e-04 9.11880000e+01 7.81616400e-03 1.18400000e-01
      -11 -1    0    0    0    0 +0.0000000000e+00 +0.0000000000e+00 +4.5593999997e+01 4.5594000000e+01 5.1100000000e-04 0.0000e+00 1.0000e+00
       11 -1    0    0    0    0 -0.0000000000e+00 -0.0000000000e+00 -4.5593999997e+01 4.5594000000e+01 5.1100000000e-04 0.0000e+00 -1.0000e+00
       23  2    1    2    0    0 -8.8817841970e-16 +1.4210854715e-14 -1.7763568394e-15 9.1188000000e+01 9.1188000000e+01 7.8817e-14 0.0000e+00
 -9990012  2    3    3    0    0 +5.7954476202e+00 -4.2210046447e+01 +8.2673093186e+00 4.7787266855e+01 1.9999980897e+01 4.0354e-02 0.0000e+00
      -11  1    4    4    0    0 +1.0840088627e+00 -7.1727722608e+00 +4.7755162812e+00 8.6850039225e+00 5.1100000000e-04 0.0000e+00 1.0000e+00
       11  1    4    4    0    0 +3.6800126652e+00 -8.0181659048e-01 -2.2294274350e+00 4.3767282312e+00 5.1100000000e-04 0.0000e+00 -1.0000e+00
      -12  1    4    4    0    0 +1.0314260924e+00 -3.4235457596e+01 +5.7212204723e+00 3.4725534701e+01 0.0000000000e+00 0.0000e+00 1.0000e+00
       12  1    3    3    0    0 -5.7954476202e+00 +4.2210046447e+01 -8.2673093186e+00 4.3400733145e+01 0.0000000000e+00 0.0000e+00 -1.0000e+00
</event>
<event>
 8      4 +3.7482383e-04 9.11880000e+01 7.81616400e-03 1.18400000e-01
      -11 -1    0    0    0    0 +0.0000000000e+00 +0.0000000000e+00 +4.5593999997e+01 4.5594000000e+01 5.1100000000e-04 0.0000e+00 -1.0000e+00
       11 -1    0    0    0    0 -0.0000000000e+00 -0.0000000000e+00 -4.5593999997e+01 4.5594000000e+01 5.1100000000e-04 0.0000e+00 1.0000e+00
       23  2    1    2    0    0 +0.0000000000e+00 +0.0000000000e+00 -7.1054273576e-15 9.1188000000e+01 9.1188000000e+01 2.8921e-13 0.0000e+00
 -9990012  2    3    3    0    0 -1.0365810633e+01 -1.8582280934e+01 -3.7826869815e+01 4.7787271034e+01 1.9999999951e+01 7.4928e-02 0.0000e+00
      -11  1    4    4    0    0 +3.9988994289e+00 -6.5054464496e+00 -1.0571179700e+01 1.3040777226e+01 5.1100000000e-04 0.0000e+00 1.0000e+00
       11  1    4    4    0    0 -4.1513274404e+00 -3.8812476859e+00 -1.5391225384e+00 5.8878265570e+00 5.1100000000e-04 0.0000e+00 -1.0000e+00
      -12  1    4    4    0    0 -1.0213382621e+01 -8.1955867990e+00 -2.5716567577e+01 2.8858667251e+01 0.0000000000e+00 0.0000e+00 1.0000e+00
       12  1    3    3    0    0 +1.0365810633e+01 +1.8582280934e+01 +3.7826869815e+01 4.3400728966e+01 0.0000000000e+00 0.0000e+00 -1.0000e+00
</event>
<event>
 8      3 +3.7482383e-04 9.11880000e+01 7.81616400e-03 1.18400000e-01
      -11 -1    0    0    0    0 +0.0000000000e+00 +0.0000000000e+00 +4.5593999997e+01 4.5594000000e+01 5.1100000000e-04 0.0000e+00 1.0000e+00
       11 -1    0    0    0    0 -0.0000000000e+00 -0.0000000000e+00 -4.5593999997e+01 4.5594000000e+01 5.1100000000e-04 0.0000e+00 -1.0000e+00
       23  2    1    2    0    0 +0.0000000000e+00 +0.0000000000e+00 +0.0000000000e+00 9.1188000000e+01 9.1188000000e+01 1.0662e-13 0.0000e+00
  9990012  2    3    3    0    0 +4.0987705100e+01 +1.0353696380e+01 -9.8200445600e+00 4.7787259531e+01 1.9999947506e+01 2.0757e-01 0.0000e+00
      -11  1    4    4    0    0 +5.9454272963e+00 +3.5769496446e+00 -6.2246713859e+00 9.3214381196e+00 5.1100000000e-04 0.0000e+00 1.0000e+00
       11  1    4    4    0    0 +2.5598634201e+00 -2.6617159148e+00 +1.9694062590e+00 4.1852351923e+00 5.1100000000e-04 0.0000e+00 -1.0000e+00
       12  1    4    4    0    0 +3.2482414384e+01 +9.4384626504e+00 -5.5647794332e+00 3.4280586219e+01 0.0000000000e+00 0.0000e+00 -1.0000e+00
      -12  1    3    3    0    0 -4.0987705100e+01 -1.0353696380e+01 +9.8200445600e+00 4.3400740469e+01 0.0000000000e+00 0.0000e+00 1.0000e+00
</event>
<event>
 8      3 +3.7482383e-04 9.11880000e+01 7.81616400e-03 1.18400000e-01
      -11 -1    0    0    0    0 +0.0000000000e+00 +0.0000000000e+00 +4.5593999997e+01 4.5594000000e+01 5.1100000000e-04 0.0000e+00 1.0000e+00
       11 -1    0    0    0    0 -0.0000000000e+00 -0.0000000000e+00 -4.5593999997e+01 4.5594000000e+01 5.1100000000e-04 0.0000e+00 -1.0000e+00
       23  2    1    2    0    0 +0.0000000000e+00 -3.5527136788e-15 +0.0000000000e+00 9.1188000000e+01 9.1188000000e+01 4.1033e-15 0.0000e+00
  9990012  2    3    3    0    0 -3.3683105811e+01 -2.7342624133e+01 -1.2052252590e+00 4.7787270980e+01 1.9999999708e+01 9.0631e-02 0.0000e+00
      -11  1    4    4    0    0 -1.8063143975e+00 -1.3935307921e+00 +1.3990447569e+00 2.6761962305e+00 5.1100000000e-04 0.0000e+00 -1.0000e+00
       11  1    4    4    0    0 -2.7666157072e+00 +2.8484660610e+00 +6.9333052391e-01 4.0309588001e+00 5.1100000000e-04 0.0000e+00 1.0000e+00
       12  1    4    4    0    0 -2.9110175706e+01 -2.8797559402e+01 -3.2976005398e+00 4.1080115950e+01 0.0000000000e+00 0.0000e+00 -1.0000e+00
      -12  1    3    3    0    0 +3.3683105811e+01 +2.7342624133e+01 +1.2052252590e+00 4.3400729020e+01 0.0000000000e+00 0.0000e+00 1.0000e+00
</event>
<event>
 8      3 +3.7482383e-04 9.11880000e+01 7.81616400e-03 1.18400000e-01
      -11 -1    0    0    0    0 +0.0000000000e+00 +0.0000000000e+00 +4.5593999997e+01 4.5594000000e+01 5.1100000000e-04 0.0000e+00 1.0000e+00
       11 -1    0    0    0    0 -0.0000000000e+00 -0.0000000000e+00 -4.5593999997e+01 4.5594000000e+01 5.1100000000e-04 0.0000e+00 -1.0000e+00
       23  2    1    2    0    0 -4.4408920985e-16 +0.0000000000e+00 -7.1054273576e-15 9.1188000000e+01 9.1188000000e+01 1.9336e-14 0.0000e+00
  9990012  2    3    3    0    0 -3.5470436136e+00 +1.4106852178e+01 -4.0890568339e+01 4.7787269869e+01 1.9999994642e+01 6.1110e-01 0.0000e+00
      -11  1    4    4    0    0 -1.3560933444e-01 -1.3110296420e+00 -8.0323515140e+00 8.1397702498e+00 5.1100000000e-04 0.0000e+00 1.0000e+00
       11  1    4    4    0    0 -5.5913827988e+00 +2.1157993473e+00 -2.5933786248e+00 6.5165774325e+00 5.1100000000e-04 0.0000e+00 -1.0000e+00
       12  1    4    4    0    0 +2.1799485196e+00 +1.3302082473e+01 -3.0264838200e+01 3.3130922187e+01 0.0000000000e+00 0.0000e+00 -1.0000e+00
      -12  1    3    3    0    0 +3.5470436136e+00 -1.4106852178e+01 +4.0890568339e+01 4.3400730131e+01 0.0000000000e+00 0.0000e+00 1.0000e+00
</event>
<event>
 8      3 +3.7482383e-04 9.11880000e+01 7.81616400e-03 1.18400000e-01
      -11 -1    0    0    0    0 +0.0000000000e+00 +0.0000000000e+00 +4.5593999997e+01 4.5594000000e+01 5.1100000000e-04 0.0000e+00 -1.0000e+00
       11 -1    0    0    0    0 -0.0000000000e+00 -0.0000000000e+00 -4.5593999997e+01 4.5594000000e+01 5.1100000000e-04 0.0000e+00 1.0000e+00
       23  2    1    2    0    0 +0.0000000000e+00 +0.0000000000e+00 +0.0000000000e+00 9.1188000000e+01 9.1188000000e+01 1.1544e-14 0.0000e+00
  9990012  2    3    3    0    0 +4.1141341473e+01 -5.2390230511e+00 -1.2789292401e+01 4.7787270272e+01 1.9999996480e+01 6.2414e-01 0.0000e+00
      -11  1    4    4    0    0 +3.5031386524e+00 +4.2393746631e+00 -1.5751682368e+00 5.7206147561e+00 5.1100000000e-04 0.0000e+00 1.0000e+00
       11  1    4    4    0    0 +3.5621861555e+01 -6.2094797805e+00 -1.2091150624e+01 3.8127032188e+01 5.1100000000e-04 0.0000e+00 -1.0000e+00
       12  1    4    4    0    0 +2.0163412657e+00 -3.2689179337e+00 +8.7702645943e-01 3.9396233281e+00 0.0000000000e+00 0.0000e+00 -1.0000e+00
      -12  1    3    3    0    0 -4.1141341473e+01 +5.2390230511e+00 +1.2789292401e+01 4.3400729728e+01 0.0000000000e+00 0.0000e+00 1.0000e+00
</event>
<event>
 8      4 +3.7482383e-04 9.11880000e+01 7.81616400e-03 1.18400000e-01
      -11 -1    0    0    0    0 +0.0000000000e+00 +0.0000000000e+00 +4.5593999997e+01 4.5594000000e+01 5.1100000000e-04 0.0000e+00 1.0000e+00
       11 -1    0    0    0    0 -0.0000000000e+00 -0.0000000000e+00 -4.5593999997e+01 4.5594000000e+01 5.1100000000e-04 0.0000e+00 -1.0000e+00
       23  2    1    2    0    0 -3.5527136788e-15 +0.0000000000e+00 +0.0000000000e+00 9.1188000000e+01 9.1188000000e+01 9.3920e-14 0.0000e+00
 -9990012  2    3    3    0    0 +2.7216245055e+01 +2.2984385337e+01 +2.4791479368e+01 4.7787269436e+01 1.9999992669e+01 3.6437e-01 0.0000e+00
      -11  1    4    4    0    0 +6.3733059820e+00 +2.8586942922e+00 -2.1684499068e+00 7.3139139628e+00 5.1100000000e-04 0.0000e+00 -1.0000e+00
       11  1    4    4    0    0 +1.4822752094e+01 +1.8743371180e+01 +1.9940407698e+01 3.1123107207e+01 5.1100000000e-04 0.0000e+00 1.0000e+00
      -12  1    4    4    0    0 +6.0201869790e+00 +1.3823198645e+00 +7.0195215770e+00 9.3502482662e+00 0.0000000000e+00 0.0000e+00 1.0000e+00
       12  1    3    3    0    0 -2.7216245055e+01 -2.2984385337e+01 -2.4791479368e+01 4.3400730564e+01 0.0000000000e+00 0.0000e+00 -1.0000e+00
</event>
<event>
 8      3 +3.7482383e-04 9.11880000e+01 7.81616400e-03 1.18400000e-01
      -11 -1    0    0    0    0 +0.0000000000e+00 +0.0000000000e+00 +4.5593999997e+01 4.5594000000e+01 5.1100000000e-04 0.0000e+00 1.0000e+00
       11 -1    0    0    0    0 -0.0000000000e+00 -0.0000000000e+00 -4.5593999997e+01 4.5594000000e+01 5.1100000000e-04 0.0000e+00 -1.0000e+00
       23  2    1    2    0    0 +0.0000000000e+00 -3.5527136788e-15 -3.5527136788e-15 9.1188000000e+01 9.1188000000e+01 2.3769e-14 0.0000e+00
  9990012  2    3    3    0    0 +2.5979561948e+01 -2.7595690583e+01 -2.1146235238e+01 4.7787273710e+01 2.0000012155e+01 3.0128e-01 0.0000e+00
      -11  1    4    4    0    0 +9.2162884145e+00 -1.9446885069e+01 -8.8488196625e+00 2.3268496314e+01 5.1100000000e-04 0.0000e+00 -1.0000e+00
       11  1    4    4    0    0 +2.9315146902e+00 -1.5276977705e-01 +1.6002485908e+00 3.3433385706e+00 5.1100000000e-04 0.0000e+00 1.0000e+00
       12  1    4    4    0    0 +1.3831758843e+01 -7.9960357365e+00 -1.3897664166e+01 2.1175438826e+01 0.0000000000e+00 0.0000e+00 -1.0000e+00
      -12  1    3    3    0    0 -2.5979561948e+01 +2.7595690583e+01 +2.1146235238e+01 4.3400726290e+01 0.0000000000e+00 0.0000e+00 1.0000e+00
</event>
<event>
 8      4 +3.7482383e-04 9.11880000e+01 7.81616400e-03 1.18400000e-01
      -11 -1    0    0    0    0 +0.0000000000e+00 +0.0000000000e+00 +4.5593999997e+01 4.5594000000e+01 5.1100000000e-04 0.0000e+00 -1.0000e+00
       11 -1    0    0    0    0 -0.0000000000e+00 -0.0000000000e+00 -4.5593999997e+01 4.5594000000e+01 5.1100000000e-04 0.0000e+00 1.0000e+00
       23  2    1    2    0    0 +0.0000000000e+00 +8.8817841970e-16 -3.5527136788e-15 9.1188000000e+01 9.1188000000e+01 6.4389e-14 0.0000e+00
 -9990012  2    3    3    0    0 +3.5731522329e+01 +7.6022044550e+00 -2.3432640217e+01 4.7787264660e+01 1.9999970889e+01 1.5056e-02 0.0000e+00
      -11  1    4    4    0    0 +3.0615586242e+00 -2.5188645188e+00 -2.7987898712e+00 4.8529418580e+00 5.1100000000e-04 0.0000e+00 1.0000e+00
       11  1    4    4    0    0 +4.8555983432e+00 +5.6874264536e+00 -1.0728846922e+01 1.3077913116e+01 5.1100000000e-04 0.0000e+00 -1.0000e+00
      -12  1    4    4    0    0 +2.7814365362e+01 +4.4336425202e+00 -9.9050034241e+00 2.9856409685e+01 0.0000000000e+00 0.0000e+00 1.0000e+00
       12  1    3    3    0    0 -3.5731522329e+01 -7.6022044550e+00 +2.3432640217e+01 4.3400735340e+01 0.0000000000e+00 0.0000e+00 -1.0000e+00
</event>
<event>
 8      3 +3.7482383e-04 9.11880000e+01 7.81616400e-03 1.18400000e-01
      -11 -1    0    0    0    0 +0.0000000000e+00 +0.0000000000e+00 +4.5593999997e+01 4.5594000000e+01 5.1100000000e-04 0.0000e+00 -1.0000e+00
       11 -1    0    0    0    0 -0.0000000000e+00 -0.0000000000e+00 -4.5593999997e+01 4.5594000000e+01 5.1100000000e-04 0.0000e+00 1.0000e+00
       23  2    1    2    0    0 +0.0000000000e+00 +0.0000000000e+00 +0.0000000000e+00 9.1188000000e+01 9.1188000000e+01 1.0920e-13 0.0000e+00
  9990012  2    3    3    0    0 -1.4305219920e+01 -2.7430122166e+01 +3.0439644981e+01 4.7787275287e+01 2.0000019345e+01 2.3806e-01 0.0000e+00
      -11  1    4    4    0    0 +2.1923720356e-01 -5.8336794782e+00 -5.7061144697e-01 5.8656183723e+00 5.1100000000e-04 0.0000e+00 1.0000e+00
       11  1    4    4    0    0 -1.2884999335e+01 -1.6097569594e+01 +1.6800945146e+01 2.6597494482e+01 5.1100000000e-04 0.0000e+00 -1.0000e+00
       12  1    4    4    0    0 -1.6394577891e+00 -5.4988730942e+00 +1.4209311282e+01 1.5324162432e+01 0.0000000000e+00 0.0000e+00 -1.0000e+00
      -12  1    3    3    0    0 +1.4305219920e+01 +2.7430122166e+01 -3.0439644981e+01 4.3400724713e+01 0.0000000000e+00 0.0000e+00 1.0000e+00
</event>
<event>
 8      3 +3.7482383e-04 9.11880000e+01 7.81616400e-03 1.18400000e-01
      -11 -1    0    0    0    0 +0.0000000000e+00 +0.0000000000e+00 +4.5593999997e+01 4.5594000000e+01 5.1100000000e-04 0.0000e+00 -1.0000e+00
       11 -1    0    0    0    0 -0.0000000000e+00 -0.0000000000e+00 -4.5593999997e+01 4.5594000000e+01 5.1100000000e-04 0.0000e+00 1.0000e+00
       23  2    1    2    0    0 +0.0000000000e+00 +0.0000000000e+00 -8.8817841970e-16 9.1188000000e+01 9.1188000000e+01 5.5485e-14 0.0000e+00
  9990012  2    3    3    0    0 +2.4830177421e+01 -3.4879986660e+01 +7.1043834124e+00 4.7787269087e+01 1.9999991073e+01 1.7464e-01 0.0000e+00
      -11  1    4    4    0    0 +1.5666105463e+00 -3.6385908701e+00 +1.6386736795e+00 4.2870577104e+00 5.1100000000e-04 0.0000e+00 1.0000e+00
       11  1    4    4    0    0 +2.1771673185e+01 -3.1042700772e+01 +8.8691629577e-02 3.7916525302e+01 5.1100000000e-04 0.0000e+00 -1.0000e+00
       12  1    4    4    0    0 +1.4918936901e+00 -1.9869501754e-01 +5.3770181034e+00 5.5836860743e+00 0.0000000000e+00 0.0000e+00 -1.0000e+00
      -12  1    3    3    0    0 -2.4830177421e+01 +3.4879986660e+01 -7.1043834124e+00 4.3400730913e+01 0.0000000000e+00 0.0000e+00 1.0000e+00
</event>
<event>
 8      4 +3.7482383e-04 9.11880000e+01 7.81616400e-03 1.18400000e-01
      -11 -1    0    0    0    0 +0.0000000000e+00 +0.0000000000e+00 +4.5593999997e+01 4.5594000000e+01 5.1100000000e-04 0.0000e+00 1.0000e+00
       11 -1    0    0    0    0 -0.0000000000e+00 -0.0000000000e+00 -4.5593999997e+01 4.5594000000e+01 5.1100000000e-04 0.0000e+00 -1.0000e+00
       23  2    1    2    0    0 +0.0000000000e+00 +0.0000000000e+00 +3.5527136788e-15 9.1188000000e+01 9.1188000000e+01 3.4576e-14 0.0000e+00
 -9990012  2    3    3    0    0 +2.8072088045e+01 +2.6587459125e+01 +1.9715201201e+01 4.7787259588e+01 1.9999947764e+01 1.4461e+00 0.0000e+00
      -11  1    4    4    0    0 -7.9127686544e-01 +8.0844893263e-01 +3.3238780020e-01 1.1790634696e+00 5.1100000000e-04 0.0000e+00 1.0000e+00
       11  1    4    4    0    0 +4.4619614289e+00 -1.5571212413e+00 +5.9098137070e+00 7.5670089643e+00 5.1100000000e-04 0.0000e+00 -1.0000e+00
      -12  1    4    4    0    0 +2.4401403481e+01 +2.7336131434e+01 +1.3472999694e+01 3.9041187154e+01 0.0000000000e+00 0.0000e+00 1.0000e+00
       12  1    3    3    0    0 -2.8072088045e+01 -2.6587459125e+01 -1.9715201201e+01 4.3400740412e+01 0.0000000000e+00 0.0000e+00 -1.0000e+00
</event>
<event>
 8      4 +3.7482383e-04 9.11880000e+01 7.81616400e-03 1.18400000e-01
      -11 -1    0    0    0    0 +0.0000000000e+00 +0.0000000000e+00 +4.5593999997e+01 4.5594000000e+01 5.1100000000e-04 0.0000e+00 1.0000e+00
       11 -1    0    0    0    0 -0.0000000000e+00 -0.0000000000e+00 -4.5593999997e+01 4.5594000000e+01 5.1100000000e-04 0.0000e+00 -1.0000e+00
       23  2    1    2    0    0 +3.5527136788e-15 +0.0000000000e+00 -8.8817841970e-16 9.1188000000e+01 9.1188000000e+01 5.1108e-14 0.0000e+00
 -9990012  2    3    3    0    0 -2.2624526941e+01 +3.6846710483e+01 +3.7516022699e+00 4.7787264841e+01 1.9999971718e+01 1.2663e-01 0.0000e+00
      -11  1    4    4    0    0 -1.0475579494e+01 +1.3209202682e+01 +1.4032095390e+00 1.6917145105e+01 5.1100000000e-04 0.0000e+00 1.0000e+00
       11  1    4    4    0    0 -2.9324848565e+00 -5.1396250899e-01 +3.9777887182e+00 4.9685438754e+00 5.1100000000e-04 0.0000e+00 -1.0000e+00
      -12  1    4    4    0    0 -9.2164625910e+00 +2.4151470310e+01 -1.6293959873e+00 2.5901575861e+01 0.0000000000e+00 0.0000e+00 1.0000e+00
       12  1    3    3    0    0 +2.2624526941e+01 -3.6846710483e+01 -3.7516022699e+00 4.3400735159e+01 0.0000000000e+00 0.0000e+00 -1.0000e+00
</event>
<event>
 8      3 +3.7482383e-04 9.11880000e+01 7.81616400e-03 1.18400000e-01
      -11 -1    0    0    0    0 +0.0000000000e+00 +0.0000000000e+00 +4.5593999997e+01 4.5594000000e+01 5.1100000000e-04 0.0000e+00 -1.0000e+00
       11 -1    0    0    0    0 -0.0000000000e+00 -0.0000000000e+00 -4.5593999997e+01 4.5594000000e+01 5.1100000000e-04 0.0000e+00 1.0000e+00
       23  2    1    2    0    0 -9.4368957093e-16 +7.1054273576e-15 +0.0000000000e+00 9.1188000000e+01 9.1188000000e+01 4.3275e-14 0.0000e+00
  9990012  2    3    3    0    0 +2.5699703538e-01 -4.2276347184e+01 +9.8116080050e+00 4.7787271546e+01 2.0000002286e+01 7.4516e-02 0.0000e+00
      -11  1    4    4    0    0 -2.2342262601e+00 -7.3368487047e+00 +4.6220620704e+00 8.9545839625e+00 5.1100000000e-04 0.0000e+00 1.0000e+00
       11  1    4    4    0    0 +9.0229065116e+00 -2.3906484950e+01 +2.0641961688e+00 2.5635790814e+01 5.1100000000e-04 0.0000e+00 -1.0000e+00
       12  1    4    4    0    0 -6.5316832161e+00 -1.1033013530e+01 +3.1253497657e+00 1.3196896770e+01 0.0000000000e+00 0.0000e+00 -1.0000e+00
      -12  1    3    3    0    0 -2.5699703538e-01 +4.2276347184e+01 -9.8116080050e+00 4.3400728454e+01 0.0000000000e+00 0.0000e+00 1.0000e+00
</event>
<event>
 8      4 +3.7482383e-04 9.11880000e+01 7.81616400e-03 1.18400000e-01
      -11 -1    0    0    0    0 +0.0000000000e+00 +0.0000000000e+00 +4.5593999997e+01 4.5594000000e+01 5.1100000000e-04 0.0000e+00 1.0000e+00
       11 -1    0    0    0    0 -0.0000000000e+00 -0.0000000000e+00 -4.5593999997e+01 4.5594000000e+01 5.1100000000e-04 0.0000e+00 -1.0000e+00
       23  2    1    2    0    0 +0.0000000000e+00 +0.0000000000e+00 +7.1054273576e-15 9.1188000000e+01 9.1188000000e+01 3.2228e-13 0.0000e+00
 -9990012  2    3    3    0    0 -2.5298492832e+01 -3.4340621689e+00 +3.5097257764e+01 4.7787262390e+01 1.9999960541e+01 1.1349e-01 0.0000e+00
      -11  1    4    4    0    0 -2.7665370035e+00 -4.7939379146e+00 +7.5831521874e+00 9.3882780679e+00 5.1100000000e-04 0.0000e+00 1.0000e+00
       11  1    4    4    0    0 -1.4727133553e+01 +3.8216902626e+00 +2.5928460868e+01 3.0062915068e+01 5.1100000000e-04 0.0000e+00 -1.0000e+00
      -12  1    4    4    0    0 -7.8048222758e+00 -2.4618145169e+00 +1.5856447087e+00 8.3360692544e+00 0.0000000000e+00 0.0000e+00 1.0000e+00
       12  1    3    3    0    0 +2.5298492832e+01 +3.4340621689e+00 -3.5097257764e+01 4.3400737610e+01 0.0000000000e+00 0.0000e+00 -1.0000e+00
</event>
<event>
 8      4 +3.7482383e-04 9.11880000e+01 7.81616400e-03 1.18400000e-01
      -11 -1    0    0    0    0 +0.0000000000e+00 +0.0000000000e+00 +4.5593999997e+01 4.5594000000e+01 5.1100000000e-04 0.0000e+00 1.0000e+00
       11 -1    0    0    0    0 -0.0000000000e+00 -0.0000000000e+00 -4.5593999997e+01 4.5594000000e+01 5.1100000000e-04 0.0000e+00 -1.0000e+00
       23  2    1    2    0    0 +8.8817841970e-16 +0.0000000000e+00 -4.4408920985e-16 9.1188000000e+01 9.1188000000e+01 1.5676e-14 0.0000e+00
 -9990012  2    3    3    0    0 -5.8511614683e+00 -4.2919505317e+01 +2.7024739019e+00 4.7787269679e+01 1.9999993777e+01 6.7857e-03 0.0000e+00
      -11  1    4    4    0    0 -4.3511133885e+00 -2.6559357415e+01 -3.6324391339e+00 2.7157434863e+01 5.1100000000e-04 0.0000e+00 1.0000e+00
       11  1    4    4    0    0 +3.5471695972e+00 -3.7691676187e+00 -9.0410928737e-01 5.2541840997e+00 5.1100000000e-04 0.0000e+00 -1.0000e+00
      -12  1    4    4    0    0 -5.0472176770e+00 -1.2590980283e+01 +7.2390223232e+00 1.5375650717e+01 0.0000000000e+00 0.0000e+00 1.0000e+00
       12  1    3    3    0    0 +5.8511614683e+00 +4.2919505317e+01 -2.7024739019e+00 4.3400730321e+01 0.0000000000e+00 0.0000e+00 -1.0000e+00
</event>
<event>
 8      4 +3.7482383e-04 9.11880000e+01 7.81616400e-03 1.18400000e-01
      -11 -1    0    0    0    0 +0.0000000000e+00 +0.0000000000e+00 +4.5593999997e+01 4.5594000000e+01 5.1100000000e-04 0.0000e+00 1.0000e+00
       11 -1    0    0    0    0 -0.0000000000e+00 -0.0000000000e+00 -4.5593999997e+01 4.5594000000e+01 5.1100000000e-04 0.0000e+00 -1.0000e+00
       23  2    1    2    0    0 +0.0000000000e+00 +8.8817841970e-16 +0.0000000000e+00 9.1188000000e+01 9.1188000000e+01 1.2223e-13 0.0000e+00
 -9990012  2    3    3    0    0 -9.1103694093e+00 -4.6711369834e+00 +4.2175908315e+01 4.7787244319e+01 1.9999878145e+01 6.1741e-02 0.0000e+00
      -11  1    4    4    0    0 -8.9047251631e+00 -6.4346859178e+00 +2.4503321542e+01 2.6853530120e+01 5.1100000000e-04 0.0000e+00 1.0000e+00
       11  1    4    4    0    0 -2.2073040622e+00 -2.6772951844e+00 +1.0697266397e+00 3.6310351241e+00 5.1100000000e-04 0.0000e+00 -1.0000e+00
      -12  1    4    4    0    0 +2.0016598161e+00 +4.4408441188e+00 +1.6602860134e+01 1.7302679074e+01 0.0000000000e+00 0.0000e+00 1.0000e+00
       12  1    3    3    0    0 +9.1103694093e+00 +4.6711369834e+00 -4.2175908315e+01 4.3400755681e+01 0.0000000000e+00 0.0000e+00 -1.0000e+00
</event>
<event>
 8      3 +3.7482383e-04 9.11880000e+01 7.81616400e-03 1.18400000e-01
      -11 -1    0    0    0    0 +0.0000000000e+00 +0.0000000000e+00 +4.5593999997e+01 4.5594000000e+01 5.1100000000e-04 0.0000e+00 1.0000e+00
       11 -1    0    0    0    0 -0.0000000000e+00 -0.0000000000e+00 -4.5593999997e+01 4.5594000000e+01 5.1100000000e-04 0.0000e+00 -1.0000e+00
       23  2    1    2    0    0 +4.4408920985e-16 +0.0000000000e+00 +3.5527136788e-15 9.1188000000e+01 9.1188000000e+01 9.2997e-14 0.0000e+00
  9990012  2    3    3    0    0 +3.7693181166e+00 -3.8306786365e+01 -2.0049991491e+01 4.7787311071e+01 2.0000182497e+01 1.1957e-01 0.0000e+00
      -11  1    4    4    0    0 -3.2610274342e+00 -6.2149804557e+00 -4.8707827363e+00 8.5431145794e+00 5.1100000000e-04 0.0000e+00 1.0000e+00
       11  1    4    4    0    0 +4.4904341411e+00 -2.7523048021e+00 +1.3988252890e+00 5.4493938149e+00 5.1100000000e-04 0.0000e+00 -1.0000e+00
       12  1    4    4    0    0 +2.5399114098e+00 -2.9339501107e+01 -1.6578034044e+01 3.3794802677e+01 0.0000000000e+00 0.0000e+00 -1.0000e+00
      -12  1    3    3    0    0 -3.7693181166e+00 +3.8306786365e+01 +2.0049991491e+01 4.3400688929e+01 0.0000000000e+00 0.0000e+00 1.0000e+00
</event>
<event>
 8      4 +3.7482383e-04 9.11880000e+01 7.81616400e-03 1.18400000e-01
      -11 -1    0    0    0    0 +0.0000000000e+00 +0.0000000000e+00 +4.5593999997e+01 4.5594000000e+01 5.1100000000e-04 0.0000e+00 1.0000e+00
       11 -1    0    0    0    0 -0.0000000000e+00 -0.0000000000e+00 -4.5593999997e+01 4.5594000000e+01 5.1100000000e-04 0.0000e+00 -1.0000e+00
       23  2    1    2    0    0 +0.0000000000e+00 +0.0000000000e+00 -3.5527136788e-15 9.1188000000e+01 9.1188000000e+01 3.9825e-13 0.0000e+00
 -9990012  2    3    3    0    0 -2.6228128216e+01 +1.3740848531e+01 +3.1731648780e+01 4.7787272329e+01 2.0000005856e+01 3.4771e-01 0.0000e+00
      -11  1    4    4    0    0 -1.7298100288e+01 +1.2348075962e+01 +2.0324437423e+01 2.9407176171e+01 5.1100000000e-04 0.0000e+00 1.0000e+00
       11  1    4    4    0    0 -1.1624783560e+00 +4.7306045709e+00 +1.0021887732e+00 4.9733648702e+00 5.1100000000e-04 0.0000e+00 -1.0000e+00
      -12  1    4    4    0    0 -7.7675495726e+00 -3.3378320024e+00 +1.0405022584e+01 1.3406731287e+01 0.0000000000e+00 0.0000e+00 1.0000e+00
       12  1    3    3    0    0 +2.6228128216e+01 -1.3740848531e+01 -3.1731648780e+01 4.3400727671e+01 0.0000000000e+00 0.0000e+00 -1.0000e+00
</event>
<event>
 8      4 +3.7482383e-04 9.11880000e+01 7.81616400e-03 1.18400000e-01
      -11 -1    0    0    0    0 +0.0000000000e+00 +0.0000000000e+00 +4.5593999997e+01 4.5594000000e+01 5.1100000000e-04 0.0000e+00 1.0000e+00
       11 -1    0    0    0    0 -0.0000000000e+00 -0.0000000000e+00 -4.5593999997e+01 4.5594000000e+01 5.1100000000e-04 0.0000e+00 -1.0000e+00
       23  2    1    2    0    0 -3.5527136788e-15 +0.0000000000e+00 +1.7763568394e-15 9.1188000000e+01 9.1188000000e+01 3.0523e-13 0.0000e+00
 -9990012  2    3    3    0    0 +2.9808851572e+01 -2.9831790024e+01 -1.0252725492e+01 4.7787289084e+01 2.0000082248e+01 5.2733e-01 0.0000e+00
      -11  1    4    4    0    0 +2.0406352630e+01 -1.6306726456e+01 -9.0207307668e+00 2.7635161284e+01 5.1100000000e-04 0.0000e+00 1.0000e+00
       11  1    4    4    0    0 -2.8692392302e-01 -3.4808756239e+00 -4.6191271443e+00 5.7909546953e+00 5.1100000000e-04 0.0000e+00 -1.0000e+00
      -12  1    4    4    0    0 +9.6894228648e+00 -1.0044187944e+01 +3.3871324195e+00 1.4361173104e+01 0.0000000000e+00 0.0000e+00 1.0000e+00
       12  1    3    3    0    0 -2.9808851572e+01 +2.9831790024e+01 +1.0252725492e+01 4.3400710916e+01 0.0000000000e+00 0.0000e+00 -1.0000e+00
</event>
<event>
 8      3 +3.7482383e-04 9.11880000e+01 7.81616400e-03 1.18400000e-01
      -11 -1    0    0    0    0 +0.0000000000e+00 +0.0000000000e+00 +4.5593999997e+01 4.5594000000e+01 5.1100000000e-04 0.0000e+00 -1.0000e+00
       11 -1    0    0    0    0 -0.0000000000e+00 -0.0000000000e+00 -4.5593999997e+01 4.5594000000e+01 5.1100000000e-04 0.0000e+00 1.0000e+00
       23  2    1    2    0    0 +0.0000000000e+00 +0.0000000000e+00 +3.5527136788e-15 9.1188000000e+01 9.1188000000e+01 5.4193e-15 0.0000e+00
  9990012  2    3    3    0    0 -1.6632459646e+01 +3.3980240158e+01 +2.1267966084e+01 4.7787287835e+01 2.0000076553e+01 7.7143e-02 0.0000e+00
      -11  1    4    4    0    0 +1.4085741381e+00 +1.1441181113e+01 +8.5771197407e+00 1.4368426834e+01 5.1100000000e-04 0.0000e+00 1.0000e+00
       11  1    4    4    0    0 -1.0554178374e+01 +1.4046605635e+01 +1.7198248145e+00 1.7653770381e+01 5.1100000000e-04 0.0000e+00 -1.0000e+00
       12  1    4    4    0    0 -7.4868554105e+00 +8.4924534099e+00 +1.0971021529e+01 1.5765090620e+01 0.0000000000e+00 0.0000e+00 -1.0000e+00
      -12  1    3    3    0    0 +1.6632459646e+01 -3.3980240158e+01 -2.1267966084e+01 4.3400712165e+01 0.0000000000e+00 0.0000e+00 1.0000e+00
</event>
<event>
 8      4 +3.7482383e-04 9.11880000e+01 7.81616400e-03 1.18400000e-01
      -11 -1    0    0    0    0 +0.0000000000e+00 +0.0000000000e+00 +4.5593999997e+01 4.5594000000e+01 5.1100000000e-04 0.0000e+00 -1.0000e+00
       11 -1    0    0    0    0 -0.0000000000e+00 -0.0000000000e+00 -4.5593999997e+01 4.5594000000e+01 5.1100000000e-04 0.0000e+00 1.0000e+00
       23  2    1    2    0    0 -1.7763568394e-15 +7.1054273576e-15 +4.4408920985e-16 9.1188000000e+01 9.1188000000e+01 2.1626e-13 0.0000e+00
 -9990012  2    3    3    0    0 -1.3316815138e+01 +4.1116262501e+01 +3.9671826119e+00 4.7787272525e+01 2.0000006749e+01 2.0287e-02 0.0000e+00
      -11  1    4    4    0    0 +1.0752344575e+00 +2.0297351974e+01 -1.1831588460e+00 2.0360218354e+01 5.1100000000e-04 0.0000e+00 1.0000e+00
       11  1    4    4    0    0 -7.5717978452e-01 -8.6157701488e-01 +9.1581169582e-01 1.4677695671e+00 5.1100000000e-04 0.0000e+00 -1.0000e+00
      -12  1    4    4    0    0 -1.3634869811e+01 +2.1680487542e+01 +4.2345297621e+00 2.5959284604e+01 0.0000000000e+00 0.0000e+00 1.0000e+00
       12  1    3    3    0    0 +1.3316815138e+01 -4.1116262501e+01 -3.9671826119e+00 4.3400727475e+01 0.0000000000e+00 0.0000e+00 -1.0000e+00
</event>
<event>
 8      3 +3.7482383e-04 9.11880000e+01 7.81616400e-03 1.18400000e-01
      -11 -1    0    0    0    0 +0.0000000000e+00 +0.0000000000e+00 +4.5593999997e+01 4.5594000000e+01 5.1100000000e-04 0.0000e+00 -1.0000e+00
       11 -1    0    0    0    0 -0.0000000000e+00 -0.0000000000e+00 -4.5593999997e+01 4.5594000000e+01 5.1100000000e-04 0.0000e+00 1.0000e+00
       23  2    1    2    0    0 +0.0000000000e+00 +0.0000000000e+00 +7.1054273576e-15 9.1188000000e+01 9.1188000000e+01 9.3589e-14 0.0000e+00
  9990012  2    3    3    0    0 -1.3858744664e+01 +4.7291067702e+00 +4.0855772608e+01 4.7787269478e+01 1.9999992857e+01 2.4340e-02 0.0000e+00
      -11  1    4    4    0    0 -1.2322601493e+00 +7.3342537760e-01 -1.4181547009e+00 2.0168145370e+00 5.1100000000e-04 0.0000e+00 1.0000e+00
       11  1    4    4    0    0 +5.9323619836e-01 -2.2185048074e+00 +1.1218344622e+01 1.1450980268e+01 5.1100000000e-04 0.0000e+00 -1.0000e+00
       12  1    4    4    0    0 -1.3219720713e+01 +6.2141862000e+00 +3.1055582686e+01 3.4319474673e+01 0.0000000000e+00 0.0000e+00 -1.0000e+00
      -12  1    3    3    0    0 +1.3858744664e+01 -4.7291067702e+00 -4.0855772608e+01 4.3400730522e+01 0.0000000000e+00 0.0000e+00 1.0000e+00
</event>
<event>
 8      3 +3.7482383e-04 9.11880000e+01 7.81616400e-03 1.18400000e-01
      -11 -1    0    0    0    0 +0.0000000000e+00 +0.0000000000e+00 +4.5593999997e+01 4.5594000000e+01 5.1100000000e-04 0.0000e+00 -1.0000e+00
       11 -1    0    0    0    0 -0.0000000000e+00 -0.0000000000e+00 -4.5593999997e+01 4.5594000000e+01 5.1100000000e-04 0.0000e+00 1.0000e+00
       23  2    1    2    0    0 +7.1054273576e-15 +0.0000000000e+00 +0.0000000000e+00 9.1188000000e+01 9.1188000000e+01 6.7406e-14 0.0000e+00
  9990012  2    3    3    0    0 +3.7432864280e+01 +2.1356134469e+01 +5.1301932621e+00 4.7787277764e+01 2.0000030638e+01 2.5995e-03 0.0000e+00
      -11  1    4    4    0    0 +8.8263559909e+00 +1.0225981142e+01 -7.3499565727e-02 1.3508539997e+01 5.1100000000e-04 0.0000e+00 1.0000e+00
       11  1    4    4    0    0 +3.4539515781e+00 +7.5949618784e+00 -3.8971188023e-02 8.3435451969e+00 5.1100000000e-04 0.0000e+00 -1.0000e+00
       12  1    4    4    0    0 +2.5152556711e+01 +3.5351914483e+00 +5.2426640159e+00 2.5935192571e+01 0.0000000000e+00 0.0000e+00 -1.0000e+00
      -12  1    3    3    0    0 -3.7432864280e+01 -2.1356134469e+01 -5.1301932621e+00 4.3400722236e+01 0.0000000000e+00 0.0000e+00 1.0000e+00
</event>
<event>
 8      3 +3.7482383e-04 9.11880000e+01 7.81616400e-03 1.18400000e-01
      -11 -1    0    0    0    0 +0.0000000000e+00 +0.0000000000e+00 +4.5593999997e+01 4.5594000000e+01 5.1100000000e-04 0.0000e+00 1.0000e+00
       11 -1    0    0    0    0 -0.0000000000e+00 -0.0000000000e+00 -4.5593999997e+01 4.5594000000e+01 5.1100000000e-04 0.0000e+00 -1.0000e+00
       23  2    1    2    0    0 -3.5527136788e-15 +3.5527136788e-15 +0.0000000000e+00 9.1188000000e+01 9.1188000000e+01 3.2183e-14 0.0000e+00
  9990012  2    3    3    0    0 +1.8683891370e+01 -3.1666548277e+01 -2.3060037741e+01 4.7787269394e+01 1.9999992475e+01 1.1816e-01 0.0000e+00
      -11  1    4    4    0    0 -6.4768717036e-01 +4.1331334113e-01 -5.1941409864e+00 5.2506597144e+00 5.1100000000e-04 0.0000e+00 1.0000e+00
       11  1    4    4    0    0 -1.0254615978e-02 -5.9689910160e+00 -4.1288878759e+00 7.2578698155e+00 5.1100000000e-04 0.0000e+00 -1.0000e+00
       12  1    4    4    0    0 +1.9341833156e+01 -2.6110870602e+01 -1.3737008879e+01 3.5278739864e+01 0.0000000000e+00 0.0000e+00 -1.0000e+00
      -12  1    3    3    0    0 -1.8683891370e+01 +3.1666548277e+01 +2.3060037741e+01 4.3400730606e+01 0.0000000000e+00 0.0000e+00 1.0000e+00
</event>
<event>
 8      3 +3.7482383e-04 9.11880000e+01 7.81616400e-03 1.18400000e-01
      -11 -1    0    0    0    0 +0.0000000000e+00 +0.0000000000e+00 +4.5593999997e+01 4.5594000000e+01 5.1100000000e-04 0.0000e+00 1.0000e+00
       11 -1    0    0    0    0 -0.0000000000e+00 -0.0000000000e+00 -4.5593999997e+01 4.5594000000e+01 5.1100000000e-04 0.0000e+00 -1.0000e+00
       23  2    1    2    0    0 +0.0000000000e+00 +3.5527136788e-15 -5.5511151231e-17 9.1188000000e+01 9.1188000000e+01 2.6651e-14 0.0000e+00
  9990012  2    3    3    0    0 -3.4431943326e+01 -2.6419323987e+01 +2.8949902214e-01 4.7787271771e+01 2.0000003314e+01 3.4047e-01 0.0000e+00
      -11  1    4    4    0    0 -1.0088474878e+01 -4.9334533332e+00 +3.7945497135e+00 1.1853897880e+01 5.1100000000e-04 0.0000e+00 1.0000e+00
       11  1    4    4    0    0 +1.4654715099e+00 -4.7964634745e+00 -1.7301806816e-01 5.0183268249e+00 5.1100000000e-04 0.0000e+00 -1.0000e+00
       12  1    4    4    0    0 -2.5808939957e+01 -1.6689407179e+01 -3.3320326232e+00 3.0915047066e+01 0.0000000000e+00 0.0000e+00 -1.0000e+00
      -12  1    3    3    0    0 +3.4431943326e+01 +2.6419323987e+01 -2.8949902214e-01 4.3400728229e+01 0.0000000000e+00 0.0000e+00 1.0000e+00
</event>
<event>
 8      3 +3.7482383e-04 9.11880000e+01 7.81616400e-03 1.18400000e-01
      -11 -1    0    0    0    0 +0.0000000000e+00 +0.0000000000e+00 +4.5593999997e+01 4.5594000000e+01 5.1100000000e-04 0.0000e+00 -1.0000e+00
       11 -1    0    0    0    0 -0.0000000000e+00 -0.0000000000e+00 -4.5593999997e+01 4.5594000000e+01 5.1100000000e-04 0.0000e+00 1.0000e+00
       23  2    1    2    0    0 -7.1054273576e-15 +0.0000000000e+00 -1.7763568394e-15 9.1188000000e+01 9.1188000000e+01 5.0647e-14 0.0000e+00
  9990012  2    3    3    0    0 -4.2202360711e+01 +1.3648580566e+00 +1.0036009511e+01 4.7787267587e+01 1.9999984237e+01 5.3545e-02 0.0000e+00
      -11  1    4    4    0    0 -4.1580365989e+00 +4.2716907427e+00 -2.7556203059e+00 6.5673475385e+00 5.1100000000e-04 0.0000e+00 1.0000e+00
       11  1    4    4    0    0 -2.0679369559e+01 -3.8193709006e-01 +1.1401736833e+01 2.3617404691e+01 5.1100000000e-04 0.0000e+00 -1.0000e+00
       12  1    4    4    0    0 -1.7364954553e+01 -2.5248955961e+00 +1.3898929838e+00 1.7602515357e+01 0.0000000000e+00 0.0000e+00 -1.0000e+00
      -12  1    3    3    0    0 +4.2202360711e+01 -1.3648580566e+00 -1.0036009511e+01 4.3400732413e+01 0.0000000000e+00 0.0000e+00 1.0000e+00
</event>
<event>
 8      3 +3.7482383e-04 9.11880000e+01 7.81616400e-03 1.18400000e-01
      -11 -1    0    0    0    0 +0.0000000000e+00 +0.0000000000e+00 +4.5593999997e+01 4.5594000000e+01 5.1100000000e-04 0.0000e+00 -1.0000e+00
       11 -1    0    0    0    0 -0.0000000000e+00 -0.0000000000e+00 -4.5593999997e+01 4.5594000000e+01 5.1100000000e-04 0.0000e+00 1.0000e+00
       23  2    1    2    0    0 -3.5527136788e-15 +0.0000000000e+00 +0.0000000000e+00 9.1188000000e+01 9.1188000000e+01 3.7879e-14 0.0000e+00
  9990012  2    3    3    0    0 -2.1971536772e+01 -2.0090739655e+01 +3.1579058518e+01 4.7787272070e+01 2.0000004676e+01 5.3512e-02 0.0000e+00
      -11  1    4    4    0    0 -1.9523560945e+01 -1.0453294961e+01 +1.9996493941e+01 2.9837905049e+01 5.1100000000e-04 0.0000e+00 -1.0000e+00
       11  1    4    4    0    0 +3.4825816788e+00 -1.9268659045e+00 +3.5750486751e+00 5.3499682854e+00 5.1100000000e-04 0.0000e+00 1.0000e+00
       12  1    4    4    0    0 -5.9305575054e+00 -7.7105787888e+00 +8.0075159015e+00 1.2599398735e+01 0.0000000000e+00 0.0000e+00 -1.0000e+00
      -12  1    3    3    0    0 +2.1971536772e+01 +2.0090739655e+01 -3.1579058518e+01 4.3400727930e+01 0.0000000000e+00 0.0000e+00 1.0000e+00
</event>
<event>
 8      4 +3.7482383e-04 9.11880000e+01 7.81616400e-03 1.18400000e-01
      -11 -1    0    0    0    0 +0.0000000000e+00 +0.0000000000e+00 +4.5593999997e+01 4.5594000000e+01 5.1100000000e-04 0.0000e+00 1.0000e+00
       11 -1    0    0    0    0 -0.0000000000e+00 -0.0000000000e+00 -4.5593999997e+01 4.5594000000e+01 5.1100000000e-04 0.0000e+00 -1.0000e+00
       23  2    1    2    0    0 +0.0000000000e+00 +1.7763568394e-15 +0.0000000000e+00 9.1188000000e+01 9.1188000000e+01 4.4567e-14 0.0000e+00
 -9990012  2    3    3    0    0 -2.7037767928e+01 -1.4931290651e+01 +3.0490029683e+01 4.7787236814e+01 1.9999843931e+01 1.3159e-01 0.0000e+00
      -11  1    4    4    0    0 +1.9703947498e+00 +3.2925479693e-01 +1.8371458198e-01 2.0061444365e+00 5.1100000000e-04 0.0000e+00 1.0000e+00
       11  1    4    4    0    0 -5.1981035431e+00 -7.7624116054e+00 +7.7934841785e+00 1.2166088537e+01 5.1100000000e-04 0.0000e+00 -1.0000e+00
      -12  1    4    4    0    0 -2.3810059135e+01 -7.4981338430e+00 +2.2512830922e+01 3.3615003841e+01 0.0000000000e+00 0.0000e+00 1.0000e+00
       12  1    3    3    0    0 +2.7037767928e+01 +1.4931290651e+01 -3.0490029683e+01 4.3400763186e+01 0.0000000000e+00 0.0000e+00 -1.0000e+00
</event>
<event>
 8      3 +3.7482383e-04 9.11880000e+01 7.81616400e-03 1.18400000e-01
      -11 -1    0    0    0    0 +0.0000000000e+00 +0.0000000000e+00 +4.5593999997e+01 4.5594000000e+01 5.1100000000e-04 0.0000e+00 -1.0000e+00
       11 -1    0    0    0    0 -0.0000000000e+00 -0.0000000000e+00 -4.5593999997e+01 4.5594000000e+01 5.1100000000e-04 0.0000e+00 1.0000e+00
       23  2    1    2    0    0 +0.0000000000e+00 +0.0000000000e+00 +0.0000000000e+00 9.1188000000e+01 9.1188000000e+01 1.0528e-13 0.0000e+00
  9990012  2    3    3    0    0 -5.2742703411e+00 +1.0299069007e+01 +4.1829831734e+01 4.7787267599e+01 1.9999984290e+01 4.4807e-01 0.0000e+00
      -11  1    4    4    0    0 -6.4882125245e-01 +1.7646329168e+00 -1.1691672000e+00 2.2140123196e+00 5.1100000000e-04 0.0000e+00 1.0000e+00
       11  1    4    4    0    0 -5.9611136647e+00 +3.2718061270e+00 +9.7691869223e+00 1.1902798194e+01 5.1100000000e-04 0.0000e+00 -1.0000e+00
       12  1    4    4    0    0 +1.3356645761e+00 +5.2626299634e+00 +3.3229812012e+01 3.3670457085e+01 0.0000000000e+00 0.0000e+00 -1.0000e+00
      -12  1    3    3    0    0 +5.2742703411e+00 -1.0299069007e+01 -4.1829831734e+01 4.3400732401e+01 0.0000000000e+00 0.0000e+00 1.0000e+00
</event>
<event>
 8      3 +3.7482383e-04 9.11880000e+01 7.81616400e-03 1.18400000e-01
      -11 -1    0    0    0    0 +0.0000000000e+00 +0.0000000000e+00 +4.5593999997e+01 4.5594000000e+01 5.1100000000e-04 0.0000e+00 1.0000e+00
       11 -1    0    0    0    0 -0.0000000000e+00 -0.0000000000e+00 -4.5593999997e+01 4.5594000000e+01 5.1100000000e-04 0.0000e+00 -1.0000e+00
       23  2    1    2    0    0 -3.5527136788e-15 +0.0000000000e+00 +0.0000000000e+00 9.1188000000e+01 9.1188000000e+01 3.3201e-13 0.0000e+00
  9990012  2    3    3    0    0 +2.3992450680e+01 -2.4793838354e+01 -2.6329662867e+01 4.7787271243e+01 2.0000000905e+01 3.7477e-02 0.0000e+00
      -11  1    4    4    0    0 -1.0470276898e+00 -3.6162387129e+00 -1.7707563231e+00 4.1604119542e+00 5.1100000000e-04 0.0000e+00 1.0000e+00
       11  1    4    4    0    0 +2.1684840465e+01 -9.3392177987e+00 -1.7956169421e+01 2.9662726031e+01 5.1100000000e-04 0.0000e+00 -1.0000e+00
       12  1    4    4    0    0 +3.3546379056e+00 -1.1838381842e+01 -6.6027371222e+00 1.3964133257e+01 0.0000000000e+00 0.0000e+00 -1.0000e+00
      -12  1    3    3    0    0 -2.3992450680e+01 +2.4793838354e+01 +2.6329662867e+01 4.3400728757e+01 0.0000000000e+00 0.0000e+00 1.0000e+00
</event>
<event>
 8      3 +3.7482383e-04 9.11880000e+01 7.81616400e-03 1.18400000e-01
      -11 -1    0    0    0    0 +0.0000000000e+00 +0.0000000000e+00 +4.5593999997e+01 4.5594000000e+01 5.1100000000e-04 0.0000e+00 -1.0000e+00
       11 -1    0    0    0    0 -0.0000000000e+00 -0.0000000000e+00 -4.5593999997e+01 4.5594000000e+01 5.1100000000e-04 0.0000e+00 1.0000e+00
       23  2    1    2    0    0 +0.0000000000e+00 +6.6613381478e-16 +0.0000000000e+00 9.1188000000e+01 9.1188000000e+01 6.3209e-14 0.0000e+00
  9990012  2    3    3    0    0 -2.5577066893e+01 -1.8402434821e+00 +3.5015002208e+01 4.7787271590e+01 2.0000002488e+01 1.3983e-01 0.0000e+00
      -11  1    4    4    0    0 +9.3542476452e-02 +2.3171199421e+00 +1.8195818801e-01 2.3261350056e+00 5.1100000000e-04 0.0000e+00 1.0000e+00
       11  1    4    4    0    0 -4.8709956089e+00 -5.4810461140e+00 +1.4973895269e+01 1.6672912299e+01 5.1100000000e-04 0.0000e+00 -1.0000e+00
       12  1    4    4    0    0 -2.0799613760e+01 +1.3236826898e+00 +1.9859148751e+01 2.8788224286e+01 0.0000000000e+00 0.0000e+00 -1.0000e+00
      -12  1    3    3    0    0 +2.5577066893e+01 +1.8402434821e+00 -3.5015002208e+01 4.3400728410e+01 0.0000000000e+00 0.0000e+00 1.0000e+00
</event>
<event>
 8      4 +3.7482383e-04 9.11880000e+01 7.81616400e-03 1.18400000e-01
      -11 -1    0    0    0    0 +0.0000000000e+00 +0.0000000000e+00 +4.5593999997e+01 4.5594000000e+01 5.1100000000e-04 0.0000e+00 1.0000e+00
       11 -1    0    0    0    0 -0.0000000000e+00 -0.0000000000e+00 -4.5593999997e+01 4.5594000000e+01 5.1100000000e-04 0.0000e+00 -1.0000e+00
       23  2    1    2    0    0 +3.5527136788e-15 -3.5527136788e-15 +0.0000000000e+00 9.1188000000e+01 9.1188000000e+01 2.9737e-14 0.0000e+00
 -9990012  2    3    3    0    0 -2.6762363966e+01 +1.7865242354e+01 +2.9124429356e+01 4.7787269652e+01 1.9999993651e+01 4.5925e-02 0.0000e+00
      -11  1    4    4    0    0 -8.7944082140e+00 +1.4383197584e+01 +8.0796816440e+00 1.8694898885e+01 5.1100000000e-04 0.0000e+00 1.0000e+00
       11  1    4    4    0    0 -1.5659403598e+01 +5.8799963794e+00 +1.8135417959e+01 2.4671535486e+01 5.1100000000e-04 0.0000e+00 -1.0000e+00
      -12  1    4    4    0    0 -2.3085521545e+00 -2.3979516091e+00 +2.9093297533e+00 4.4208352811e+00 0.0000000000e+00 0.0000e+00 1.0000e+00
       12  1    3    3    0    0 +2.6762363966e+01 -1.7865242354e+01 -2.9124429356e+01 4.3400730348e+01 0.0000000000e+00 0.0000e+00 -1.0000e+00
</event>
<event>
 8      4 +3.7482383e-04 9.11880000e+01 7.81616400e-03 1.18400000e-01
      -11 -1    0    0    0    0 +0.0000000000e+00 +0.0000000000e+00 +4.5593999997e+01 4.5594000000e+01 5.1100000000e-04 0.0000e+00 1.0000e+00
       11 -1    0    0    0    0 -0.0000000000e+00 -0.0000000000e+00 -4.5593999997e+01 4.5594000000e+01 5.1100000000e-04 0.0000e+00 -1.0000e+00
       23  2    1    2    0    0 +3.5527136788e-15 +0.0000000000e+00 +3.5527136788e-15 9.1188000000e+01 9.1188000000e+01 4.7066e-13 0.0000e+00
 -9990012  2    3    3    0    0 +1.5853052598e+01 +2.9256026305e+01 +2.7863758801e+01 4.7787269518e+01 1.9999993042e+01 3.5796e-01 0.0000e+00
      -11  1    4    4    0    0 -1.9328299080e+00 +9.8633176648e+00 +8.2448092723e+00 1.2999913346e+01 5.1100000000e-04 0.0000e+00 1.0000e+00
       11  1    4    4    0    0 +2.0562222285e+00 -1.3924827021e+00 +7.0332016793e-01 2.5810303076e+00 5.1100000000e-04 0.0000e+00 -1.0000e+00
      -12  1    4    4    0    0 +1.5729660278e+01 +2.0785191342e+01 +1.8915629361e+01 3.2206325865e+01 0.0000000000e+00 0.0000e+00 1.0000e+00
       12  1    3    3    0    0 -1.5853052598e+01 -2.9256026305e+01 -2.7863758801e+01 4.3400730482e+01 0.0000000000e+00 0.0000e+00 -1.0000e+00
</event>
<event>
 8      4 +3.7482383e-04 9.11880000e+01 7.81616400e-03 1.18400000e-01
      -11 -1    0    0    0    0 +0.0000000000e+00 +0.0000000000e+00 +4.5593999997e+01 4.5594000000e+01 5.1100000000e-04 0.0000e+00 -1.0000e+00
       11 -1    0    0    0    0 -0.0000000000e+00 -0.0000000000e+00 -4.5593999997e+01 4.5594000000e+01 5.1100000000e-04 0.0000e+00 1.0000e+00
       23  2    1    2    0    0 +0.0000000000e+00 +0.0000000000e+00 -1.7763568394e-15 9.1188000000e+01 9.1188000000e+01 1.7066e-13 0.0000e+00
 -9990012  2    3    3    0    0 +3.5483413085e+01 +2.1038370328e+01 -1.3488443623e+01 4.7787265656e+01 1.9999975430e+01 1.8268e-01 0.0000e+00
      -11  1    4    4    0    0 +9.8703714590e+00 +1.0361112789e+01 -7.4376744156e+00 1.6127488705e+01 5.1100000000e-04 0.0000e+00 1.0000e+00
       11  1    4    4    0    0 +8.3258779354e+00 +9.0843791871e+00 +2.0677504584e+00 1.2494870181e+01 5.1100000000e-04 0.0000e+00 -1.0000e+00
      -12  1    4    4    0    0 +1.7287163691e+01 +1.5928783521e+00 -8.1185196660e+00 1.9164906770e+01 0.0000000000e+00 0.0000e+00 1.0000e+00
       12  1    3    3    0    0 -3.5483413085e+01 -2.1038370328e+01 +1.3488443623e+01 4.3400734344e+01 0.0000000000e+00 0.0000e+00 -1.0000e+00
</event>
<event>
 8      3 +3.7482383e-04 9.11880000e+01 7.81616400e-03 1.18400000e-01
      -11 -1    0    0    0    0 +0.0000000000e+00 +0.0000000000e+00 +4.5593999997e+01 4.5594000000e+01 5.1100000000e-04 0.0000e+00 1.0000e+00
       11 -1    0    0    0    0 -0.0000000000e+00 -0.0000000000e+00 -4.5593999997e+01 4.5594000000e+01 5.1100000000e-04 0.0000e+00 -1.0000e+00
       23  2    1    2    0    0 -4.4408920985e-16 +4.4408920985e-16 +0.0000000000e+00 9.1188000000e+01 9.1188000000e+01 1.5380e-13 0.0000e+00
  9990012  2    3    3    0    0 +1.8837973886e+00 +3.2354281101e-01 -4.3358622672e+01 4.7787268064e+01 1.9999986412e+01 1.2651e-02 0.0000e+00
      -11  1    4    4    0    0 +1.3793299639e-01 +1.1025115172e+00 -1.0861045639e+00 1.5537633481e+00 5.1100000000e-04 0.0000e+00 1.0000e+00
       11  1    4    4    0    0 +4.5872567003e+00 -8.8675990832e+00 -2.5781942572e+01 2.7647527929e+01 5.1100000000e-04 0.0000e+00 -1.0000e+00
       12  1    4    4    0    0 -2.8413923080e+00 +8.0886303770e+00 -1.6490575536e+01 1.8585976787e+01 0.0000000000e+00 0.0000e+00 -1.0000e+00
      -12  1    3    3    0    0 -1.8837973886e+00 -3.2354281101e-01 +4.3358622672e+01 4.3400731936e+01 0.0000000000e+00 0.0000e+00 1.0000e+00
</event>
<event>
 8      4 +3.7482383e-04 9.11880000e+01 7.81616400e-03 1.18400000e-01
      -11 -1    0    0    0    0 +0.0000000000e+00 +0.0000000000e+00 +4.5593999997e+01 4.5594000000e+01 5.1100000000e-04 0.0000e+00 1.0000e+00
       11 -1    0    0    0    0 -0.0000000000e+00 -0.0000000000e+00 -4.5593999997e+01 4.5594000000e+01 5.1100000000e-04 0.0000e+00 -1.0000e+00
       23  2    1    2    0    0 -1.7763568394e-15 -2.2204460493e-16 +0.0000000000e+00 9.1188000000e+01 9.1188000000e+01 1.6328e-14 0.0000e+00
 -9990012  2    3    3    0    0 -4.9533738270e+00 -1.3207219122e+00 +4.3096903600e+01 4.7787270530e+01 1.9999997654e+01 1.9087e+00 0.0000e+00
      -11  1    4    4    0    0 -7.1906666622e+00 -5.2384003787e+00 +4.0612861901e+01 4.1575847287e+01 5.1100000000e-04 0.0000e+00 1.0000e+00
       11  1    4    4    0    0 -9.3790274643e-02 +2.2206816128e+00 +2.4770437253e+00 3.3280578900e+00 5.1100000000e-04 0.0000e+00 -1.0000e+00
      -12  1    4    4    0    0 +2.3310831098e+00 +1.6969968538e+00 +6.9979735973e-03 2.8833653529e+00 0.0000000000e+00 0.0000e+00 1.0000e+00
       12  1    3    3    0    0 +4.9533738270e+00 +1.3207219122e+00 -4.3096903600e+01 4.3400729470e+01 0.0000000000e+00 0.0000e+00 -1.0000e+00
</event>
<event>
 8      3 +3.7482383e-04 9.11880000e+01 7.81616400e-03 1.18400000e-01
      -11 -1    0    0    0    0 +0.0000000000e+00 +0.0000000000e+00 +4.5593999997e+01 4.5594000000e+01 5.1100000000e-04 0.0000e+00 -1.0000e+00
       11 -1    0    0    0    0 -0.0000000000e+00 -0.0000000000e+00 -4.5593999997e+01 4.5594000000e+01 5.1100000000e-04 0.0000e+00 1.0000e+00
       23  2    1    2    0    0 +0.0000000000e+00 +0.0000000000e+00 +0.0000000000e+00 9.1188000000e+01 9.1188000000e+01 2.6484e-13 0.0000e+00
  9990012  2    3    3    0    0 +1.0424724074e+01 +2.3113625523e+01 +3.5223694149e+01 4.7787272053e+01 2.0000004597e+01 5.9786e-03 0.0000e+00
      -11  1    4    4    0    0 +1.2680488683e+01 +1.3513270835e+01 +1.4519898408e+01 2.3542105512e+01 5.1100000000e-04 0.0000e+00 1.0000e+00
       11  1    4    4    0    0 -4.1465269487e+00 +1.8343457256e+00 +6.1466787558e+00 7.6380737078e+00 5.1100000000e-04 0.0000e+00 -1.0000e+00
       12  1    4    4    0    0 +1.8907623396e+00 +7.7660089629e+00 +1.4557116985e+01 1.6607092833e+01 0.0000000000e+00 0.0000e+00 -1.0000e+00
      -12  1    3    3    0    0 -1.0424724074e+01 -2.3113625523e+01 -3.5223694149e+01 4.3400727947e+01 0.0000000000e+00 0.0000e+00 1.0000e+00
</event>
<event>
 8      4 +3.7482383e-04 9.11880000e+01 7.81616400e-03 1.18400000e-01
      -11 -1    0    0    0    0 +0.0000000000e+00 +0.0000000000e+00 +4.5593999997e+01 4.5594000000e+01 5.1100000000e-04 0.0000e+00 1.0000e+00
       11 -1    0    0    0    0 -0.0000000000e+00 -0.0000000000e+00 -4.5593999997e+01 4.5594000000e+01 5.1100000000e-04 0.0000e+00 -1.0000e+00
       23  2    1    2    0    0 -3.5527136788e-15 +0.0000000000e+00 +0.0000000000e+00 9.1188000000e+01 9.1188000000e+01 4.2838e-14 0.0000e+00
 -9990012  2    3    3    0    0 +1.7872560367e+01 -2.9151162892e+01 +2.6728347202e+01 4.7787271248e+01 2.0000000930e+01 2.8222e-04 0.0000e+00
      -11  1    4    4    0    0 +3.8628434309e-01 -5.1963005006e+00 +2.4441498858e+00 5.7553995006e+00 5.1100000000e-04 0.0000e+00 1.0000e+00
       11  1    4    4    0    0 +4.6100352722e+00 -1.2007061409e+01 +1.0492305992e+00 1.2904372669e+01 5.1100000000e-04 0.0000e+00 -1.0000e+00
      -12  1    4    4    0    0 +1.2876240751e+01 -1.1947800983e+01 +2.3234966717e+01 2.9127499078e+01 0.0000000000e+00 0.0000e+00 1.0000e+00
       12  1    3    3    0    0 -1.7872560367e+01 +2.9151162892e+01 -2.6728347202e+01 4.3400728752e+01 0.0000000000e+00 0.0000e+00 -1.0000e+00
</event>
<event>
 8      3 +3.7482383e-04 9.11880000e+01 7.81616400e-03 1.18400000e-01
      -11 -1    0    0    0    0 +0.0000000000e+00 +0.0000000000e+00 +4.5593999997e+01 4.5594000000e+01 5.1100000000e-04 0.0000e+00 1.0000e+00
       11 -1    0    0    0    0 -0.0000000000e+00 -0.0000000000e+00 -4.5593999997e+01 4.5594000000e+01 5.1100000000e-04 0.0000e+00 -1.0000e+00
       23  2    1    2    0    0 -7.1054273576e-15 +3.5527136788e-15 +1.7763568394e-15 9.1188000000e+01 9.1188000000e+01 3.4727e-13 0.0000e+00
  9990012  2    3    3    0    0 +3.8867291092e+01 -1.7433764557e+01 -8.3079068270e+00 4.7787265221e+01 1.9999973450e+01 4.6087e-02 0.0000e+00
      -11  1    4    4    0    0 +3.5984686277e+01 -1.2138817155e+01 -7.3097644738e+00 3.8674037613e+01 5.1100000000e-04 0.0000e+00 -1.0000e+00
       11  1    4    4    0    0 -5.4518985161e-01 -1.1121609831e-01 +2.0976987209e+00 2.1702398899e+00 5.1100000000e-04 0.0000e+00 1.0000e+00
       12  1    4    4    0    0 +3.4277946670e+00 -5.1837313029e+00 -3.0958410741e+00 6.9429877182e+00 0.0000000000e+00 0.0000e+00 -1.0000e+00
      -12  1    3    3    0    0 -3.8867291092e+01 +1.7433764557e+01 +8.3079068270e+00 4.3400734779e+01 0.0000000000e+00 0.0000e+00 1.0000e+00
</event>
<event>
 8      4 +3.7482383e-04 9.11880000e+01 7.81616400e-03 1.18400000e-01
      -11 -1    0    0    0    0 +0.0000000000e+00 +0.0000000000e+00 +4.5593999997e+01 4.5594000000e+01 5.1100000000e-04 0.0000e+00 1.0000e+00
       11 -1    0    0    0    0 -0.0000000000e+00 -0.0000000000e+00 -4.5593999997e+01 4.5594000000e+01 5.1100000000e-04 0.0000e+00 -1.0000e+00
       23  2    1    2    0    0 +3.5527136788e-15 +0.0000000000e+00 +0.0000000000e+00 9.1188000000e+01 9.1188000000e+01 9.3543e-14 0.0000e+00
 -9990012  2    3    3    0    0 -2.7350072770e+01 -5.3797719916e+00 +3.3266419627e+01 4.7787273024e+01 2.0000009026e+01 3.8959e-01 0.0000e+00
      -11  1    4    4    0    0 -2.7909654855e+00 +1.9724871412e+00 -1.0327044696e+00 3.5702482611e+00 5.1100000000e-04 0.0000e+00 -1.0000e+00
       11  1    4    4    0    0 -1.0732933282e+01 -5.2505707902e+00 +2.4128188974e+01 2.6924595705e+01 5.1100000000e-04 0.0000e+00 1.0000e+00
      -12  1    4    4    0    0 -1.3826174003e+01 -2.1016883426e+00 +1.0170935123e+01 1.7292429058e+01 0.0000000000e+00 0.0000e+00 1.0000e+00
       12  1    3    3    0    0 +2.7350072770e+01 +5.3797719916e+00 -3.3266419627e+01 4.3400726976e+01 0.0000000000e+00 0.0000e+00 -1.0000e+00
</event>
<event>
 8      4 +3.7482383e-04 9.11880000e+01 7.81616400e-03 1.18400000e-01
      -11 -1    0    0    0    0 +0.0000000000e+00 +0.0000000000e+00 +4.5593999997e+01 4.5594000000e+01 5.1100000000e-04 0.0000e+00 1.0000e+00
       11 -1    0    0    0    0 -0.0000000000e+00 -0.0000000000e+00 -4.5593999997e+01 4.5594000000e+01 5.1100000000e-04 0.0000e+00 -1.0000e+00
       23  2    1    2    0    0 +0.0000000000e+00 -1.7763568394e-15 +0.0000000000e+00 9.1188000000e+01 9.1188000000e+01 2.5669e-14 0.0000e+00
 -9990012  2    3    3    0    0 -1.6108260618e+01 -6.6585672340e+00 +3.9746828999e+01 4.7787274277e+01 2.0000014740e+01 3.7856e-02 0.0000e+00
      -11  1    4    4    0    0 -1.2364321344e+01 +1.6872942525e+00 +1.4728590118e+01 1.9304268215e+01 5.1100000000e-04 0.0000e+00 1.0000e+00
       11  1    4    4    0    0 +3.2506669257e+00 -1.2241509883e+00 +4.6908741418e+00 5.8369239827e+00 5.1100000000e-04 0.0000e+00 -1.0000e+00
      -12  1    4    4    0    0 -6.9946062004e+00 -7.1217104981e+00 +2.0327364739e+01 2.2646082080e+01 0.0000000000e+00 0.0000e+00 1.0000e+00
       12  1    3    3    0    0 +1.6108260618e+01 +6.6585672340e+00 -3.9746828999e+01 4.3400725723e+01 0.0000000000e+00 0.0000e+00 -1.0000e+00
</event>
<event>
 8      3 +3.7482383e-04 9.11880000e+01 7.81616400e-03 1.18400000e-01
      -11 -1    0    0    0    0 +0.0000000000e+00 +0.0000000000e+00 +4.5593999997e+01 4.5594000000e+01 5.1100000000e-04 0.0000e+00 1.0000e+00
       11 -1    0    0    0    0 -0.0000000000e+00 -0.0000000000e+00 -4.5593999997e+01 4.5594000000e+01 5.1100000000e-04 0.0000e+00 -1.0000e+00
       23  2    1    2    0    0 +0.0000000000e+00 +0.0000000000e+00 +0.0000000000e+00 9.1188000000e+01 9.1188000000e+01 1.0884e-13 0.0000e+00
  9990012  2    3    3    0    0 +1.3400331085e+01 +3.2641642109e+00 -4.1150940684e+01 4.7787267744e+01 1.9999984950e+01 5.3969e-01 0.0000e+00
      -11  1    4    4    0    0 -2.7449963884e+00 +1.8164081557e+00 -3.0996726880e+00 4.5213178161e+00 5.1100000000e-04 0.0000e+00 1.0000e+00
       11  1    4    4    0    0 +1.6844278618e+01 +1.8261489584e+00 -2.5058242023e+01 3.0248636924e+01 5.1100000000e-04 0.0000e+00 -1.0000e+00
       12  1    4    4    0    0 -6.9895114511e-01 -3.7839290309e-01 -1.2993025973e+01 1.3017313004e+01 0.0000000000e+00 0.0000e+00 -1.0000e+00
      -12  1    3    3    0    0 -1.3400331085e+01 -3.2641642109e+00 +4.1150940684e+01 4.3400732256e+01 0.0000000000e+00 0.0000e+00 1.0000e+00
</event>
<event>
 8      4 +3.7482383e-04 9.11880000e+01 7.81616400e-03 1.18400000e-01
      -11 -1    0    0    0    0 +0.0000000000e+00 +0.0000000000e+00 +4.5593999997e+01 4.5594000000e+01 5.1100000000e-04 0.0000e+00 1.0000e+00
       11 -1    0    0    0    0 -0.0000000000e+00 -0.0000000000e+00 -4.5593999997e+01 4.5594000000e+01 5.1100000000e-04 0.0000e+00 -1.0000e+00
       23  2    1    2    0    0 +0.0000000000e+00 -3.5527136788e-15 +0.0000000000e+00 9.1188000000e+01 9.1188000000e+01 1.0189e-14 0.0000e+00
 -9990012  2    3    3    0    0 -1.9772577497e+01 -2.8820884048e+01 +2.5729847621e+01 4.7787271471e+01 2.0000001947e+01 1.1188e-01 0.0000e+00
      -11  1    4    4    0    0 -1.3991824758e+01 -2.3471396917e+01 +1.8342341514e+01 3.2910775223e+01 5.1100000000e-04 0.0000e+00 1.0000e+00
       11  1    4    4    0    0 -2.4231742039e-01 +4.2176236360e-01 +6.8417836706e+00 6.8590527976e+00 5.1100000000e-04 0.0000e+00 -1.0000e+00
      -12  1    4    4    0    0 -5.5384353187e+00 -5.7712494945e+00 +5.4572243633e-01 8.0174434507e+00 0.0000000000e+00 0.0000e+00 1.0000e+00
       12  1    3    3    0    0 +1.9772577497e+01 +2.8820884048e+01 -2.5729847621e+01 4.3400728529e+01 0.0000000000e+00 0.0000e+00 -1.0000e+00
</event>
<event>
 8      4 +3.7482383e-04 9.11880000e+01 7.81616400e-03 1.18400000e-01
      -11 -1    0    0    0    0 +0.0000000000e+00 +0.0000000000e+00 +4.5593999997e+01 4.5594000000e+01 5.1100000000e-04 0.0000e+00 1.0000e+00
       11 -1    0    0    0    0 -0.0000000000e+00 -0.0000000000e+00 -4.5593999997e+01 4.5594000000e+01 5.1100000000e-04 0.0000e+00 -1.0000e+00
       23  2    1    2    0    0 -3.5527136788e-15 +6.6613381478e-16 -3.5527136788e-15 9.1188000000e+01 9.1188000000e+01 8.3856e-15 0.0000e+00
 -9990012  2    3    3    0    0 +3.0583144288e+01 -1.7383541240e+00 +3.0745283123e+01 4.7787273924e+01 2.0000013128e+01 1.9867e-01 0.0000e+00
      -11  1    4    4    0    0 +1.6209455919e+01 -8.4544703014e+00 +2.1997825372e+01 2.8602951782e+01 5.1100000000e-04 0.0000e+00 1.0000e+00
       11  1    4    4    0    0 +8.3270879869e+00 +2.7680747286e+00 +1.4069959523e+00 8.8871969662e+00 5.1100000000e-04 0.0000e+00 -1.0000e+00
      -12  1    4    4    0    0 +6.0466003824e+00 +3.9480414488e+00 +7.3404617989e+00 1.0297125176e+01 0.0000000000e+00 0.0000e+00 1.0000e+00
       12  1    3    3    0    0 -3.0583144288e+01 +1.7383541240e+00 -3.0745283123e+01 4.3400726076e+01 0.0000000000e+00 0.0000e+00 -1.0000e+00
</event>
<event>
 8      3 +3.7482383e-04 9.11880000e+01 7.81616400e-03 1.18400000e-01
      -11 -1    0    0    0    0 +0.0000000000e+00 +0.0000000000e+00 +4.5593999997e+01 4.5594000000e+01 5.1100000000e-04 0.0000e+00 1.0000e+00
       11 -1    0    0    0    0 -0.0000000000e+00 -0.0000000000e+00 -4.5593999997e+01 4.5594000000e+01 5.1100000000e-04 0.0000e+00 -1.0000e+00
       23  2    1    2    0    0 +7.1054273576e-15 +0.0000000000e+00 +0.0000000000e+00 9.1188000000e+01 9.1188000000e+01 1.2086e-14 0.0000e+00
  9990012  2    3    3    0    0 -4.1088288501e+01 +9.1002844140e+00 +1.0609457172e+01 4.7787271782e+01 2.0000003365e+01 2.0582e-01 0.0000e+00
      -11  1    4    4    0    0 -1.0859165957e+00 +3.2048396947e+00 -3.2799048215e-01 3.3996750343e+00 5.1100000000e-04 0.0000e+00 1.0000e+00
       11  1    4    4    0    0 -3.5082314303e+01 +3.4503997003e+00 +3.9105608272e+00 3.5467823745e+01 5.1100000000e-04 0.0000e+00 -1.0000e+00
       12  1    4    4    0    0 -4.9200576017e+00 +2.4450450190e+00 +7.0268868268e+00 8.9197730031e+00 0.0000000000e+00 0.0000e+00 -1.0000e+00
      -12  1    3    3    0    0 +4.1088288501e+01 -9.1002844140e+00 -1.0609457172e+01 4.3400728218e+01 0.0000000000e+00 0.0000e+00 1.0000e+00
</event>
<event>
 8      4 +3.7482383e-04 9.11880000e+01 7.81616400e-03 1.18400000e-01
      -11 -1    0    0    0    0 +0.0000000000e+00 +0.0000000000e+00 +4.5593999997e+01 4.5594000000e+01 5.1100000000e-04 0.0000e+00 -1.0000e+00
       11 -1    0    0    0    0 -0.0000000000e+00 -0.0000000000e+00 -4.5593999997e+01 4.5594000000e+01 5.1100000000e-04 0.0000e+00 1.0000e+00
       23  2    1    2    0    0 +7.1054273576e-15 +0.0000000000e+00 -2.6645352591e-15 9.1188000000e+01 9.1188000000e+01 4.6476e-14 0.0000e+00
 -9990012  2    3    3    0    0 +4.3014366441e+01 +3.6938893969e+00 +4.4432542298e+00 4.7787273655e+01 2.0000011901e+01 3.2070e-01 0.0000e+00
      -11  1    4    4    0    0 +1.6030200230e+01 -5.3241223809e-01 -7.5160285628e+00 1.7712748738e+01 5.1100000000e-04 0.0000e+00 1.0000e+00
       11  1    4    4    0    0 +2.6925815213e+01 +3.8335251681e+00 +1.1786216208e+01 2.9641361860e+01 5.1100000000e-04 0.0000e+00 -1.0000e+00
      -12  1    4    4    0    0 +5.8350996597e-02 +3.9277646683e-01 +1.7306658426e-01 4.3316305739e-01 0.0000000000e+00 0.0000e+00 1.0000e+00
       12  1    3    3    0    0 -4.3014366441e+01 -3.6938893969e+00 -4.4432542298e+00 4.3400726345e+01 0.0000000000e+00 0.0000e+00 -1.0000e+00
</event>
<event>
 8      4 +3.7482383e-04 9.11880000e+01 7.81616400e-03 1.18400000e-01
      -11 -1    0    0    0    0 +0.0000000000e+00 +0.0000000000e+00 +4.5593999997e+01 4.5594000000e+01 5.1100000000e-04 0.0000e+00 -1.0000e+00
       11 -1    0    0    0    0 -0.0000000000e+00 -0.0000000000e+00 -4.5593999997e+01 4.5594000000e+01 5.1100000000e-04 0.0000e+00 1.0000e+00
       23  2    1    2    0    0 +0.0000000000e+00 +0.0000000000e+00 +0.0000000000e+00 9.1188000000e+01 9.1188000000e+01 4.6649e-14 0.0000e+00
 -9990012  2    3    3    0    0 +3.6931307962e+01 +1.7606148557e+01 -1.4481894504e+01 4.7787271398e+01 2.0000001610e+01 4.0626e-01 0.0000e+00
      -11  1    4    4    0    0 +2.2744553689e+01 +1.4611307368e+01 -9.1635388468e+00 2.8544272104e+01 5.1100000000e-04 0.0000e+00 1.0000e+00
       11  1    4    4    0    0 +1.0503097768e+01 +7.3206678996e+00 -3.9611313322e+00 1.3401410482e+01 5.1100000000e-04 0.0000e+00 -1.0000e+00
      -12  1    4    4    0    0 +3.6836565050e+00 -4.3258267099e+00 -1.3572243247e+00 5.8415888112e+00 0.0000000000e+00 0.0000e+00 1.0000e+00
       12  1    3    3    0    0 -3.6931307962e+01 -1.7606148557e+01 +1.4481894504e+01 4.3400728602e+01 0.0000000000e+00 0.0000e+00 -1.0000e+00
</event>
<event>
 8      4 +3.7482383e-04 9.11880000e+01 7.81616400e-03 1.18400000e-01
      -11 -1    0    0    0    0 +0.0000000000e+00 +0.0000000000e+00 +4.5593999997e+01 4.5594000000e+01 5.1100000000e-04 0.0000e+00 -1.0000e+00
       11 -1    0    0    0    0 -0.0000000000e+00 -0.0000000000e+00 -4.5593999997e+01 4.5594000000e+01 5.1100000000e-04 0.0000e+00 1.0000e+00
       23  2    1    2    0    0 -3.5527136788e-15 +0.0000000000e+00 +0.0000000000e+00 9.1188000000e+01 9.1188000000e+01 3.4085e-14 0.0000e+00
 -9990012  2    3    3    0    0 -2.7292063711e+01 +1.2466172203e+01 -3.1358595306e+01 4.7787266244e+01 1.9999978113e+01 2.1421e-01 0.0000e+00
      -11  1    4    4    0    0 -1.7890433417e+00 -1.6370275018e+00 +1.0880561309e+00 2.6578941900e+00 5.1100000000e-04 0.0000e+00 1.0000e+00
       11  1    4    4    0    0 -3.7862220839e+00 +5.0492540538e+00 -1.9383125391e+00 6.6020829992e+00 5.1100000000e-04 0.0000e+00 -1.0000e+00
      -12  1    4    4    0    0 -2.1716798285e+01 +9.0539456510e+00 -3.0508338898e+01 3.8527289055e+01 0.0000000000e+00 0.0000e+00 1.0000e+00
       12  1    3    3    0    0 +2.7292063711e+01 -1.2466172203e+01 +3.1358595306e+01 4.3400733756e+01 0.0000000000e+00 0.0000e+00 -1.0000e+00
</event>
<event>
 8      3 +3.7482383e-04 9.11880000e+01 7.81616400e-03 1.18400000e-01
      -11 -1    0    0    0    0 +0.0000000000e+00 +0.0000000000e+00 +4.5593999997e+01 4.5594000000e+01 5.1100000000e-04 0.0000e+00 -1.0000e+00
       11 -1    0    0    0    0 -0.0000000000e+00 -0.0000000000e+00 -4.5593999997e+01 4.5594000000e+01 5.1100000000e-04 0.0000e+00 1.0000e+00
       23  2    1    2    0    0 +8.8817841970e-16 -3.5527136788e-15 +0.0000000000e+00 9.1188000000e+01 9.1188000000e+01 5.2940e-14 0.0000e+00
  9990012  2    3    3    0    0 +5.5664496473e+00 -2.6038769517e+01 +3.4272739549e+01 4.7787267796e+01 1.9999985189e+01 2.9603e-01 0.0000e+00
      -11  1    4    4    0    0 -1.3634288700e+00 -9.6406204596e+00 +6.2526892838e+00 1.1571370907e+01 5.1100000000e-04 0.0000e+00 1.0000e+00
       11  1    4    4    0    0 -1.3717825063e+00 -1.2606968250e+01 +1.0511220927e+01 1.6471284143e+01 5.1100000000e-04 0.0000e+00 -1.0000e+00
       12  1    4    4    0    0 +8.3016610236e+00 -3.7911808078e+00 +1.7508829339e+01 1.9744612746e+01 0.0000000000e+00 0.0000e+00 -1.0000e+00
      -12  1    3    3    0    0 -5.5664496473e+00 +2.6038769517e+01 -3.4272739549e+01 4.3400732204e+01 0.0000000000e+00 0.0000e+00 1.0000e+00
</event>
<event>
 8      4 +3.7482383e-04 9.11880000e+01 7.81616400e-03 1.18400000e-01
      -11 -1    0    0    0    0 +0.0000000000e+00 +0.0000000000e+00 +4.5593999997e+01 4.5594000000e+01 5.1100000000e-04 0.0000e+00 -1.0000e+00
       11 -1    0    0    0    0 -0.0000000000e+00 -0.0000000000e+00 -4.5593999997e+01 4.5594000000e+01 5.1100000000e-04 0.0000e+00 1.0000e+00
       23  2    1    2    0    0 +0.0000000000e+00 -1.7763568394e-15 -7.1054273576e-15 9.1188000000e+01 9.1188000000e+01 2.3510e-14 0.0000e+00
 -9990012  2    3    3    0    0 -1.2051873132e+01 -1.3499508117e+01 -3.9447924196e+01 4.7787273177e+01 2.0000009722e+01 1.7711e-01 0.0000e+00
      -11  1    4    4    0    0 -3.9546026593e-01 -9.7648895446e-01 +1.1309135330e-01 1.0595798297e+00 5.1100000000e-04 0.0000e+00 -1.0000e+00
       11  1    4    4    0    0 -2.3048725218e+00 +3.0373320202e+00 -7.5742079464e-01 3.8873525264e+00 5.1100000000e-04 0.0000e+00 1.0000e+00
      -12  1    4    4    0    0 -9.3515403444e+00 -1.5560351183e+01 -3.8803594755e+01 4.2840340821e+01 0.0000000000e+00 0.0000e+00 1.0000e+00
       12  1    3    3    0    0 +1.2051873132e+01 +1.3499508117e+01 +3.9447924196e+01 4.3400726823e+01 0.0000000000e+00 0.0000e+00 -1.0000e+00
</event>
<event>
 8      3 +3.7482383e-04 9.11880000e+01 7.81616400e-03 1.18400000e-01
      -11 -1    0    0    0    0 +0.0000000000e+00 +0.0000000000e+00 +4.5593999997e+01 4.5594000000e+01 5.1100000000e-04 0.0000e+00 -1.0000e+00
       11 -1    0    0    0    0 -0.0000000000e+00 -0.0000000000e+00 -4.5593999997e+01 4.5594000000e+01 5.1100000000e-04 0.0000e+00 1.0000e+00
       23  2    1    2    0    0 +0.0000000000e+00 +8.8817841970e-16 +0.0000000000e+00 9.1188000000e+01 9.1188000000e+01 1.7108e-13 0.0000e+00
  9990012  2    3    3    0    0 +2.2404595412e+01 +2.6633074876e+00 +3.7075180993e+01 4.7787214892e+01 1.9999743975e+01 8.5170e-02 0.0000e+00
      -11  1    4    4    0    0 +5.9135973332e-01 -7.5284995943e-01 +1.1587354597e+01 1.1626834316e+01 5.1100000000e-04 0.0000e+00 1.0000e+00
       11  1    4    4    0    0 +9.4111512457e+00 -3.2295049510e+00 +1.7087104986e+01 1.9772926618e+01 5.1100000000e-04 0.0000e+00 -1.0000e+00
       12  1    4    4    0    0 +1.2402084433e+01 +6.6456623980e+00 +8.4007214111e+00 1.6387453958e+01 0.0000000000e+00 0.0000e+00 -1.0000e+00
      -12  1    3    3    0    0 -2.2404595412e+01 -2.6633074876e+00 -3.7075180993e+01 4.3400785108e+01 0.0000000000e+00 0.0000e+00 1.0000e+00
</event>
<event>
 8      3 +3.7482383e-04 9.11880000e+01 7.81616400e-03 1.18400000e-01
      -11 -1    0    0    0    0 +0.0000000000e+00 +0.0000000000e+00 +4.5593999997e+01 4.5594000000e+01 5.1100000000e-04 0.0000e+00 -1.0000e+00
       11 -1    0    0    0    0 -0.0000000000e+00 -0.0000000000e+00 -4.5593999997e+01 4.5594000000e+01 5.1100000000e-04 0.0000e+00 1.0000e+00
       23  2    1    2    0    0 +0.0000000000e+00 -4.4408920985e-16 +1.7763568394e-15 9.1188000000e+01 9.1188000000e+01 3.3183e-13 0.0000e+00
  9990012  2    3    3    0    0 -4.0736984602e+01 +2.9092450848e+00 +1.4685285413e+01 4.7787271560e+01 2.0000002351e+01 3.4085e-02 0.0000e+00
      -11  1    4    4    0    0 -2.1612111004e+00 -8.2945090658e-01 -1.3132467596e+00 2.6614731897e+00 5.1100000000e-04 0.0000e+00 1.0000e+00
       11  1    4    4    0    0 -1.9235556807e+01 +6.8272324722e+00 +1.5333771423e+01 2.5529243922e+01 5.1100000000e-04 0.0000e+00 -1.0000e+00
       12  1    4    4    0    0 -1.9340216695e+01 -3.0885364809e+00 +6.6476074942e-01 1.9596554448e+01 0.0000000000e+00 0.0000e+00 -1.0000e+00
      -12  1    3    3    0    0 +4.0736984602e+01 -2.9092450848e+00 -1.4685285413e+01 4.3400728440e+01 0.0000000000e+00 0.0000e+00 1.0000e+00
</event>
<event>
 8      4 +3.7482383e-04 9.11880000e+01 7.81616400e-03 1.18400000e-01
      -11 -1    0    0    0    0 +0.0000000000e+00 +0.0000000000e+00 +4.5593999997e+01 4.5594000000e+01 5.1100000000e-04 0.0000e+00 -1.0000e+00
       11 -1    0    0    0    0 -0.0000000000e+00 -0.0000000000e+00 -4.5593999997e+01 4.5594000000e+01 5.1100000000e-04 0.0000e+00 1.0000e+00
       23  2    1    2    0    0 -7.1054273576e-15 +3.5527136788e-15 +0.0000000000e+00 9.1188000000e+01 9.1188000000e+01 2.5153e-14 0.0000e+00
 -9990012  2    3    3    0    0 +3.2845895619e+01 -2.5181333940e+01 -1.3064092251e+01 4.7787274841e+01 2.0000017309e+01 5.7255e-01 0.0000e+00
      -11  1    4    4    0    0 +1.9339954598e+01 -1.9031071029e+01 -9.4650565896e+00 2.8736784873e+01 5.1100000000e-04 0.0000e+00 1.0000e+00
       11  1    4    4    0    0 +3.4061866928e+00 -1.2425350115e+00 -6.5088531025e+00 7.4505818573e+00 5.1100000000e-04 0.0000e+00 -1.0000e+00
      -12  1    4    4    0    0 +1.0099754328e+01 -4.9077278996e+00 +2.9098174407e+00 1.1599908110e+01 0.0000000000e+00 0.0000e+00 1.0000e+00
       12  1    3    3    0    0 -3.2845895619e+01 +2.5181333940e+01 +1.3064092251e+01 4.3400725159e+01 0.0000000000e+00 0.0000e+00 -1.0000e+00
</event>
<event>
 8      3 +3.7482383e-04 9.11880000e+01 7.81616400e-03 1.18400000e-01
      -11 -1    0    0    0    0 +0.0000000000e+00 +0.0000000000e+00 +4.5593999997e+01 4.5594000000e+01 5.1100000000e-04 0.0000e+00 -1.0000e+00
       11 -1    0    0    0    0 -0.0000000000e+00 -0.0000000000e+00 -4.5593999997e+01 4.5594000000e+01 5.1100000000e-04 0.0000e+00 1.0000e+00
       23  2    1    2    0    0 -1.7763568394e-15 +0.0000000000e+00 +0.0000000000e+00 9.1188000000e+01 9.1188000000e+01 4.7850e-14 0.0000e+00
  9990012  2    3    3    0    0 -1.5424402290e+01 -1.8021534254e+01 +3.6344671185e+01 4.7787274125e+01 2.0000014047e+01 2.2358e-01 0.0000e+00
      -11  1    4    4    0    0 +8.5400147401e-01 +9.7657707834e-01 -8.0888502236e-01 1.5288284888e+00 5.1100000000e-04 0.0000e+00 1.0000e+00
       11  1    4    4    0    0 -4.8034680684e+00 +4.7649273750e-01 +8.3460665502e+00 9.6414302847e+00 5.1100000000e-04 0.0000e+00 -1.0000e+00
       12  1    4    4    0    0 -1.1474935696e+01 -1.9474604070e+01 +2.8807489658e+01 3.6617015352e+01 0.0000000000e+00 0.0000e+00 -1.0000e+00
      -12  1    3    3    0    0 +1.5424402290e+01 +1.8021534254e+01 -3.6344671185e+01 4.3400725875e+01 0.0000000000e+00 0.0000e+00 1.0000e+00
</event>
<event>
 8      3 +3.7482383e-04 9.11880000e+01 7.81616400e-03 1.18400000e-01
      -11 -1    0    0    0    0 +0.0000000000e+00 +0.0000000000e+00 +4.5593999997e+01 4.5594000000e+01 5.1100000000e-04 0.0000e+00 1.0000e+00
       11 -1    0    0    0    0 -0.0000000000e+00 -0.0000000000e+00 -4.5593999997e+01 4.5594000000e+01 5.1100000000e-04 0.0000e+00 -1.0000e+00
       23  2    1    2    0    0 -8.8817841970e-16 +0.0000000000e+00 +8.8817841970e-16 9.1188000000e+01 9.1188000000e+01 4.2532e-14 0.0000e+00
  9990012  2    3    3    0    0 +6.5140538626e+00 -4.2239941162e+01 -7.5485200196e+00 4.7787243307e+01 1.9999873532e+01 5.6284e-01 0.0000e+00
      -11  1    4    4    0    0 +1.9395135168e+00 -2.3048252606e-01 +8.5766151187e-01 2.1331709746e+00 5.1100000000e-04 0.0000e+00 1.0000e+00
       11  1    4    4    0    0 +5.3482384064e+00 -3.8519724379e+01 -1.1886396994e+01 4.0665209381e+01 5.1100000000e-04 0.0000e+00 -1.0000e+00
       12  1    4    4    0    0 -7.7369806061e-01 -3.4897342569e+00 +3.4802154628e+00 4.9888629507e+00 0.0000000000e+00 0.0000e+00 -1.0000e+00
      -12  1    3    3    0    0 -6.5140538626e+00 +4.2239941162e+01 +7.5485200196e+00 4.3400756693e+01 0.0000000000e+00 0.0000e+00 1.0000e+00
</event>
<event>
 8      3 +3.7482383e-04 9.11880000e+01 7.81616400e-03 1.18400000e-01
      -11 -1    0    0    0    0 +0.0000000000e+00 +0.0000000000e+00 +4.5593999997e+01 4.5594000000e+01 5.1100000000e-04 0.0000e+00 -1.0000e+00
       11 -1    0    0    0    0 -0.0000000000e+00 -0.0000000000e+00 -4.5593999997e+01 4.5594000000e+01 5.1100000000e-04 0.0000e+00 1.0000e+00
       23  2    1    2    0    0 +4.4408920985e-16 +0.0000000000e+00 -7.1054273576e-15 9.1188000000e+01 9.1188000000e+01 7.3277e-14 0.0000e+00
  9990012  2    3    3    0    0 +3.7835665284e+00 -3.2941084912e+01 +2.8003441620e+01 4.7787271971e+01 2.0000004226e+01 1.1568e-01 0.0000e+00
      -11  1    4    4    0    0 +6.4690437318e+00 -1.6815490971e+01 +5.1311614774e+00 1.8733341447e+01 5.1100000000e-04 0.0000e+00 1.0000e+00
       11  1    4    4    0    0 -1.6130602377e+00 -1.0137424196e+01 +8.0929567105e+00 1.3071544715e+01 5.1100000000e-04 0.0000e+00 -1.0000e+00
       12  1    4    4    0    0 -1.0724169656e+00 -5.9881697448e+00 +1.4779323432e+01 1.5982385809e+01 0.0000000000e+00 0.0000e+00 -1.0000e+00
      -12  1    3    3    0    0 -3.7835665284e+00 +3.2941084912e+01 -2.8003441620e+01 4.3400728029e+01 0.0000000000e+00 0.0000e+00 1.0000e+00
</event>
<event>
 8      4 +3.7482383e-04 9.11880000e+01 7.81616400e-03 1.18400000e-01
      -11 -1    0    0    0    0 +0.0000000000e+00 +0.0000000000e+00 +4.5593999997e+01 4.5594000000e+01 5.1100000000e-04 0.0000e+00 1.0000e+00
       11 -1    0    0    0    0 -0.0000000000e+00 -0.0000000000e+00 -4.5593999997e+01 4.5594000000e+01 5.1100000000e-04 0.0000e+00 -1.0000e+00
       23  2    1    2    0    0 +0.0000000000e+00 +1.7763568394e-15 +7.1054273576e-15 9.1188000000e+01 9.1188000000e+01 2.0367e-13 0.0000e+00
 -9990012  2    3    3    0    0 -1.9836553161e+01 +9.2451962408e+00 +3.7478809301e+01 4.7787266809e+01 1.9999980691e+01 3.1113e-01 0.0000e+00
      -11  1    4    4    0    0 +2.7641549645e+00 +1.6200731320e-01 +4.9349138963e-01 2.8125314309e+00 5.1100000000e-04 0.0000e+00 1.0000e+00
       11  1    4    4    0    0 -5.2259312105e+00 +1.9242688423e+00 +3.5019107284e+00 6.5784912104e+00 5.1100000000e-04 0.0000e+00 -1.0000e+00
      -12  1    4    4    0    0 -1.7374776915e+01 +7.1589200854e+00 +3.3483407183e+01 3.8396244168e+01 0.0000000000e+00 0.0000e+00 1.0000e+00
       12  1    3    3    0    0 +1.9836553161e+01 -9.2451962408e+00 -3.7478809301e+01 4.3400733191e+01 0.0000000000e+00 0.0000e+00 -1.0000e+00
</event>
<event>
 8      4 +3.7482383e-04 9.11880000e+01 7.81616400e-03 1.18400000e-01
      -11 -1    0    0    0    0 +0.0000000000e+00 +0.0000000000e+00 +4.5593999997e+01 4.5594000000e+01 5.1100000000e-04 0.0000e+00 1.0000e+00
       11 -1    0    0    0    0 -0.0000000000e+00 -0.0000000000e+00 -4.5593999997e+01 4.5594000000e+01 5.1100000000e-04 0.0000e+00 -1.0000e+00
       23  2    1    2    0    0 -1.1102230246e-15 +0.0000000000e+00 +0.0000000000e+00 9.1188000000e+01 9.1188000000e+01 1.5369e-14 0.0000e+00
 -9990012  2    3    3    0    0 +1.0092418709e+00 -2.4372439809e+01 +3.5896890947e+01 4.7787295270e+01 2.0000110455e+01 1.0333e-01 0.0000e+00
      -11  1    4    4    0    0 +7.4546193315e+00 -1.3729759400e+01 +2.3635545112e+01 2.8332254332e+01 5.1100000000e-04 0.0000e+00 1.0000e+00
       11  1    4    4    0    0 -1.3589322696e+00 -1.9400887047e+00 -1.1861107262e+00 2.6490564379e+00 5.1100000000e-04 0.0000e+00 -1.0000e+00
      -12  1    4    4    0    0 -5.0864451911e+00 -8.7025917040e+00 +1.3447456561e+01 1.6805984500e+01 0.0000000000e+00 0.0000e+00 1.0000e+00
       12  1    3    3    0    0 -1.0092418709e+00 +2.4372439809e+01 -3.5896890947e+01 4.3400704730e+01 0.0000000000e+00 0.0000e+00 -1.0000e+00
</event>
<event>
 8      4 +3.7482383e-04 9.11880000e+01 7.81616400e-03 1.18400000e-01
      -11 -1    0    0    0    0 +0.0000000000e+00 +0.0000000000e+00 +4.5593999997e+01 4.5594000000e+01 5.1100000000e-04 0.0000e+00 1.0000e+00
       11 -1    0    0    0    0 -0.0000000000e+00 -0.0000000000e+00 -4.5593999997e+01 4.5594000000e+01 5.1100000000e-04 0.0000e+00 -1.0000e+00
       23  2    1    2    0    0 +0.0000000000e+00 +0.0000000000e+00 +0.0000000000e+00 9.1188000000e+01 9.1188000000e+01 2.7509e-13 0.0000e+00
 -9990012  2    3    3    0    0 +3.5446654337e+01 +1.0387487529e+01 +2.2787232759e+01 4.7787272153e+01 2.0000005053e+01 7.7707e-02 0.0000e+00
      -11  1    4    4    0    0 +3.2929634194e+01 +6.8915058178e+00 +2.1875068110e+01 4.0129443875e+01 5.1100000000e-04 0.0000e+00 1.0000e+00
       11  1    4    4    0    0 +9.8767857523e-01 +5.2092809077e+00 +7.5913297973e-01 5.3561553082e+00 5.1100000000e-04 0.0000e+00 -1.0000e+00
      -12  1    4    4    0    0 +1.5293415675e+00 -1.7132991967e+00 +1.5303166875e-01 2.3016729696e+00 0.0000000000e+00 0.0000e+00 1.0000e+00
       12  1    3    3    0    0 -3.5446654337e+01 -1.0387487529e+01 -2.2787232759e+01 4.3400727847e+01 0.0000000000e+00 0.0000e+00 -1.0000e+00
</event>
<event>
 8      4 +3.7482383e-04 9.11880000e+01 7.81616400e-03 1.18400000e-01
      -11 -1    0    0    0    0 +0.0000000000e+00 +0.0000000000e+00 +4.5593999997e+01 4.5594000000e+01 5.1100000000e-04 0.0000e+00 1.0000e+00
       11 -1    0    0    0    0 -0.0000000000e+00 -0.0000000000e+00 -4.5593999997e+01 4.5594000000e+01 5.1100000000e-04 0.0000e+00 -1.0000e+00
       23  2    1    2    0    0 +3.5527136788e-15 +0.0000000000e+00 +0.0000000000e+00 9.1188000000e+01 9.1188000000e+01 5.8433e-14 0.0000e+00
 -9990012  2    3    3    0    0 +2.3324904119e+01 +7.3585071778e+00 +3.5852816683e+01 4.7787271387e+01 2.0000001562e+01 1.4742e-01 0.0000e+00
      -11  1    4    4    0    0 +5.1286459137e+00 -8.9978639549e-01 +1.0093619968e+01 1.1357543255e+01 5.1100000000e-04 0.0000e+00 1.0000e+00
       11  1    4    4    0    0 +4.9408826970e-01 +6.5320169342e+00 +1.2945604465e+01 1.4508619634e+01 5.1100000000e-04 0.0000e+00 -1.0000e+00
      -12  1    4    4    0    0 +1.7702169936e+01 +1.7262766391e+00 +1.2813592250e+01 2.1921108499e+01 0.0000000000e+00 0.0000e+00 1.0000e+00
       12  1    3    3    0    0 -2.3324904119e+01 -7.3585071778e+00 -3.5852816683e+01 4.3400728613e+01 0.0000000000e+00 0.0000e+00 -1.0000e+00
</event>
<event>
 8      4 +3.7482383e-04 9.11880000e+01 7.81616400e-03 1.18400000e-01
      -11 -1    0    0    0    0 +0.0000000000e+00 +0.0000000000e+00 +4.5593999997e+01 4.5594000000e+01 5.1100000000e-04 0.0000e+00 -1.0000e+00
       11 -1    0    0    0    0 -0.0000000000e+00 -0.0000000000e+00 -4.5593999997e+01 4.5594000000e+01 5.1100000000e-04 0.0000e+00 1.0000e+00
       23  2    1    2    0    0 -3.5527136788e-15 +0.0000000000e+00 +0.0000000000e+00 9.1188000000e+01 9.1188000000e+01 3.9689e-14 0.0000e+00
 -9990012  2    3    3    0    0 -2.4518186310e+01 +4.1204513420e+00 -3.5573909930e+01 4.7787278268e+01 2.0000032935e+01 1.4516e-01 0.0000e+00
      -11  1    4    4    0    0 -2.0369674906e+01 -9.6859282671e-01 -1.3023305287e+01 2.4196452399e+01 5.1100000000e-04 0.0000e+00 1.0000e+00
       11  1    4    4    0    0 -2.2079597634e+00 +1.2378245750e+00 -6.6393502129e+00 7.1055096584e+00 5.1100000000e-04 0.0000e+00 -1.0000e+00
      -12  1    4    4    0    0 -1.9405516406e+00 +3.8512195937e+00 -1.5911254430e+01 1.6485316211e+01 0.0000000000e+00 0.0000e+00 1.0000e+00
       12  1    3    3    0    0 +2.4518186310e+01 -4.1204513420e+00 +3.5573909930e+01 4.3400721732e+01 0.0000000000e+00 0.0000e+00 -1.0000e+00
</event>
<event>
 8      4 +3.7482383e-04 9.11880000e+01 7.81616400e-03 1.18400000e-01
      -11 -1    0    0    0    0 +0.0000000000e+00 +0.0000000000e+00 +4.5593999997e+01 4.5594000000e+01 5.1100000000e-04 0.0000e+00 -1.0000e+00
       11 -1    0    0    0    0 -0.0000000000e+00 -0.0000000000e+00 -4.5593999997e+01 4.5594000000e+01 5.1100000000e-04 0.0000e+00 1.0000e+00
       23  2    1    2    0    0 +7.1054273576e-15 +0.0000000000e+00 +0.0000000000e+00 9.1188000000e+01 9.1188000000e+01 5.3857e-14 0.0000e+00
 -9990012  2    3    3    0    0 +3.7654019460e+01 +1.8392116297e+01 -1.1292831662e+01 4.7787272237e+01 2.0000005439e+01 1.4892e-01 0.0000e+00
      -11  1    4    4    0    0 +2.7415931515e+01 +1.9803860038e+01 -1.0672045642e+01 3.5464330414e+01 5.1100000000e-04 0.0000e+00 1.0000e+00
       11  1    4    4    0    0 +1.0608301674e+01 -2.6884716724e+00 -2.6519922096e-01 1.0946884271e+01 5.1100000000e-04 0.0000e+00 -1.0000e+00
      -12  1    4    4    0    0 -3.7021372976e-01 +1.2767279315e+00 -3.5558679959e-01 1.3760575529e+00 0.0000000000e+00 0.0000e+00 1.0000e+00
       12  1    3    3    0    0 -3.7654019460e+01 -1.8392116297e+01 +1.1292831662e+01 4.3400727763e+01 0.0000000000e+00 0.0000e+00 -1.0000e+00
</event>
<event>
 8      3 +3.7482383e-04 9.11880000e+01 7.81616400e-03 1.18400000e-01
      -11 -1    0    0    0    0 +0.0000000000e+00 +0.0000000000e+00 +4.5593999997e+01 4.5594000000e+01 5.1100000000e-04 0.0000e+00 -1.0000e+00
       11 -1    0    0    0    0 -0.0000000000e+00 -0.0000000000e+00 -4.5593999997e+01 4.5594000000e+01 5.1100000000e-04 0.0000e+00 1.0000e+00
       23  2    1    2    0    0 +0.0000000000e+00 +0.0000000000e+00 +3.5527136788e-15 9.1188000000e+01 9.1188000000e+01 6.8392e-14 0.0000e+00
  9990012  2    3    3    0    0 -8.7092123026e+00 -2.9857027724e+01 +3.0270960803e+01 4.7787267848e+01 1.9999985424e+01 4.6870e-02 0.0000e+00
      -11  1    4    4    0    0 -9.5821710281e+00 -1.8639104452e+01 +7.9685586467e+00 2.2421689132e+01 5.1100000000e-04 0.0000e+00 1.0000e+00
       11  1    4    4    0    0 -1.2178649415e+00 -4.6350094420e+00 +1.2386250540e+01 1.3281028207e+01 5.1100000000e-04 0.0000e+00 -1.0000e+00
       12  1    4    4    0    0 +2.0908236670e+00 -6.5829138300e+00 +9.9161516166e+00 1.2084550508e+01 0.0000000000e+00 0.0000e+00 -1.0000e+00
      -12  1    3    3    0    0 +8.7092123026e+00 +2.9857027724e+01 -3.0270960803e+01 4.3400732152e+01 0.0000000000e+00 0.0000e+00 1.0000e+00
</event>
<event>
 8      4 +3.7482383e-04 9.11880000e+01 7.81616400e-03 1.18400000e-01
      -11 -1    0    0    0    0 +0.0000000000e+00 +0.0000000000e+00 +4.5593999997e+01 4.5594000000e+01 5.1100000000e-04 0.0000e+00 1.0000e+00
       11 -1    0    0    0    0 -0.0000000000e+00 -0.0000000000e+00 -4.5593999997e+01 4.5594000000e+01 5.1100000000e-04 0.0000e+00 -1.0000e+00
       23  2    1    2    0    0 -1.7763568394e-15 -7.1054273576e-15 +1.7763568394e-15 9.1188000000e+01 9.1188000000e+01 4.5030e-14 0.0000e+00
 -9990012  2    3    3    0    0 +1.2619725906e+01 +3.8571322803e+01 -1.5382421381e+01 4.7787270602e+01 1.9999997984e+01 1.6249e-01 0.0000e+00
      -11  1    4    4    0    0 +2.3617165789e+00 -2.0936217443e+00 -1.2397696000e-01 3.1585325319e+00 5.1100000000e-04 0.0000e+00 1.0000e+00
       11  1    4    4    0    0 +4.8862562839e+00 +1.9095689440e+01 -7.2493273979e+00 2.1001752395e+01 5.1100000000e-04 0.0000e+00 -1.0000e+00
      -12  1    4    4    0    0 +5.3717530436e+00 +2.1569255107e+01 -8.0091170230e+00 2.3626985676e+01 0.0000000000e+00 0.0000e+00 1.0000e+00
       12  1    3    3    0    0 -1.2619725906e+01 -3.8571322803e+01 +1.5382421381e+01 4.3400729398e+01 0.0000000000e+00 0.0000e+00 -1.0000e+00
</event>
<event>
 8      4 +3.7482383e-04 9.11880000e+01 7.81616400e-03 1.18400000e-01
      -11 -1    0    0    0    0 +0.0000000000e+00 +0.0000000000e+00 +4.5593999997e+01 4.5594000000e+01 5.1100000000e-04 0.0000e+00 1.0000e+00
       11 -1    0    0    0    0 -0.0000000000e+00 -0.0000000000e+00 -4.5593999997e+01 4.5594000000e+01 5.1100000000e-04 0.0000e+00 -1.0000e+00
       23  2    1    2    0    0 +3.3306690739e-16 +0.0000000000e+00 +3.5527136788e-15 9.1188000000e+01 9.1188000000e+01 1.5966e-15 0.0000e+00
 -9990012  2    3    3    0    0 -7.4752153577e-01 -3.5783806124e+01 +2.4547586980e+01 4.7787267337e+01 1.9999983094e+01 5.8911e-01 0.0000e+00
      -11  1    4    4    0    0 -3.2386957127e+00 -3.6402958609e+00 +6.3541605511e+00 8.0072629809e+00 5.1100000000e-04 0.0000e+00 -1.0000e+00
       11  1    4    4    0    0 +3.7350816640e-01 +1.4158158772e+00 -1.5705612810e-01 1.4726540113e+00 5.1100000000e-04 0.0000e+00 1.0000e+00
      -12  1    4    4    0    0 +2.1176660105e+00 -3.3559326140e+01 +1.8350482557e+01 3.8307350344e+01 0.0000000000e+00 0.0000e+00 1.0000e+00
       12  1    3    3    0    0 +7.4752153577e-01 +3.5783806124e+01 -2.4547586980e+01 4.3400732663e+01 0.0000000000e+00 0.0000e+00 -1.0000e+00
</event>
<event>
 8      4 +3.7482383e-04 9.11880000e+01 7.81616400e-03 1.18400000e-01
      -11 -1    0    0    0    0 +0.0000000000e+00 +0.0000000000e+00 +4.5593999997e+01 4.5594000000e+01 5.1100000000e-04 0.0000e+00 1.0000e+00
       11 -1    0    0    0    0 -0.0000000000e+00 -0.0000000000e+00 -4.5593999997e+01 4.5594000000e+01 5.1100000000e-04 0.0000e+00 -1.0000e+00
       23  2    1    2    0    0 +0.0000000000e+00 -1.7763568394e-15 +0.0000000000e+00 9.1188000000e+01 9.1188000000e+01 3.3370e-14 0.0000e+00
 -9990012  2    3    3    0    0 -1.2161682629e+01 +9.4512126124e+00 +4.0575747632e+01 4.7787271434e+01 2.0000001775e+01 4.5422e-01 0.0000e+00
      -11  1    4    4    0    0 -1.0293828323e+00 +6.2335640504e+00 +2.5993337376e+00 6.8317996111e+00 5.1100000000e-04 0.0000e+00 1.0000e+00
       11  1    4    4    0    0 +3.9696301892e-02 -1.2555870451e+00 +1.5512041358e-01 1.2657555957e+00 5.1100000000e-04 0.0000e+00 -1.0000e+00
      -12  1    4    4    0    0 -1.1171996099e+01 +4.4732356070e+00 +3.7821293481e+01 3.9689716227e+01 0.0000000000e+00 0.0000e+00 1.0000e+00
       12  1    3    3    0    0 +1.2161682629e+01 -9.4512126124e+00 -4.0575747632e+01 4.3400728566e+01 0.0000000000e+00 0.0000e+00 -1.0000e+00
</event>
<event>
 8      3 +3.7482383e-04 9.11880000e+01 7.81616400e-03 1.18400000e-01
      -11 -1    0    0    0    0 +0.0000000000e+00 +0.0000000000e+00 +4.5593999997e+01 4.5594000000e+01 5.1100000000e-04 0.0000e+00 -1.0000e+00
       11 -1    0    0    0    0 -0.0000000000e+00 -0.0000000000e+00 -4.5593999997e+01 4.5594000000e+01 5.1100000000e-04 0.0000e+00 1.0000e+00
       23  2    1    2    0    0 +3.3306690739e-16 +0.0000000000e+00 -7.1054273576e-15 9.1188000000e+01 9.1188000000e+01 3.1054e-13 0.0000e+00
  9990012  2    3    3    0    0 -7.9504821017e-01 +6.6397445079e+00 +4.2882521021e+01 4.7787206022e+01 1.9999703535e+01 4.2389e-02 0.0000e+00
      -11  1    4    4    0    0 +2.3941059734e+00 +2.5442581639e+00 +4.8260110710e+00 5.9577996051e+00 5.1100000000e-04 0.0000e+00 1.0000e+00
       11  1    4    4    0    0 -9.8012632635e+00 +3.8199612963e+00 +2.6510471340e+01 2.8521254475e+01 5.1100000000e-04 0.0000e+00 -1.0000e+00
       12  1    4    4    0    0 +6.6121090800e+00 +2.7552504776e-01 +1.1546038610e+01 1.3308151942e+01 0.0000000000e+00 0.0000e+00 -1.0000e+00
      -12  1    3    3    0    0 +7.9504821017e-01 -6.6397445079e+00 -4.2882521021e+01 4.3400793978e+01 0.0000000000e+00 0.0000e+00 1.0000e+00
</event>
<event>
 8      3 +3.7482383e-04 9.11880000e+01 7.81616400e-03 1.18400000e-01
      -11 -1    0    0    0    0 +0.0000000000e+00 +0.0000000000e+00 +4.5593999997e+01 4.5594000000e+01 5.1100000000e-04 0.0000e+00 1.0000e+00
       11 -1    0    0    0    0 -0.0000000000e+00 -0.0000000000e+00 -4.5593999997e+01 4.5594000000e+01 5.1100000000e-04 0.0000e+00 -1.0000e+00
       23  2    1    2    0    0 +0.0000000000e+00 +0.0000000000e+00 +0.0000000000e+00 9.1188000000e+01 9.1188000000e+01 7.4350e-14 0.0000e+00
  9990012  2    3    3    0    0 +7.1277690246e+00 +1.2891525627e+01 -4.0824336530e+01 4.7787274460e+01 2.0000015572e+01 1.4692e-01 0.0000e+00
      -11  1    4    4    0    0 -6.2322255220e-01 -7.4368270105e-01 -1.1851216767e+01 1.1890870844e+01 5.1100000000e-04 0.0000e+00 1.0000e+00
       11  1    4    4    0    0 +1.1947308475e+00 +8.4055836071e+00 -2.5398355030e+01 2.6779799403e+01 5.1100000000e-04 0.0000e+00 -1.0000e+00
       12  1    4    4    0    0 +6.5562607293e+00 +5.2296247209e+00 -3.5747647332e+00 9.1166042127e+00 0.0000000000e+00 0.0000e+00 -1.0000e+00
      -12  1    3    3    0    0 -7.1277690246e+00 -1.2891525627e+01 +4.0824336530e+01 4.3400725540e+01 0.0000000000e+00 0.0000e+00 1.0000e+00
</event>
<event>
 8      3 +3.7482383e-04 9.11880000e+01 7.81616400e-03 1.18400000e-01
      -11 -1    0    0    0    0 +0.0000000000e+00 +0.0000000000e+00 +4.5593999997e+01 4.5594000000e+01 5.1100000000e-04 0.0000e+00 1.0000e+00
       11 -1    0    0    0    0 -0.0000000000e+00 -0.0000000000e+00 -4.5593999997e+01 4.5594000000e+01 5.1100000000e-04 0.0000e+00 -1.0000e+00
       23  2    1    2    0    0 +4.4408920985e-16 +7.1054273576e-15 +3.5527136788e-15 9.1188000000e+01 9.1188000000e+01 3.9053e-14 0.0000e+00
  9990012  2    3    3    0    0 -2.6189976381e+00 -4.0634144013e+01 -1.5020984682e+01 4.7787276629e+01 2.0000025464e+01 3.8921e-01 0.0000e+00
      -11  1    4    4    0    0 -2.9159303497e+00 -6.5986567502e+00 +2.2270808456e+00 7.5501529829e+00 5.1100000000e-04 0.0000e+00 1.0000e+00
       11  1    4    4    0    0 +2.9295995348e+00 -3.1273353880e+01 -1.8203010633e+01 3.6303647375e+01 5.1100000000e-04 0.0000e+00 -1.0000e+00
       12  1    4    4    0    0 -2.6326668232e+00 -2.7621333823e+00 +9.5494510586e-01 3.9334762716e+00 0.0000000000e+00 0.0000e+00 -1.0000e+00
      -12  1    3    3    0    0 +2.6189976381e+00 +4.0634144013e+01 +1.5020984682e+01 4.3400723371e+01 0.0000000000e+00 0.0000e+00 1.0000e+00
</event>
<event>
 8      4 +3.7482383e-04 9.11880000e+01 7.81616400e-03 1.18400000e-01
      -11 -1    0    0    0    0 +0.0000000000e+00 +0.0000000000e+00 +4.5593999997e+01 4.5594000000e+01 5.1100000000e-04 0.0000e+00 -1.0000e+00
       11 -1    0    0    0    0 -0.0000000000e+00 -0.0000000000e+00 -4.5593999997e+01 4.5594000000e+01 5.1100000000e-04 0.0000e+00 1.0000e+00
       23  2    1    2    0    0 +0.0000000000e+00 +0.0000000000e+00 +0.0000000000e+00 9.1188000000e+01 9.1188000000e+01 1.6046e-13 0.0000e+00
 -9990012  2    3    3    0    0 -2.3418337098e+01 -7.8521591465e+00 -3.5686818058e+01 4.7787263845e+01 1.9999967173e+01 8.0774e-01 0.0000e+00
      -11  1    4    4    0    0 -1.9344397756e+01 -3.3241811840e+00 -1.7198699299e+01 2.6096956966e+01 5.1100000000e-04 0.0000e+00 1.0000e+00
       11  1    4    4    0    0 +1.1014603480e+00 -3.1232300077e+00 -1.0932085371e+00 3.4875329025e+00 5.1100000000e-04 0.0000e+00 -1.0000e+00
      -12  1    4    4    0    0 -5.1753996908e+00 -1.4047479548e+00 -1.7394910222e+01 1.8202773976e+01 0.0000000000e+00 0.0000e+00 1.0000e+00
       12  1    3    3    0    0 +2.3418337098e+01 +7.8521591465e+00 +3.5686818058e+01 4.3400736155e+01 0.0000000000e+00 0.0000e+00 -1.0000e+00
</event>
<event>
 8      3 +3.7482383e-04 9.11880000e+01 7.81616400e-03 1.18400000e-01
      -11 -1    0    0    0    0 +0.0000000000e+00 +0.0000000000e+00 +4.5593999997e+01 4.5594000000e+01 5.1100000000e-04 0.0000e+00 -1.0000e+00
       11 -1    0    0    0    0 -0.0000000000e+00 -0.0000000000e+00 -4.5593999997e+01 4.5594000000e+01 5.1100000000e-04 0.0000e+00 1.0000e+00
       23  2    1    2    0    0 +0.0000000000e+00 +0.0000000000e+00 +7.1054273576e-15 9.1188000000e+01 9.1188000000e+01 1.3677e-13 0.0000e+00
  9990012  2    3    3    0    0 -1.0538601587e+01 +3.3296787853e+01 -2.5765964075e+01 4.7787272939e+01 2.0000008637e+01 4.3017e-01 0.0000e+00
      -11  1    4    4    0    0 -4.4661988143e-01 +1.1764760155e+01 -1.8646719646e+01 2.2052419474e+01 5.1100000000e-04 0.0000e+00 1.0000e+00
       11  1    4    4    0    0 -9.9478106249e+00 +1.6013248983e+01 -3.6125522790e+00 1.9194624597e+01 5.1100000000e-04 0.0000e+00 -1.0000e+00
       12  1    4    4    0    0 -1.4417108036e-01 +5.5187787152e+00 -3.5066921494e+00 6.5402288674e+00 0.0000000000e+00 0.0000e+00 -1.0000e+00
      -12  1    3    3    0    0 +1.0538601587e+01 -3.3296787853e+01 +2.5765964075e+01 4.3400727061e+01 0.0000000000e+00 0.0000e+00 1.0000e+00
</event>
<event>
 8      4 +3.7482383e-04 9.11880000e+01 7.81616400e-03 1.18400000e-01
      -11 -1    0    0    0    0 +0.0000000000e+00 +0.0000000000e+00 +4.5593999997e+01 4.5594000000e+01 5.1100000000e-04 0.0000e+00 -1.0000e+00
       11 -1    0    0    0    0 -0.0000000000e+00 -0.0000000000e+00 -4.5593999997e+01 4.5594000000e+01 5.1100000000e-04 0.0000e+00 1.0000e+00
       23  2    1    2    0    0 -4.9960036108e-16 +0.0000000000e+00 +3.5527136788e-15 9.1188000000e+01 9.1188000000e+01 6.1759e-15 0.0000e+00
 -9990012  2    3    3    0    0 -3.5056939491e-01 -3.1057488294e+01 -3.0313914915e+01 4.7787263653e+01 1.9999966299e+01 4.2867e-02 0.0000e+00
      -11  1    4    4    0    0 +3.1180904991e+00 -7.7143308298e-01 -9.2360946842e+00 9.7787035255e+00 5.1100000000e-04 0.0000e+00 1.0000e+00
       11  1    4    4    0    0 +7.3554457932e-01 -8.1302042338e+00 -1.8439378077e+00 8.3690712515e+00 5.1100000000e-04 0.0000e+00 -1.0000e+00
      -12  1    4    4    0    0 -4.2042044733e+00 -2.2155850977e+01 -1.9233882423e+01 2.9639488876e+01 0.0000000000e+00 0.0000e+00 1.0000e+00
       12  1    3    3    0    0 +3.5056939491e-01 +3.1057488294e+01 +3.0313914915e+01 4.3400736347e+01 0.0000000000e+00 0.0000e+00 -1.0000e+00
</event>
<event>
 8      3 +3.7482383e-04 9.11880000e+01 7.81616400e-03 1.18400000e-01
      -11 -1    0    0    0    0 +0.0000000000e+00 +0.0000000000e+00 +4.5593999997e+01 4.5594000000e+01 5.1100000000e-04 0.0000e+00 1.0000e+00
       11 -1    0    0    0    0 -0.0000000000e+00 -0.0000000000e+00 -4.5593999997e+01 4.5594000000e+01 5.1100000000e-04 0.0000e+00 -1.0000e+00
       23  2    1    2    0    0 +0.0000000000e+00 +0.0000000000e+00 +0.0000000000e+00 9.1188000000e+01 9.1188000000e+01 1.5020e-14 0.0000e+00
  9990012  2    3    3    0    0 -3.8946343207e+01 -1.7904699355e+01 -6.7989973065e+00 4.7787282580e+01 2.0000052596e+01 2.1785e-02 0.0000e+00
      -11  1    4    4    0    0 -3.0500818444e+00 +1.2349384096e+00 -7.5001334667e-01 3.3749951725e+00 5.1100000000e-04 0.0000e+00 1.0000e+00
       11  1    4    4    0    0 -3.6752517696e+01 -1.6356478228e+01 -3.2266387068e+00 4.0357070441e+01 5.1100000000e-04 0.0000e+00 -1.0000e+00
       12  1    4    4    0    0 +8.5625633338e-01 -2.7831595367e+00 -2.8223452531e+00 4.0552169662e+00 0.0000000000e+00 0.0000e+00 -1.0000e+00
      -12  1    3    3    0    0 +3.8946343207e+01 +1.7904699355e+01 +6.7989973065e+00 4.3400717420e+01 0.0000000000e+00 0.0000e+00 1.0000e+00
</event>
<event>
 8      3 +3.7482383e-04 9.11880000e+01 7.81616400e-03 1.18400000e-01
      -11 -1    0    0    0    0 +0.0000000000e+00 +0.0000000000e+00 +4.5593999997e+01 4.5594000000e+01 5.1100000000e-04 0.0000e+00 1.0000e+00
       11 -1    0    0    0    0 -0.0000000000e+00 -0.0000000000e+00 -4.5593999997e+01 4.5594000000e+01 5.1100000000e-04 0.0000e+00 -1.0000e+00
       23  2    1    2    0    0 +3.5527136788e-15 +1.1102230246e-16 +3.5527136788e-15 9.1188000000e+01 9.1188000000e+01 2.0503e-14 0.0000e+00
  9990012  2    3    3    0    0 -3.0809809905e+01 +7.6962274103e-01 -3.0557919692e+01 4.7787272339e+01 2.0000005904e+01 1.2695e-02 0.0000e+00
      -11  1    4    4    0    0 -8.1169304041e+00 -7.3202251435e+00 -4.9878878256e+00 1.2014544542e+01 5.1100000000e-04 0.0000e+00 -1.0000e+00
       11  1    4    4    0    0 -3.0656786203e-02 +1.3809041026e+00 -1.5042474524e+00 2.0422038679e+00 5.1100000000e-04 0.0000e+00 1.0000e+00
       12  1    4    4    0    0 -2.2662222715e+01 +6.7089437820e+00 -2.4065784414e+01 3.3730523929e+01 0.0000000000e+00 0.0000e+00 -1.0000e+00
      -12  1    3    3    0    0 +3.0809809905e+01 -7.6962274103e-01 +3.0557919692e+01 4.3400727661e+01 0.0000000000e+00 0.0000e+00 1.0000e+00
</event>
<event>
 8      3 +3.7482383e-04 9.11880000e+01 7.81616400e-03 1.18400000e-01
      -11 -1    0    0    0    0 +0.0000000000e+00 +0.0000000000e+00 +4.5593999997e+01 4.5594000000e+01 5.1100000000e-04 0.0000e+00 -1.0000e+00
       11 -1    0    0    0    0 -0.0000000000e+00 -0.0000000000e+00 -4.5593999997e+01 4.5594000000e+01 5.1100000000e-04 0.0000e+00 1.0000e+00
       23  2    1    2    0    0 -1.7763568394e-15 +0.0000000000e+00 +7.1054273576e-15 9.1188000000e+01 9.1188000000e+01 9.4836e-15 0.0000e+00
  9990012  2    3    3    0    0 -1.2728010411e+01 -1.9087744604e+01 +3.6841280628e+01 4.7787260359e+01 1.9999951279e+01 8.1085e-02 0.0000e+00
      -11  1    4    4    0    0 -1.6254785677e+01 -1.5725830737e+01 +2.8574456004e+01 3.6441999752e+01 5.1100000000e-04 0.0000e+00 1.0000e+00
       11  1    4    4    0    0 +2.5235265337e+00 -4.1386954098e+00 +8.7374302255e+00 9.9919804377e+00 5.1100000000e-04 0.0000e+00 -1.0000e+00
       12  1    4    4    0    0 +1.0032487318e+00 +7.7678154254e-01 -4.7060560121e-01 1.3532801685e+00 0.0000000000e+00 0.0000e+00 -1.0000e+00
      -12  1    3    3    0    0 +1.2728010411e+01 +1.9087744604e+01 -3.6841280628e+01 4.3400739641e+01 0.0000000000e+00 0.0000e+00 1.0000e+00
</event>
<event>
 8      3 +3.7482383e-04 9.11880000e+01 7.81616400e-03 1.18400000e-01
      -11 -1    0    0    0    0 +0.0000000000e+00 +0.0000000000e+00 +4.5593999997e+01 4.5594000000e+01 5.1100000000e-04 0.0000e+00 -1.0000e+00
       11 -1    0    0    0    0 -0.0000000000e+00 -0.0000000000e+00 -4.5593999997e+01 4.5594000000e+01 5.1100000000e-04 0.0000e+00 1.0000e+00
       23  2    1    2    0    0 +0.0000000000e+00 -8.8817841970e-16 -3.5527136788e-15 9.1188000000e+01 9.1188000000e+01 1.6161e-13 0.0000e+00
  9990012  2    3    3    0    0 -3.9806402085e+01 +6.0032787797e+00 +1.6218320219e+01 4.7787275193e+01 2.0000018914e+01 3.6012e-01 0.0000e+00
      -11  1    4    4    0    0 +6.1449515903e-01 -1.9421188894e+00 +2.1515859624e-01 2.0483465438e+00 5.1100000000e-04 0.0000e+00 1.0000e+00
       11  1    4    4    0    0 -5.2410556184e+00 -2.7324468675e+00 +3.6866162941e+00 6.9660655926e+00 5.1100000000e-04 0.0000e+00 -1.0000e+00
       12  1    4    4    0    0 -3.5179841626e+01 +1.0677844537e+01 +1.2316545328e+01 3.8772863056e+01 0.0000000000e+00 0.0000e+00 -1.0000e+00
      -12  1    3    3    0    0 +3.9806402085e+01 -6.0032787797e+00 -1.6218320219e+01 4.3400724807e+01 0.0000000000e+00 0.0000e+00 1.0000e+00
</event>
<event>
 8      4 +3.7482383e-04 9.11880000e+01 7.81616400e-03 1.18400000e-01
      -11 -1    0    0    0    0 +0.0000000000e+00 +0.0000000000e+00 +4.5593999997e+01 4.5594000000e+01 5.1100000000e-04 0.0000e+00 1.0000e+00
       11 -1    0    0    0    0 -0.0000000000e+00 -0.0000000000e+00 -4.5593999997e+01 4.5594000000e+01 5.1100000000e-04 0.0000e+00 -1.0000e+00
       23  2    1    2    0    0 +8.8817841970e-16 +0.0000000000e+00 +7.1054273576e-15 9.1188000000e+01 9.1188000000e+01 2.1732e-13 0.0000e+00
 -9990012  2    3    3    0    0 -8.7715218064e-01 -2.2657212230e+00 +4.3332674839e+01 4.7787267318e+01 1.9999983009e+01 3.3558e-02 0.0000e+00
      -11  1    4    4    0    0 +6.3738520521e+00 -6.7004332329e-01 +1.2627345515e+01 1.4160678058e+01 5.1100000000e-04 0.0000e+00 1.0000e+00
       11  1    4    4    0    0 -2.3433982052e+00 -5.0347679086e+00 +5.8789137727e+00 8.0871521841e+00 5.1100000000e-04 0.0000e+00 -1.0000e+00
      -12  1    4    4    0    0 -4.9076060276e+00 +3.4390900089e+00 +2.4826415551e+01 2.5539437076e+01 0.0000000000e+00 0.0000e+00 1.0000e+00
       12  1    3    3    0    0 +8.7715218064e-01 +2.2657212230e+00 -4.3332674839e+01 4.3400732682e+01 0.0000000000e+00 0.0000e+00 -1.0000e+00
</event>
<event>
 8      3 +3.7482383e-04 9.11880000e+01 7.81616400e-03 1.18400000e-01
      -11 -1    0    0    0    0 +0.0000000000e+00 +0.0000000000e+00 +4.5593999997e+01 4.5594000000e+01 5.1100000000e-04 0.0000e+00 1.0000e+00
       11 -1    0    0    0    0 -0.0000000000e+00 -0.0000000000e+00 -4.5593999997e+01 4.5594000000e+01 5.1100000000e-04 0.0000e+00 -1.0000e+00
       23  2    1    2    0    0 +0.0000000000e+00 +3.5527136788e-15 +0.0000000000e+00 9.1188000000e+01 9.1188000000e+01 1.5313e-15 0.0000e+00
  9990012  2    3    3    0    0 -2.3845618960e+01 -1.6273652153e+01 -3.2406453101e+01 4.7787268433e+01 1.9999988091e+01 6.5094e-01 0.0000e+00
      -11  1    4    4    0    0 -1.3012484028e+00 -8.6016732116e+00 -6.3097123504e+00 1.0746836728e+01 5.1100000000e-04 0.0000e+00 1.0000e+00
       11  1    4    4    0    0 -1.5675386637e+01 -7.2994131380e+00 -2.4484714360e+01 2.9974996512e+01 5.1100000000e-04 0.0000e+00 -1.0000e+00
       12  1    4    4    0    0 -6.8689839202e+00 -3.7256580336e-01 -1.6120263912e+00 7.0654351925e+00 0.0000000000e+00 0.0000e+00 -1.0000e+00
      -12  1    3    3    0    0 +2.3845618960e+01 +1.6273652153e+01 +3.2406453101e+01 4.3400731567e+01 0.0000000000e+00 0.0000e+00 1.0000e+00
</event>
<event>
 8      4 +3.7482383e-04 9.11880000e+01 7.81616400e-03 1.18400000e-01
      -11 -1    0    0    0    0 +0.0000000000e+00 +0.0000000000e+00 +4.5593999997e+01 4.5594000000e+01 5.1100000000e-04 0.0000e+00 -1.0000e+00
       11 -1    0    0    0    0 -0.0000000000e+00 -0.0000000000e+00 -4.5593999997e+01 4.5594000000e+01 5.1100000000e-04 0.0000e+00 1.0000e+00
       23  2    1    2    0    0 +0.0000000000e+00 +3.5527136788e-15 -8.8817841970e-16 9.1188000000e+01 9.1188000000e+01 7.0864e-14 0.0000e+00
 -9990012  2    3    3    0    0 +3.4579771646e+01 -2.5786228885e+01 -4.7886369703e+00 4.7787294347e+01 2.0000106244e+01 3.1775e-02 0.0000e+00
      -11  1    4    4    0    0 +3.1285104954e+00 +6.7359007309e-01 -1.9116388772e+00 3.7276889576e+00 5.1100000000e-04 0.0000e+00 1.0000e+00
       11  1    4    4    0    0 -7.7713053164e-01 -1.8285783002e+00 -2.8771048952e+00 3.4964787004e+00 5.1100000000e-04 0.0000e+00 -1.0000e+00
      -12  1    4    4    0    0 +3.2228391682e+01 -2.4631240657e+01 +1.0680212878e-04 4.0563126689e+01 0.0000000000e+00 0.0000e+00 1.0000e+00
       12  1    3    3    0    0 -3.4579771646e+01 +2.5786228885e+01 +4.7886369703e+00 4.3400705653e+01 0.0000000000e+00 0.0000e+00 -1.0000e+00
</event>
<event>
 8      3 +3.7482383e-04 9.11880000e+01 7.81616400e-03 1.18400000e-01
      -11 -1    0    0    0    0 +0.0000000000e+00 +0.0000000000e+00 +4.5593999997e+01 4.5594000000e+01 5.1100000000e-04 0.0000e+00 1.0000e+00
       11 -1    0    0    0    0 -0.0000000000e+00 -0.0000000000e+00 -4.5593999997e+01 4.5594000000e+01 5.1100000000e-04 0.0000e+00 -1.0000e+00
       23  2    1    2    0    0 -7.1054273576e-15 +1.7763568394e-15 +3.5527136788e-15 9.1188000000e+01 9.1188000000e+01 2.8117e-14 0.0000e+00
  9990012  2    3    3    0    0 +3.2770544046e+01 -1.5205777091e+01 -2.4052009863e+01 4.7787269678e+01 1.9999993772e+01 3.1113e-02 0.0000e+00
      -11  1    4    4    0    0 +3.1240367487e+00 +1.4577702629e+00 -8.7684931442e+00 9.4218454682e+00 5.1100000000e-04 0.0000e+00 1.0000e+00
       11  1    4    4    0    0 +1.1014378607e+01 -2.3249612708e+00 -2.2361251012e+00 1.1477030833e+01 5.1100000000e-04 0.0000e+00 -1.0000e+00
       12  1    4    4    0    0 +1.8632128690e+01 -1.4338586083e+01 -1.3047391617e+01 2.6888393377e+01 0.0000000000e+00 0.0000e+00 -1.0000e+00
      -12  1    3    3    0    0 -3.2770544046e+01 +1.5205777091e+01 +2.4052009863e+01 4.3400730322e+01 0.0000000000e+00 0.0000e+00 1.0000e+00
</event>
<event>
 8      4 +3.7482383e-04 9.11880000e+01 7.81616400e-03 1.18400000e-01
      -11 -1    0    0    0    0 +0.0000000000e+00 +0.0000000000e+00 +4.5593999997e+01 4.5594000000e+01 5.1100000000e-04 0.0000e+00 1.0000e+00
       11 -1    0    0    0    0 -0.0000000000e+00 -0.0000000000e+00 -4.5593999997e+01 4.5594000000e+01 5.1100000000e-04 0.0000e+00 -1.0000e+00
       23  2    1    2    0    0 +4.4408920985e-16 +0.0000000000e+00 -7.1054273576e-15 9.1188000000e+01 9.1188000000e+01 2.7244e-13 0.0000e+00
 -9990012  2    3    3    0    0 +1.5051344011e+00 -1.2030971358e+01 +4.1672698056e+01 4.7787268847e+01 1.9999989979e+01 2.5361e-01 0.0000e+00
      -11  1    4    4    0    0 -5.4662098312e+00 +2.0915420315e+00 +1.5706941176e+01 1.6761921112e+01 5.1100000000e-04 0.0000e+00 1.0000e+00
       11  1    4    4    0    0 +7.1951545361e+00 -7.6411548628e+00 +1.5995996829e+01 1.9131895130e+01 5.1100000000e-04 0.0000e+00 -1.0000e+00
      -12  1    4    4    0    0 -2.2381030390e-01 -6.4813585264e+00 +9.9697600508e+00 1.1893452605e+01 0.0000000000e+00 0.0000e+00 1.0000e+00
       12  1    3    3    0    0 -1.5051344011e+00 +1.2030971358e+01 -4.1672698056e+01 4.3400731153e+01 0.0000000000e+00 0.0000e+00 -1.0000e+00
</event>
<event>
 8      3 +3.7482383e-04 9.11880000e+01 7.81616400e-03 1.18400000e-01
      -11 -1    0    0    0    0 +0.0000000000e+00 +0.0000000000e+00 +4.5593999997e+01 4.5594000000e+01 5.1100000000e-04 0.0000e+00 1.0000e+00
       11 -1    0    0    0    0 -0.0000000000e+00 -0.0000000000e+00 -4.5593999997e+01 4.5594000000e+01 5.1100000000e-04 0.0000e+00 -1.0000e+00
       23  2    1    2    0    0 +0.0000000000e+00 +0.0000000000e+00 +0.0000000000e+00 9.1188000000e+01 9.1188000000e+01 8.9361e-14 0.0000e+00
  9990012  2    3    3    0    0 -3.1990841883e+01 +9.6184178961e+00 -2.7707298463e+01 4.7787282087e+01 2.0000050348e+01 7.2658e-03 0.0000e+00
      -11  1    4    4    0    0 -6.6363318525e+00 +1.1301243023e+00 -1.0239787617e+01 1.2254441321e+01 5.1100000000e-04 0.0000e+00 1.0000e+00
       11  1    4    4    0    0 -2.0716704807e+01 +9.9211264570e+00 -7.0294664536e+00 2.4021324009e+01 5.1100000000e-04 0.0000e+00 -1.0000e+00
       12  1    4    4    0    0 -4.6378052234e+00 -1.4328328632e+00 -1.0438044392e+01 1.1511516757e+01 0.0000000000e+00 0.0000e+00 -1.0000e+00
      -12  1    3    3    0    0 +3.1990841883e+01 -9.6184178961e+00 +2.7707298463e+01 4.3400717913e+01 0.0000000000e+00 0.0000e+00 1.0000e+00
</event>
<event>
 8      4 +3.7482383e-04 9.11880000e+01 7.81616400e-03 1.18400000e-01
      -11 -1    0    0    0    0 +0.0000000000e+00 +0.0000000000e+00 +4.5593999997e+01 4.5594000000e+01 5.1100000000e-04 0.0000e+00 1.0000e+00
       11 -1    0    0    0    0 -0.0000000000e+00 -0.0000000000e+00 -4.5593999997e+01 4.5594000000e+01 5.1100000000e-04 0.0000e+00 -1.0000e+00
       23  2    1    2    0    0 +0.0000000000e+00 +0.0000000000e+00 +0.0000000000e+00 9.1188000000e+01 9.1188000000e+01 8.2172e-14 0.0000e+00
 -9990012  2    3    3    0    0 +1.7578936606e+01 +3.2317356090e+01 +2.3025907219e+01 4.7787275120e+01 2.0000018581e+01 1.9852e-01 0.0000e+00
      -11  1    4    4    0    0 +1.3543744734e+01 +2.0926209641e+01 +1.0895544054e+01 2.7203899571e+01 5.1100000000e-04 0.0000e+00 1.0000e+00
       11  1    4    4    0    0 -3.6640906501e+00 +5.3378532863e+00 +2.7913971462e+00 7.0505415598e+00 5.1100000000e-04 0.0000e+00 -1.0000e+00
      -12  1    4    4    0    0 +7.6992825225e+00 +6.0532931627e+00 +9.3389660193e+00 1.3532833989e+01 0.0000000000e+00 0.0000e+00 1.0000e+00
       12  1    3    3    0    0 -1.7578936606e+01 -3.2317356090e+01 -2.3025907219e+01 4.3400724880e+01 0.0000000000e+00 0.0000e+00 -1.0000e+00
</event>
<event>
 8      4 +3.7482383e-04 9.11880000e+01 7.81616400e-03 1.18400000e-01
      -11 -1    0    0    0    0 +0.0000000000e+00 +0.0000000000e+00 +4.5593999997e+01 4.5594000000e+01 5.1100000000e-04 0.0000e+00 1.0000e+00
       11 -1    0    0    0    0 -0.0000000000e+00 -0.0000000000e+00 -4.5593999997e+01 4.5594000000e+01 5.1100000000e-04 0.0000e+00 -1.0000e+00
       23  2    1    2    0    0 +0.0000000000e+00 +4.4408920985e-16 +3.5527136788e-15 9.1188000000e+01 9.1188000000e+01 1.0616e-13 0.0000e+00
 -9990012  2    3    3    0    0 -3.6076411608e+01 -3.0770604738e+00 +2.3930044051e+01 4.7787276688e+01 2.0000025733e+01 1.3924e-01 0.0000e+00
      -11  1    4    4    0    0 -3.2775411076e+01 +3.4042819867e+00 +1.8109911057e+01 3.7600340235e+01 5.1100000000e-04 0.0000e+00 1.0000e+00
       11  1    4    4    0    0 -7.9431892464e-01 -2.4886382446e+00 -1.0583344516e-01 2.6144720013e+00 5.1100000000e-04 0.0000e+00 -1.0000e+00
      -12  1    4    4    0    0 -2.5066816074e+00 -3.9927042159e+00 +5.9259664391e+00 7.5724644518e+00 0.0000000000e+00 0.0000e+00 1.0000e+00
       12  1    3    3    0    0 +3.6076411608e+01 +3.0770604738e+00 -2.3930044051e+01 4.3400723312e+01 0.0000000000e+00 0.0000e+00 -1.0000e+00
</event>
<event>
 8      3 +3.7482383e-04 9.11880000e+01 7.81616400e-03 1.18400000e-01
      -11 -1    0    0    0    0 +0.0000000000e+00 +0.0000000000e+00 +4.5593999997e+01 4.5594000000e+01 5.1100000000e-04 0.0000e+00 -1.0000e+00
       11 -1    0    0    0    0 -0.0000000000e+00 -0.0000000000e+00 -4.5593999997e+01 4.5594000000e+01 5.1100000000e-04 0.0000e+00 1.0000e+00
       23  2    1    2    0    0 -3.5527136788e-15 +1.7763568394e-15 +7.1054273576e-15 9.1188000000e+01 9.1188000000e+01 1.3416e-15 0.0000e+00
  9990012  2    3    3    0    0 -2.4043509830e+01 +8.3051358359e+00 +3.5164722624e+01 4.7787270012e+01 1.9999995295e+01 9.6045e-02 0.0000e+00
      -11  1    4    4    0    0 -1.1428016946e+00 +4.8530496689e-01 +6.1271167393e+00 6.2516458971e+00 5.1100000000e-04 0.0000e+00 1.0000e+00
       11  1    4    4    0    0 -2.9962883240e+00 -3.3003290056e+00 +1.2773958341e+01 1.3529372758e+01 5.1100000000e-04 0.0000e+00 -1.0000e+00
       12  1    4    4    0    0 -1.9904419811e+01 +1.1120159875e+01 +1.6263647545e+01 2.8006251358e+01 0.0000000000e+00 0.0000e+00 -1.0000e+00
      -12  1    3    3    0    0 +2.4043509830e+01 -8.3051358359e+00 -3.5164722624e+01 4.3400729988e+01 0.0000000000e+00 0.0000e+00 1.0000e+00
</event>
<event>
 8      4 +3.7482383e-04 9.11880000e+01 7.81616400e-03 1.18400000e-01
      -11 -1    0    0    0    0 +0.0000000000e+00 +0.0000000000e+00 +4.5593999997e+01 4.5594000000e+01 5.1100000000e-04 0.0000e+00 -1.0000e+00
       11 -1    0    0    0    0 -0.0000000000e+00 -0.0000000000e+00 -4.5593999997e+01 4.5594000000e+01 5.1100000000e-04 0.0000e+00 1.0000e+00
       23  2    1    2    0    0 +0.0000000000e+00 -3.5527136788e-15 +0.0000000000e+00 9.1188000000e+01 9.1188000000e+01 5.1590e-14 0.0000e+00
 -9990012  2    3    3    0    0 +2.5167983897e+01 -3.0710265924e+01 -1.7523567378e+01 4.7787271202e+01 2.0000000719e+01 1.3898e-01 0.0000e+00
      -11  1    4    4    0    0 +6.0856880378e+00 -7.4758385309e+00 +2.2282060522e+00 9.8938699762e+00 5.1100000000e-04 0.0000e+00 1.0000e+00
       11  1    4    4    0    0 +3.9724057409e+00 -1.4169632815e+01 -8.7723013839e+00 1.7132185305e+01 5.1100000000e-04 0.0000e+00 -1.0000e+00
      -12  1    4    4    0    0 +1.5109890118e+01 -9.0647945778e+00 -1.0979472046e+01 2.0761215921e+01 0.0000000000e+00 0.0000e+00 1.0000e+00
       12  1    3    3    0    0 -2.5167983897e+01 +3.0710265924e+01 +1.7523567378e+01 4.3400728798e+01 0.0000000000e+00 0.0000e+00 -1.0000e+00
</event>
<event>
 8      3 +3.7482383e-04 9.11880000e+01 7.81616400e-03 1.18400000e-01
      -11 -1    0    0    0    0 +0.0000000000e+00 +0.0000000000e+00 +4.5593999997e+01 4.5594000000e+01 5.1100000000e-04 0.0000e+00 1.0000e+00
       11 -1    0    0    0    0 -0.0000000000e+00 -0.0000000000e+00 -4.5593999997e+01 4.5594000000e+01 5.1100000000e-04 0.0000e+00 -1.0000e+00
       23  2    1    2    0    0 +0.0000000000e+00 -3.5527136788e-15 +0.0000000000e+00 9.1188000000e+01 9.1188000000e+01 1.7780e-13 0.0000e+00
  9990012  2    3    3    0    0 -3.4250452004e+01 +1.3142748008e+01 -2.3190472556e+01 4.7787270686e+01 1.9999998364e+01 7.8746e-02 0.0000e+00
      -11  1    4    4    0    0 +8.8447703285e-01 -8.2561677971e-01 +9.7763582722e-01 1.5555432364e+00 5.1100000000e-04 0.0000e+00 1.0000e+00
       11  1    4    4    0    0 -1.4643718418e+01 +4.8265738026e+00 -3.6904004480e+00 1.5854127522e+01 5.1100000000e-04 0.0000e+00 -1.0000e+00
       12  1    4    4    0    0 -2.0491210619e+01 +9.1417909848e+00 -2.0477707935e+01 3.0377599927e+01 0.0000000000e+00 0.0000e+00 -1.0000e+00
      -12  1    3    3    0    0 +3.4250452004e+01 -1.3142748008e+01 +2.3190472556e+01 4.3400729314e+01 0.0000000000e+00 0.0000e+00 1.0000e+00
</event>
<event>
 8      4 +3.7482383e-04 9.11880000e+01 7.81616400e-03 1.18400000e-01
      -11 -1    0    0    0    0 +0.0000000000e+00 +0.0000000000e+00 +4.5593999997e+01 4.5594000000e+01 5.1100000000e-04 0.0000e+00 1.0000e+00
       11 -1    0    0    0    0 -0.0000000000e+00 -0.0000000000e+00 -4.5593999997e+01 4.5594000000e+01 5.1100000000e-04 0.0000e+00 -1.0000e+00
       23  2    1    2    0    0 +0.0000000000e+00 +0.0000000000e+00 +0.0000000000e+00 9.1188000000e+01 9.1188000000e+01 4.7656e-14 0.0000e+00
 -9990012  2    3    3    0    0 +4.2274390320e+01 -4.8764374499e+00 -8.5275746548e+00 4.7787271335e+01 2.0000001325e+01 1.9765e-01 0.0000e+00
      -11  1    4    4    0    0 +1.9088089869e+01 -9.0884875170e+00 +1.5980358155e+00 2.1201639063e+01 5.1100000000e-04 0.0000e+00 1.0000e+00
       11  1    4    4    0    0 +1.2316265260e+01 +2.0254142690e+00 -1.5686125071e+00 1.2579874338e+01 5.1100000000e-04 0.0000e+00 -1.0000e+00
      -12  1    4    4    0    0 +1.0870035191e+01 +2.1866357980e+00 -8.5569979633e+00 1.4005757934e+01 0.0000000000e+00 0.0000e+00 1.0000e+00
       12  1    3    3    0    0 -4.2274390320e+01 +4.8764374499e+00 +8.5275746548e+00 4.3400728665e+01 0.0000000000e+00 0.0000e+00 -1.0000e+00
</event>
<event>
 8      4 +3.7482383e-04 9.11880000e+01 7.81616400e-03 1.18400000e-01
      -11 -1    0    0    0    0 +0.0000000000e+00 +0.0000000000e+00 +4.5593999997e+01 4.5594000000e+01 5.1100000000e-04 0.0000e+00 1.0000e+00
       11 -1    0    0    0    0 -0.0000000000e+00 -0.0000000000e+00 -4.5593999997e+01 4.5594000000e+01 5.1100000000e-04 0.0000e+00 -1.0000e+00
       23  2    1    2    0    0 +0.0000000000e+00 +0.0000000000e+00 +0.0000000000e+00 9.1188000000e+01 9.1188000000e+01 7.5779e-14 0.0000e+00
 -9990012  2    3    3    0    0 -2.8611833040e+01 -1.7213937489e+01 +2.7724836128e+01 4.7787272217e+01 2.0000005345e+01 7.4932e-01 0.0000e+00
      -11  1    4    4    0    0 +1.8125867464e+00 -6.5415581076e-01 -4.3990598912e-01 1.9765900127e+00 5.1100000000e-04 0.0000e+00 1.0000e+00
       11  1    4    4    0    0 -2.8734388293e-01 +1.1417674098e+00 +8.5101508294e-01 1.4527306212e+00 5.1100000000e-04 0.0000e+00 -1.0000e+00
      -12  1    4    4    0    0 -3.0137075903e+01 -1.7701549088e+01 +2.7313727034e+01 4.4357951583e+01 0.0000000000e+00 0.0000e+00 1.0000e+00
       12  1    3    3    0    0 +2.8611833040e+01 +1.7213937489e+01 -2.7724836128e+01 4.3400727783e+01 0.0000000000e+00 0.0000e+00 -1.0000e+00
</event>
<event>
 8      3 +3.7482383e-04 9.11880000e+01 7.81616400e-03 1.18400000e-01
      -11 -1    0    0    0    0 +0.0000000000e+00 +0.0000000000e+00 +4.5593999997e+01 4.5594000000e+01 5.1100000000e-04 0.0000e+00 -1.0000e+00
       11 -1    0    0    0    0 -0.0000000000e+00 -0.0000000000e+00 -4.5593999997e+01 4.5594000000e+01 5.1100000000e-04 0.0000e+00 1.0000e+00
       23  2    1    2    0    0 -1.7763568394e-15 +0.0000000000e+00 -1.4210854715e-14 9.1188000000e+01 9.1188000000e+01 5.9379e-14 0.0000e+00
  9990012  2    3    3    0    0 +1.1389420630e+01 +5.2834228646e+00 +4.1545034338e+01 4.7787270311e+01 1.9999996654e+01 1.8457e-01 0.0000e+00
      -11  1    4    4    0    0 -4.0951995948e-01 -3.6060448005e-01 +2.1555467057e+01 2.1562372377e+01 5.1100000000e-04 0.0000e+00 1.0000e+00
       11  1    4    4    0    0 +3.6466715944e+00 +2.1298013374e+00 +1.5899064528e+01 1.6450365363e+01 5.1100000000e-04 0.0000e+00 -1.0000e+00
       12  1    4    4    0    0 +8.1522689955e+00 +3.5142260072e+00 +4.0905027519e+00 9.7745325703e+00 0.0000000000e+00 0.0000e+00 -1.0000e+00
      -12  1    3    3    0    0 -1.1389420630e+01 -5.2834228646e+00 -4.1545034338e+01 4.3400729689e+01 0.0000000000e+00 0.0000e+00 1.0000e+00
</event>
<event>
 8      4 +3.7482383e-04 9.11880000e+01 7.81616400e-03 1.18400000e-01
      -11 -1    0    0    0    0 +0.0000000000e+00 +0.0000000000e+00 +4.5593999997e+01 4.5594000000e+01 5.1100000000e-04 0.0000e+00 -1.0000e+00
       11 -1    0    0    0    0 -0.0000000000e+00 -0.0000000000e+00 -4.5593999997e+01 4.5594000000e+01 5.1100000000e-04 0.0000e+00 1.0000e+00
       23  2    1    2    0    0 +0.0000000000e+00 +0.0000000000e+00 +3.5527136788e-15 9.1188000000e+01 9.1188000000e+01 8.3495e-14 0.0000e+00
 -9990012  2    3    3    0    0 -2.5846548904e+01 -2.5895365205e+01 +2.3345427072e+01 4.7787274263e+01 2.0000014673e+01 2.9192e-02 0.0000e+00
      -11  1    4    4    0    0 +6.8565579863e-01 -5.7973632752e+00 -2.0605563736e-01 5.8414042837e+00 5.1100000000e-04 0.0000e+00 -1.0000e+00
       11  1    4    4    0    0 -1.0768147973e+01 -1.2766593256e+01 +1.5503013602e+01 2.2787767445e+01 5.1100000000e-04 0.0000e+00 1.0000e+00
      -12  1    4    4    0    0 -1.5764056730e+01 -7.3314086744e+00 +8.0484691075e+00 1.9158102534e+01 0.0000000000e+00 0.0000e+00 1.0000e+00
       12  1    3    3    0    0 +2.5846548904e+01 +2.5895365205e+01 -2.3345427072e+01 4.3400725737e+01 0.0000000000e+00 0.0000e+00 -1.0000e+00
</event>
<event>
 8      4 +3.7482383e-04 9.11880000e+01 7.81616400e-03 1.18400000e-01
      -11 -1    0    0    0    0 +0.0000000000e+00 +0.0000000000e+00 +4.5593999997e+01 4.5594000000e+01 5.1100000000e-04 0.0000e+00 -1.0000e+00
       11 -1    0    0    0    0 -0.0000000000e+00 -0.0000000000e+00 -4.5593999997e+01 4.5594000000e+01 5.1100000000e-04 0.0000e+00 1.0000e+00
       23  2    1    2    0    0 +0.0000000000e+00 -8.8817841970e-16 +0.0000000000e+00 9.1188000000e+01 9.1188000000e+01 3.4340e-14 0.0000e+00
 -9990012  2    3    3    0    0 -9.9461521391e+00 -6.2669812355e+00 -4.1778265166e+01 4.7787257651e+01 1.9999938932e+01 9.2262e-01 0.0000e+00
      -11  1    4    4    0    0 +3.0383897721e+00 +6.4485666754e-01 -9.1655048384e-01 3.2384745760e+00 5.1100000000e-04 0.0000e+00 1.0000e+00
       11  1    4    4    0    0 -3.4353724676e+00 -4.3529471570e+00 -5.4201162262e+00 7.7541984182e+00 5.1100000000e-04 0.0000e+00 -1.0000e+00
      -12  1    4    4    0    0 -9.5491694436e+00 -2.5588907461e+00 -3.5441598456e+01 3.6794584656e+01 0.0000000000e+00 0.0000e+00 1.0000e+00
       12  1    3    3    0    0 +9.9461521391e+00 +6.2669812355e+00 +4.1778265166e+01 4.3400742349e+01 0.0000000000e+00 0.0000e+00 -1.0000e+00
</event>
<event>
 8      4 +3.7482383e-04 9.11880000e+01 7.81616400e-03 1.18400000e-01
      -11 -1    0    0    0    0 +0.0000000000e+00 +0.0000000000e+00 +4.5593999997e+01 4.5594000000e+01 5.1100000000e-04 0.0000e+00 -1.0000e+00
       11 -1    0    0    0    0 -0.0000000000e+00 -0.0000000000e+00 -4.5593999997e+01 4.5594000000e+01 5.1100000000e-04 0.0000e+00 1.0000e+00
       23  2    1    2    0    0 -3.5527136788e-15 +0.0000000000e+00 +0.0000000000e+00 9.1188000000e+01 9.1188000000e+01 1.2853e-13 0.0000e+00
 -9990012  2    3    3    0    0 +1.9618786757e+01 -3.4660530291e+01 -1.7244574552e+01 4.7787256857e+01 1.9999935314e+01 1.5246e-01 0.0000e+00
      -11  1    4    4    0    0 +2.1774821748e+01 -2.1322964576e+01 -1.4659566585e+01 3.3818849377e+01 5.1100000000e-04 0.0000e+00 1.0000e+00
       11  1    4    4    0    0 -9.0028000708e-01 -2.3047576089e+00 +3.0863269945e-01 2.4935248407e+00 5.1100000000e-04 0.0000e+00 -1.0000e+00
      -12  1    4    4    0    0 -1.2557549834e+00 -1.1032808106e+01 -2.8936406658e+00 1.1474882639e+01 0.0000000000e+00 0.0000e+00 1.0000e+00
       12  1    3    3    0    0 -1.9618786757e+01 +3.4660530291e+01 +1.7244574552e+01 4.3400743143e+01 0.0000000000e+00 0.0000e+00 -1.0000e+00
</event>
<event>
 8      3 +3.7482383e-04 9.11880000e+01 7.81616400e-03 1.18400000e-01
      -11 -1    0    0    0    0 +0.0000000000e+00 +0.0000000000e+00 +4.5593999997e+01 4.5594000000e+01 5.1100000000e-04 0.0000e+00 1.0000e+00
       11 -1    0    0    0    0 -0.0000000000e+00 -0.0000000000e+00 -4.5593999997e+01 4.5594000000e+01 5.1100000000e-04 0.0000e+00 -1.0000e+00
       23  2    1    2    0    0 +7.1054273576e-15 +0.0000000000e+00 -3.5527136788e-15 9.1188000000e+01 9.1188000000e+01 2.5566e-14 0.0000e+00
  9990012  2    3    3    0    0 +3.6563577506e+01 +1.9690227884e+00 -2.3299177644e+01 4.7787263490e+01 1.9999965554e+01 1.1634e-02 0.0000e+00
      -11  1    4    4    0    0 +1.3818807790e+01 +7.7074874934e+00 -6.7530236331e+00 1.7203724616e+01 5.1100000000e-04 0.0000e+00 1.0000e+00
       11  1    4    4    0    0 +9.9045952308e+00 -2.9764725715e+00 -1.2422078600e+00 1.0416500194e+01 5.1100000000e-04 0.0000e+00 -1.0000e+00
       12  1    4    4    0    0 +1.2840174485e+01 -2.7619921335e+00 -1.5303946151e+01 2.0167038680e+01 0.0000000000e+00 0.0000e+00 -1.0000e+00
      -12  1    3    3    0    0 -3.6563577506e+01 -1.9690227884e+00 +2.3299177644e+01 4.3400736510e+01 0.0000000000e+00 0.0000e+00 1.0000e+00
</event>
<event>
 8      3 +3.7482383e-04 9.11880000e+01 7.81616400e-03 1.18400000e-01
      -11 -1    0    0    0    0 +0.0000000000e+00 +0.0000000000e+00 +4.5593999997e+01 4.5594000000e+01 5.1100000000e-04 0.0000e+00 -1.0000e+00
       11 -1    0    0    0    0 -0.0000000000e+00 -0.0000000000e+00 -4.5593999997e+01 4.5594000000e+01 5.1100000000e-04 0.0000e+00 1.0000e+00
       23  2    1    2    0    0 +0.0000000000e+00 +0.0000000000e+00 +0.0000000000e+00 9.1188000000e+01 9.1188000000e+01 1.8831e-13 0.0000e+00
  9990012  2    3    3    0    0 -1.0608348433e+01 +3.5235189247e+01 +2.3012342737e+01 4.7787268025e+01 1.9999986232e+01 2.9809e-01 0.0000e+00
      -11  1    4    4    0    0 -6.5014985442e+00 +2.1529294969e+01 +8.2697551240e+00 2.3961821201e+01 5.1100000000e-04 0.0000e+00 1.0000e+00
       11  1    4    4    0    0 -7.4755700663e+00 +7.2619424363e+00 +1.2373510544e+01 1.6177877463e+01 5.1100000000e-04 0.0000e+00 -1.0000e+00
       12  1    4    4    0    0 +3.3687201774e+00 +6.4439518411e+00 +2.3690770691e+00 7.6475693605e+00 0.0000000000e+00 0.0000e+00 -1.0000e+00
      -12  1    3    3    0    0 +1.0608348433e+01 -3.5235189247e+01 -2.3012342737e+01 4.3400731975e+01 0.0000000000e+00 0.0000e+00 1.0000e+00
</event>
<event>
 8      4 +3.7482383e-04 9.11880000e+01 7.81616400e-03 1.18400000e-01
      -11 -1    0    0    0    0 +0.0000000000e+00 +0.0000000000e+00 +4.5593999997e+01 4.5594000000e+01 5.1100000000e-04 0.0000e+00 -1.0000e+00
       11 -1    0    0    0    0 -0.0000000000e+00 -0.0000000000e+00 -4.5593999997e+01 4.5594000000e+01 5.1100000000e-04 0.0000e+00 1.0000e+00
       23  2    1    2    0    0 +3.5527136788e-15 +0.0000000000e+00 +0.0000000000e+00 9.1188000000e+01 9.1188000000e+01 2.1934e-14 0.0000e+00
 -9990012  2    3    3    0    0 -2.5045209281e+01 +1.8821351835e+01 -3.0035283119e+01 4.7787262392e+01 1.9999960552e+01 5.2425e-02 0.0000e+00
      -11  1    4    4    0    0 -1.7233214861e+01 +1.7364567200e+01 -2.7108016056e+01 3.6515153338e+01 5.1100000000e-04 0.0000e+00 1.0000e+00
       11  1    4    4    0    0 +1.4399046838e+00 -1.4769210694e-01 -3.9123916566e-02 1.4479880520e+00 5.1100000000e-04 0.0000e+00 -1.0000e+00
      -12  1    4    4    0    0 -9.2518991039e+00 +1.6044767412e+00 -2.8881431461e+00 9.8241210027e+00 0.0000000000e+00 0.0000e+00 1.0000e+00
       12  1    3    3    0    0 +2.5045209281e+01 -1.8821351835e+01 +3.0035283119e+01 4.3400737608e+01 0.0000000000e+00 0.0000e+00 -1.0000e+00
</event>
<event>
 8      3 +3.7482383e-04 9.11880000e+01 7.81616400e-03 1.18400000e-01
      -11 -1    0    0    0    0 +0.0000000000e+00 +0.0000000000e+00 +4.5593999997e+01 4.5594000000e+01 5.1100000000e-04 0.0000e+00 -1.0000e+00
       11 -1    0    0    0    0 -0.0000000000e+00 -0.0000000000e+00 -4.5593999997e+01 4.5594000000e+01 5.1100000000e-04 0.0000e+00 1.0000e+00
       23  2    1    2    0    0 +0.0000000000e+00 +3.5527136788e-15 +0.0000000000e+00 9.1188000000e+01 9.1188000000e+01 1.6559e-13 0.0000e+00
  9990012  2    3    3    0    0 +1.7835561787e+01 -1.6475414183e+01 +3.5973280642e+01 4.7787268936e+01 1.9999990386e+01 1.9933e-01 0.0000e+00
      -11  1    4    4    0    0 +1.5364041581e+00 -1.0846897470e+01 +4.4156874021e+00 1.1811605224e+01 5.1100000000e-04 0.0000e+00 -1.0000e+00
       11  1    4    4    0    0 +1.1493367336e+01 -4.1929909015e+00 +2.3213618590e+01 2.6240250641e+01 5.1100000000e-04 0.0000e+00 1.0000e+00
       12  1    4    4    0    0 +4.8057902919e+00 -1.4355258111e+00 +8.3439746506e+00 9.7354130705e+00 0.0000000000e+00 0.0000e+00 -1.0000e+00
      -12  1    3    3    0    0 -1.7835561787e+01 +1.6475414183e+01 -3.5973280642e+01 4.3400731064e+01 0.0000000000e+00 0.0000e+00 1.0000e+00
</event>
<event>
 8      3 +3.7482383e-04 9.11880000e+01 7.81616400e-03 1.18400000e-01
      -11 -1    0    0    0    0 +0.0000000000e+00 +0.0000000000e+00 +4.5593999997e+01 4.5594000000e+01 5.1100000000e-04 0.0000e+00 -1.0000e+00
       11 -1    0    0    0    0 -0.0000000000e+00 -0.0000000000e+00 -4.5593999997e+01 4.5594000000e+01 5.1100000000e-04 0.0000e+00 1.0000e+00
       23  2    1    2    0    0 +0.0000000000e+00 -1.7763568394e-15 -7.1054273576e-15 9.1188000000e+01 9.1188000000e+01 4.0770e-14 0.0000e+00
  9990012  2    3    3    0    0 -1.0500618005e+01 +1.3626270883e+01 +3.9845764336e+01 4.7787272216e+01 2.0000005341e+01 1.4620e-01 0.0000e+00
      -11  1    4    4    0    0 +2.8753301410e-01 +5.1259889764e+00 +1.0855501501e+01 1.2008345070e+01 5.1100000000e-04 0.0000e+00 1.0000e+00
       11  1    4    4    0    0 -2.0416538639e+00 +9.4757138988e+00 +6.6153351219e+00 1.1735423445e+01 5.1100000000e-04 0.0000e+00 -1.0000e+00
       12  1    4    4    0    0 -8.7464971553e+00 -9.7543199222e-01 +2.2374927713e+01 2.4043503701e+01 0.0000000000e+00 0.0000e+00 -1.0000e+00
      -12  1    3    3    0    0 +1.0500618005e+01 -1.3626270883e+01 -3.9845764336e+01 4.3400727784e+01 0.0000000000e+00 0.0000e+00 1.0000e+00
</event>
<event>
 8      4 +3.7482383e-04 9.11880000e+01 7.81616400e-03 1.18400000e-01
      -11 -1    0    0    0    0 +0.0000000000e+00 +0.0000000000e+00 +4.5593999997e+01 4.5594000000e+01 5.1100000000e-04 0.0000e+00 -1.0000e+00
       11 -1    0    0    0    0 -0.0000000000e+00 -0.0000000000e+00 -4.5593999997e+01 4.5594000000e+01 5.1100000000e-04 0.0000e+00 1.0000e+00
       23  2    1    2    0    0 -8.8817841970e-16 +7.1054273576e-15 -1.7763568394e-15 9.1188000000e+01 9.1188000000e+01 4.6838e-14 0.0000e+00
 -9990012  2    3    3    0    0 -5.3521987783e+00 +4.1677036542e+01 -1.0862914257e+01 4.7787259075e+01 1.9999945426e+01 6.5066e-04 0.0000e+00
      -11  1    4    4    0    0 -3.0365415997e+00 +1.2595836962e+01 +2.8773967560e+00 1.3272343652e+01 5.1100000000e-04 0.0000e+00 1.0000e+00
       11  1    4    4    0    0 +1.4081088620e+00 +3.1681327208e+00 +1.9659601249e+00 3.9855783743e+00 5.1100000000e-04 0.0000e+00 -1.0000e+00
      -12  1    4    4    0    0 -3.7237660405e+00 +2.5913066859e+01 -1.5706271138e+01 3.0529337048e+01 0.0000000000e+00 0.0000e+00 1.0000e+00
       12  1    3    3    0    0 +5.3521987783e+00 -4.1677036542e+01 +1.0862914257e+01 4.3400740925e+01 0.0000000000e+00 0.0000e+00 -1.0000e+00
</event>
<event>
 8      4 +3.7482383e-04 9.11880000e+01 7.81616400e-03 1.18400000e-01
      -11 -1    0    0    0    0 +0.0000000000e+00 +0.0000000000e+00 +4.5593999997e+01 4.5594000000e+01 5.1100000000e-04 0.0000e+00 1.0000e+00
       11 -1    0    0    0    0 -0.0000000000e+00 -0.0000000000e+00 -4.5593999997e+01 4.5594000000e+01 5.1100000000e-04 0.0000e+00 -1.0000e+00
       23  2    1    2    0    0 +0.0000000000e+00 +7.1054273576e-15 +0.0000000000e+00 9.1188000000e+01 9.1188000000e+01 1.4438e-14 0.0000e+00
 -9990012  2    3    3    0    0 +2.0127627446e+01 +3.7379775692e+01 -9.0141196478e+00 4.7787269932e+01 1.9999994929e+01 2.2883e-01 0.0000e+00
      -11  1    4    4    0    0 +6.3323526858e+00 +6.4828079657e+00 +1.7945664156e-01 9.0640881839e+00 5.1100000000e-04 0.0000e+00 1.0000e+00
       11  1    4    4    0    0 +1.6092102798e+01 +1.8715865672e+01 -2.9944524488e+00 2.4863751649e+01 5.1100000000e-04 0.0000e+00 -1.0000e+00
      -12  1    4    4    0    0 -2.2968280384e+00 +1.2181102054e+01 -6.1991238406e+00 1.3859430100e+01 0.0000000000e+00 0.0000e+00 1.0000e+00
       12  1    3    3    0    0 -2.0127627446e+01 -3.7379775692e+01 +9.0141196478e+00 4.3400730068e+01 0.0000000000e+00 0.0000e+00 -1.0000e+00
</event>
<event>
 8      4 +3.7482383e-04 9.11880000e+01 7.81616400e-03 1.18400000e-01
      -11 -1    0    0    0    0 +0.0000000000e+00 +0.0000000000e+00 +4.5593999997e+01 4.5594000000e+01 5.1100000000e-04 0.0000e+00 1.0000e+00
       11 -1    0    0    0    0 -0.0000000000e+00 -0.0000000000e+00 -4.5593999997e+01 4.5594000000e+01 5.1100000000e-04 0.0000e+00 -1.0000e+00
       23  2    1    2    0    0 +0.0000000000e+00 -7.1054273576e-15 +0.0000000000e+00 9.1188000000e+01 9.1188000000e+01 2.0988e-13 0.0000e+00
 -9990012  2    3    3    0    0 +1.8843128199e+00 -4.3331903475e+01 +1.5547388436e+00 4.7787289102e+01 2.0000082332e+01 9.3234e-02 0.0000e+00
      -11  1    4    4    0    0 -1.0879665357e+00 -1.5495199543e+00 +1.5793902795e+00 2.4655946926e+00 5.1100000000e-04 0.0000e+00 1.0000e+00
       11  1    4    4    0    0 +9.5018425410e-01 -7.0744337732e-01 -3.8417489425e+00 4.0202439537e+00 5.1100000000e-04 0.0000e+00 -1.0000e+00
      -12  1    4    4    0    0 +2.0220951015e+00 -4.1074940143e+01 +3.8170975066e+00 4.1301450456e+01 0.0000000000e+00 0.0000e+00 1.0000e+00
       12  1    3    3    0    0 -1.8843128199e+00 +4.3331903475e+01 -1.5547388436e+00 4.3400710898e+01 0.0000000000e+00 0.0000e+00 -1.0000e+00
</event>
<event>
 8      3 +3.7482383e-04 9.11880000e+01 7.81616400e-03 1.18400000e-01
      -11 -1    0    0    0    0 +0.0000000000e+00 +0.0000000000e+00 +4.5593999997e+01 4.5594000000e+01 5.1100000000e-04 0.0000e+00 -1.0000e+00
       11 -1    0    0    0    0 -0.0000000000e+00 -0.0000000000e+00 -4.5593999997e+01 4.5594000000e+01 5.1100000000e-04 0.0000e+00 1.0000e+00
       23  2    1    2    0    0 +3.5527136788e-15 +0.0000000000e+00 +0.0000000000e+00 9.1188000000e+01 9.1188000000e+01 1.6310e-13 0.0000e+00
  9990012  2    3    3    0    0 -1.8457987192e+01 -1.8826771579e+01 +3.4474325582e+01 4.7787265633e+01 1.9999975328e+01 2.0350e-01 0.0000e+00
      -11  1    4    4    0    0 -1.3275360659e+01 -3.9877225321e+00 +1.0371969114e+01 1.7312275275e+01 5.1100000000e-04 0.0000e+00 1.0000e+00
       11  1    4    4    0    0 -7.1224481016e+00 -5.2461003231e+00 +1.2081078562e+01 1.4973419617e+01 5.1100000000e-04 0.0000e+00 -1.0000e+00
       12  1    4    4    0    0 +1.9398215691e+00 -9.5929487240e+00 +1.2021277906e+01 1.5501570741e+01 0.0000000000e+00 0.0000e+00 -1.0000e+00
      -12  1    3    3    0    0 +1.8457987192e+01 +1.8826771579e+01 -3.4474325582e+01 4.3400734367e+01 0.0000000000e+00 0.0000e+00 1.0000e+00
</event>
<event>
 8      4 +3.7482383e-04 9.11880000e+01 7.81616400e-03 1.18400000e-01
      -11 -1    0    0    0    0 +0.0000000000e+00 +0.0000000000e+00 +4.5593999997e+01 4.5594000000e+01 5.1100000000e-04 0.0000e+00 -1.0000e+00
       11 -1    0    0    0    0 -0.0000000000e+00 -0.0000000000e+00 -4.5593999997e+01 4.5594000000e+01 5.1100000000e-04 0.0000e+00 1.0000e+00
       23  2    1    2    0    0 +3.5527136788e-15 +0.0000000000e+00 +0.0000000000e+00 9.1188000000e+01 9.1188000000e+01 7.8775e-14 0.0000e+00
 -9990012  2    3    3    0    0 +3.1842751236e+01 +4.3325579147e+00 +2.9170038169e+01 4.7787274301e+01 2.0000014849e+01 1.1056e-01 0.0000e+00
      -11  1    4    4    0    0 +3.2606994826e+00 -2.7548371003e+00 -1.4817799354e+00 4.5185130965e+00 5.1100000000e-04 0.0000e+00 1.0000e+00
       11  1    4    4    0    0 +1.8968942064e+01 +1.5057631956e+00 +2.2594015767e+01 2.9539425088e+01 5.1100000000e-04 0.0000e+00 -1.0000e+00
      -12  1    4    4    0    0 +9.6131096898e+00 +5.5816318195e+00 +8.0578023382e+00 1.3729336116e+01 0.0000000000e+00 0.0000e+00 1.0000e+00
       12  1    3    3    0    0 -3.1842751236e+01 -4.3325579147e+00 -2.9170038169e+01 4.3400725699e+01 0.0000000000e+00 0.0000e+00 -1.0000e+00
</event>
<event>
 8      3 +3.7482383e-04 9.11880000e+01 7.81616400e-03 1.18400000e-01
      -11 -1    0    0    0    0 +0.0000000000e+00 +0.0000000000e+00 +4.5593999997e+01 4.5594000000e+01 5.1100000000e-04 0.0000e+00 1.0000e+00
       11 -1    0    0    0    0 -0.0000000000e+00 -0.0000000000e+00 -4.5593999997e+01 4.5594000000e+01 5.1100000000e-04 0.0000e+00 -1.0000e+00
       23  2    1    2    0    0 +0.0000000000e+00 +0.0000000000e+00 +0.0000000000e+00 9.1188000000e+01 9.1188000000e+01 5.1339e-14 0.0000e+00
  9990012  2    3    3    0    0 +3.6919864783e+01 +2.2801167036e+01 -8.0864127547e-01 4.7787268041e+01 1.9999986307e+01 6.1270e-01 0.0000e+00
      -11  1    4    4    0    0 +4.5753293941e+00 -2.2673558668e+00 -1.4326249287e+00 5.3034852822e+00 5.1100000000e-04 0.0000e+00 1.0000e+00
       11  1    4    4    0    0 +1.3367512715e+01 +5.2418963318e+00 -3.3728654475e+00 1.4749376086e+01 5.1100000000e-04 0.0000e+00 -1.0000e+00
       12  1    4    4    0    0 +1.8977022675e+01 +1.9826626571e+01 +3.9968491007e+00 2.7734406673e+01 0.0000000000e+00 0.0000e+00 -1.0000e+00
      -12  1    3    3    0    0 -3.6919864783e+01 -2.2801167036e+01 +8.0864127547e-01 4.3400731959e+01 0.0000000000e+00 0.0000e+00 1.0000e+00
</event>
<event>
 8      4 +3.7482383e-04 9.11880000e+01 7.81616400e-03 1.18400000e-01
      -11 -1    0    0    0    0 +0.0000000000e+00 +0.0000000000e+00 +4.5593999997e+01 4.5594000000e+01 5.1100000000e-04 0.0000e+00 1.0000e+00
       11 -1    0    0    0    0 -0.0000000000e+00 -0.0000000000e+00 -4.5593999997e+01 4.5594000000e+01 5.1100000000e-04 0.0000e+00 -1.0000e+00
       23  2    1    2    0    0 +0.0000000000e+00 +0.0000000000e+00 +3.5527136788e-15 9.1188000000e+01 9.1188000000e+01 1.3338e-13 0.0000e+00
 -9990012  2    3    3    0    0 +3.1465032573e+00 +3.4590212408e+01 +2.6023830154e+01 4.7787274049e+01 2.0000013699e+01 4.0235e-01 0.0000e+00
      -11  1    4    4    0    0 +3.6793078774e+00 +1.4874302918e+01 +7.6356778202e+00 1.7119747948e+01 5.1100000000e-04 0.0000e+00 1.0000e+00
       11  1    4    4    0    0 +6.1837396027e+00 +6.6284014489e+00 +1.0849079725e+01 1.4137781735e+01 5.1100000000e-04 0.0000e+00 -1.0000e+00
      -12  1    4    4    0    0 -6.7165442229e+00 +1.3087508041e+01 +7.5390726091e+00 1.6529744367e+01 0.0000000000e+00 0.0000e+00 1.0000e+00
       12  1    3    3    0    0 -3.1465032573e+00 -3.4590212408e+01 -2.6023830154e+01 4.3400725951e+01 0.0000000000e+00 0.0000e+00 -1.0000e+00
</event>
<event>
 8      4 +3.7482383e-04 9.11880000e+01 7.81616400e-03 1.18400000e-01
      -11 -1    0    0    0    0 +0.0000000000e+00 +0.0000000000e+00 +4.5593999997e+01 4.5594000000e+01 5.1100000000e-04 0.0000e+00 -1.0000e+00
       11 -1    0    0    0    0 -0.0000000000e+00 -0.0000000000e+00 -4.5593999997e+01 4.5594000000e+01 5.1100000000e-04 0.0000e+00 1.0000e+00
       23  2    1    2    0    0 +0.0000000000e+00 -3.5527136788e-15 +0.0000000000e+00 9.1188000000e+01 9.1188000000e+01 2.8740e-14 0.0000e+00
 -9990012  2    3    3    0    0 +1.0729154092e+01 +2.2099128114e+01 -3.5778991235e+01 4.7787280827e+01 2.0000044603e+01 2.3527e-01 0.0000e+00
      -11  1    4    4    0    0 -2.5325462198e+00 +9.4597812114e+00 -2.3626776914e+01 2.5575883924e+01 5.1100000000e-04 0.0000e+00 1.0000e+00
       11  1    4    4    0    0 +5.7770908838e+00 +5.8611696728e+00 -3.6160520568e+00 8.9891001636e+00 5.1100000000e-04 0.0000e+00 -1.0000e+00
      -12  1    4    4    0    0 +7.4846094285e+00 +6.7781772298e+00 -8.5361622645e+00 1.3222296739e+01 0.0000000000e+00 0.0000e+00 1.0000e+00
       12  1    3    3    0    0 -1.0729154092e+01 -2.2099128114e+01 +3.5778991235e+01 4.3400719173e+01 0.0000000000e+00 0.0000e+00 -1.0000e+00
</event>
<event>
 8      4 +3.7482383e-04 9.11880000e+01 7.81616400e-03 1.18400000e-01
      -11 -1    0    0    0    0 +0.0000000000e+00 +0.0000000000e+00 +4.5593999997e+01 4.5594000000e+01 5.1100000000e-04 0.0000e+00 -1.0000e+00
       11 -1    0    0    0    0 -0.0000000000e+00 -0.0000000000e+00 -4.5593999997e+01 4.5594000000e+01 5.1100000000e-04 0.0000e+00 1.0000e+00
       23  2    1    2    0    0 +0.0000000000e+00 +0.0000000000e+00 -8.8817841970e-16 9.1188000000e+01 9.1188000000e+01 2.1116e-14 0.0000e+00
 -9990012  2    3    3    0    0 -1.4104765047e+01 +4.0391184893e+01 -7.2959423892e+00 4.7787274321e+01 2.0000014941e+01 5.4784e-01 0.0000e+00
      -11  1    4    4    0    0 -6.0903954507e+00 +2.7866555972e+01 -3.9747719922e+00 2.8799942207e+01 5.1100000000e-04 0.0000e+00 1.0000e+00
       11  1    4    4    0    0 -7.9241380142e+00 +3.9561032780e+00 -5.1219161505e+00 1.0231165218e+01 5.1100000000e-04 0.0000e+00 -1.0000e+00
      -12  1    4    4    0    0 -9.0231581670e-02 +8.5685256430e+00 +1.8007457536e+00 8.7561668955e+00 0.0000000000e+00 0.0000e+00 1.0000e+00
       12  1    3    3    0    0 +1.4104765047e+01 -4.0391184893e+01 +7.2959423892e+00 4.3400725679e+01 0.0000000000e+00 0.0000e+00 -1.0000e+00
</event>
<event>
 8      4 +3.7482383e-04 9.11880000e+01 7.81616400e-03 1.18400000e-01
      -11 -1    0    0    0    0 +0.0000000000e+00 +0.0000000000e+00 +4.5593999997e+01 4.5594000000e+01 5.1100000000e-04 0.0000e+00 1.0000e+00
       11 -1    0    0    0    0 -0.0000000000e+00 -0.0000000000e+00 -4.5593999997e+01 4.5594000000e+01 5.1100000000e-04 0.0000e+00 -1.0000e+00
       23  2    1    2    0    0 +0.0000000000e+00 +0.0000000000e+00 -1.7763568394e-15 9.1188000000e+01 9.1188000000e+01 3.1069e-14 0.0000e+00
 -9990012  2    3    3    0    0 +2.0332990185e+01 -3.7286445651e+01 +8.9394596187e+00 4.7787268930e+01 1.9999990360e+01 1.7904e-01 0.0000e+00
      -11  1    4    4    0    0 -2.8289221038e+00 -8.1268646176e+00 +1.8906697491e+00 8.8104120871e+00 5.1100000000e-04 0.0000e+00 1.0000e+00
       11  1    4    4    0    0 +6.0290170334e+00 -8.9646643807e+00 -2.0063763754e+00 1.0988166374e+01 5.1100000000e-04 0.0000e+00 -1.0000e+00
      -12  1    4    4    0    0 +1.7132895255e+01 -2.0194916652e+01 +9.0551662451e+00 2.7988690469e+01 0.0000000000e+00 0.0000e+00 1.0000e+00
       12  1    3    3    0    0 -2.0332990185e+01 +3.7286445651e+01 -8.9394596187e+00 4.3400731070e+01 0.0000000000e+00 0.0000e+00 -1.0000e+00
</event>
<event>
 8      4 +3.7482383e-04 9.11880000e+01 7.81616400e-03 1.18400000e-01
      -11 -1    0    0    0    0 +0.0000000000e+00 +0.0000000000e+00 +4.5593999997e+01 4.5594000000e+01 5.1100000000e-04 0.0000e+00 -1.0000e+00
       11 -1    0    0    0    0 -0.0000000000e+00 -0.0000000000e+00 -4.5593999997e+01 4.5594000000e+01 5.1100000000e-04 0.0000e+00 1.0000e+00
       23  2    1    2    0    0 +0.0000000000e+00 -3.5527136788e-15 +0.0000000000e+00 9.1188000000e+01 9.1188000000e+01 2.5166e-14 0.0000e+00
 -9990012  2    3    3    0    0 +2.3647044061e+01 +1.6431341658e+01 -3.2472321881e+01 4.7787269939e+01 1.9999994959e+01 3.4995e-01 0.0000e+00
      -11  1    4    4    0    0 +2.0984948985e+01 +3.8876753824e+00 -2.3303987532e+01 3.1599967388e+01 5.1100000000e-04 0.0000e+00 1.0000e+00
       11  1    4    4    0    0 +1.3768452611e+00 +1.1199341884e+00 -6.9444899940e-01 1.9058371214e+00 5.1100000000e-04 0.0000e+00 -1.0000e+00
      -12  1    4    4    0    0 +1.2852498152e+00 +1.1423732087e+01 -8.4738853497e+00 1.4281465429e+01 0.0000000000e+00 0.0000e+00 1.0000e+00
       12  1    3    3    0    0 -2.3647044061e+01 -1.6431341658e+01 +3.2472321881e+01 4.3400730061e+01 0.0000000000e+00 0.0000e+00 -1.0000e+00
</event>
<event>
 8      3 +3.7482383e-04 9.11880000e+01 7.81616400e-03 1.18400000e-01
      -11 -1    0    0    0    0 +0.0000000000e+00 +0.0000000000e+00 +4.5593999997e+01 4.5594000000e+01 5.1100000000e-04 0.0000e+00 1.0000e+00
       11 -1    0    0    0    0 -0.0000000000e+00 -0.0000000000e+00 -4.5593999997e+01 4.5594000000e+01 5.1100000000e-04 0.0000e+00 -1.0000e+00
       23  2    1    2    0    0 +3.5527136788e-15 +0.0000000000e+00 +0.0000000000e+00 9.1188000000e+01 9.1188000000e+01 1.6706e-13 0.0000e+00
  9990012  2    3    3    0    0 -1.7770141695e+01 -1.1285700485e+01 -3.7953631768e+01 4.7787272636e+01 2.0000007259e+01 7.5739e-02 0.0000e+00
      -11  1    4    4    0    0 -1.3315359032e+01 -6.4421858606e+00 -1.3227866327e+01 1.9843814971e+01 5.1100000000e-04 0.0000e+00 1.0000e+00
       11  1    4    4    0    0 -7.2653189652e+00 -5.6438084718e-01 -1.0152285098e+01 1.2496890748e+01 5.1100000000e-04 0.0000e+00 -1.0000e+00
       12  1    4    4    0    0 +2.8105363016e+00 -4.2791337775e+00 -1.4573480344e+01 1.5446566917e+01 0.0000000000e+00 0.0000e+00 -1.0000e+00
      -12  1    3    3    0    0 +1.7770141695e+01 +1.1285700485e+01 +3.7953631768e+01 4.3400727364e+01 0.0000000000e+00 0.0000e+00 1.0000e+00
</event>
<event>
 8      3 +3.7482383e-04 9.11880000e+01 7.81616400e-03 1.18400000e-01
      -11 -1    0    0    0    0 +0.0000000000e+00 +0.0000000000e+00 +4.5593999997e+01 4.5594000000e+01 5.1100000000e-04 0.0000e+00 1.0000e+00
       11 -1    0    0    0    0 -0.0000000000e+00 -0.0000000000e+00 -4.5593999997e+01 4.5594000000e+01 5.1100000000e-04 0.0000e+00 -1.0000e+00
       23  2    1    2    0    0 +0.0000000000e+00 +3.5527136788e-15 +0.0000000000e+00 9.1188000000e+01 9.1188000000e+01 3.6470e-15 0.0000e+00
  9990012  2    3    3    0    0 -3.6543177413e+01 -2.0058481466e+01 -1.2077944284e+01 4.7787271524e+01 2.0000002184e+01 7.3788e-02 0.0000e+00
      -11  1    4    4    0    0 -3.7249234391e+00 +2.2423088893e+00 +9.7528926176e-01 4.4558044378e+00 5.1100000000e-04 0.0000e+00 1.0000e+00
       11  1    4    4    0    0 -2.9857052202e+01 -1.5672166771e+01 -1.2797096334e+01 3.6066966220e+01 5.1100000000e-04 0.0000e+00 -1.0000e+00
       12  1    4    4    0    0 -2.9612017720e+00 -6.6286235844e+00 -2.5613721231e-01 7.2645008658e+00 0.0000000000e+00 0.0000e+00 -1.0000e+00
      -12  1    3    3    0    0 +3.6543177413e+01 +2.0058481466e+01 +1.2077944284e+01 4.3400728476e+01 0.0000000000e+00 0.0000e+00 1.0000e+00
</event>
<event>
 8      4 +3.7482383e-04 9.11880000e+01 7.81616400e-03 1.18400000e-01
      -11 -1    0    0    0    0 +0.0000000000e+00 +0.0000000000e+00 +4.5593999997e+01 4.5594000000e+01 5.1100000000e-04 0.0000e+00 1.0000e+00
       11 -1    0    0    0    0 -0.0000000000e+00 -0.0000000000e+00 -4.5593999997e+01 4.5594000000e+01 5.1100000000e-04 0.0000e+00 -1.0000e+00
       23  2    1    2    0    0 +5.5511151231e-16 +8.8817841970e-16 -7.1054273576e-15 9.1188000000e+01 9.1188000000e+01 2.9677e-14 0.0000e+00
 -9990012  2    3    3    0    0 -8.7988089110e-01 -4.1136363629e+00 +4.3196380079e+01 4.7787269056e+01 1.9999990935e+01 5.9387e-01 0.0000e+00
      -11  1    4    4    0    0 +6.8205086130e+00 +2.9389282295e+00 +1.6360537638e+01 1.7967298877e+01 5.1100000000e-04 0.0000e+00 1.0000e+00
       11  1    4    4    0    0 -5.6851970158e+00 -8.5234650818e+00 +1.8862858450e+01 2.1465748328e+01 5.1100000000e-04 0.0000e+00 -1.0000e+00
      -12  1    4    4    0    0 -2.0151924884e+00 +1.4709004894e+00 +7.9729839914e+00 8.3542218514e+00 0.0000000000e+00 0.0000e+00 1.0000e+00
       12  1    3    3    0    0 +8.7988089110e-01 +4.1136363629e+00 -4.3196380079e+01 4.3400730944e+01 0.0000000000e+00 0.0000e+00 -1.0000e+00
</event>
<event>
 8      3 +3.7482383e-04 9.11880000e+01 7.81616400e-03 1.18400000e-01
      -11 -1    0    0    0    0 +0.0000000000e+00 +0.0000000000e+00 +4.5593999997e+01 4.5594000000e+01 5.1100000000e-04 0.0000e+00 -1.0000e+00
       11 -1    0    0    0    0 -0.0000000000e+00 -0.0000000000e+00 -4.5593999997e+01 4.5594000000e+01 5.1100000000e-04 0.0000e+00 1.0000e+00
       23  2    1    2    0    0 -7.1054273576e-15 +8.8817841970e-16 -4.4408920985e-16 9.1188000000e+01 9.1188000000e+01 1.8054e-13 0.0000e+00
  9990012  2    3    3    0    0 -4.2994547310e+01 -5.7595628884e+00 +1.3856015125e+00 4.7787267811e+01 1.9999985256e+01 5.3868e-01 0.0000e+00
      -11  1    4    4    0    0 -1.5210605933e+01 +5.3453279950e+00 +2.5881030655e+00 1.6328911230e+01 5.1100000000e-04 0.0000e+00 1.0000e+00
       11  1    4    4    0    0 -1.8990507475e+01 -2.5848378309e+00 -1.3543194693e+00 1.9213405275e+01 5.1100000000e-04 0.0000e+00 -1.0000e+00
       12  1    4    4    0    0 -8.7934339013e+00 -8.5200530525e+00 +1.5181791632e-01 1.2244951305e+01 0.0000000000e+00 0.0000e+00 -1.0000e+00
      -12  1    3    3    0    0 +4.2994547310e+01 +5.7595628884e+00 -1.3856015125e+00 4.3400732189e+01 0.0000000000e+00 0.0000e+00 1.0000e+00
</event>
<event>
 8      4 +3.7482383e-04 9.11880000e+01 7.81616400e-03 1.18400000e-01
      -11 -1    0    0    0    0 +0.0000000000e+00 +0.0000000000e+00 +4.5593999997e+01 4.5594000000e+01 5.1100000000e-04 0.0000e+00 1.0000e+00
       11 -1    0    0    0    0 -0.0000000000e+00 -0.0000000000e+00 -4.5593999997e+01 4.5594000000e+01 5.1100000000e-04 0.0000e+00 -1.0000e+00
       23  2    1    2    0    0 -1.7763568394e-15 +0.0000000000e+00 +0.0000000000e+00 9.1188000000e+01 9.1188000000e+01 1.1788e-14 0.0000e+00
 -9990012  2    3    3    0    0 -1.3517148292e+01 +1.3358485031e+01 +3.9018720314e+01 4.7787274716e+01 2.0000016739e+01 3.3854e-01 0.0000e+00
      -11  1    4    4    0    0 -1.0549301986e+01 +4.6895466879e+00 +8.9182807517e+00 1.4588192224e+01 5.1100000000e-04 0.0000e+00 1.0000e+00
       11  1    4    4    0    0 -5.4161877484e-01 +8.8414469678e+00 +1.1889849370e+01 1.4826768147e+01 5.1100000000e-04 0.0000e+00 -1.0000e+00
      -12  1    4    4    0    0 -2.4262275314e+00 -1.7250862456e-01 +1.8210590192e+01 1.8372314345e+01 0.0000000000e+00 0.0000e+00 1.0000e+00
       12  1    3    3    0    0 +1.3517148292e+01 -1.3358485031e+01 -3.9018720314e+01 4.3400725284e+01 0.0000000000e+00 0.0000e+00 -1.0000e+00
</event>
<event>
 8      3 +3.7482383e-04 9.11880000e+01 7.81616400e-03 1.18400000e-01
      -11 -1    0    0    0    0 +0.0000000000e+00 +0.0000000000e+00 +4.5593999997e+01 4.5594000000e+01 5.1100000000e-04 0.0000e+00 -1.0000e+00
       11 -1    0    0    0    0 -0.0000000000e+00 -0.0000000000e+00 -4.5593999997e+01 4.5594000000e+01 5.1100000000e-04 0.0000e+00 1.0000e+00
       23  2    1    2    0    0 +7.1054273576e-15 +0.0000000000e+00 +0.0000000000e+00 9.1188000000e+01 9.1188000000e+01 1.7444e-14 0.0000e+00
  9990012  2    3    3    0    0 -3.6489937565e+01 +2.2938557745e+01 +5.0921805102e+00 4.7787271005e+01 1.9999999820e+01 1.2163e-01 0.0000e+00
      -11  1    4    4    0    0 -7.7410999194e+00 +9.5575118731e+00 +7.1901989326e+00 1.4246740754e+01 5.1100000000e-04 0.0000e+00 1.0000e+00
       11  1    4    4    0    0 -8.0709739680e+00 -3.0724791326e-01 -3.2726857780e+00 8.7146712235e+00 5.1100000000e-04 0.0000e+00 -1.0000e+00
       12  1    4    4    0    0 -2.0677863678e+01 +1.3688293786e+01 +1.1746673555e+00 2.4825859027e+01 0.0000000000e+00 0.0000e+00 -1.0000e+00
      -12  1    3    3    0    0 +3.6489937565e+01 -2.2938557745e+01 -5.0921805102e+00 4.3400728995e+01 0.0000000000e+00 0.0000e+00 1.0000e+00
</event>
<event>
 8      4 +3.7482383e-04 9.11880000e+01 7.81616400e-03 1.18400000e-01
      -11 -1    0    0    0    0 +0.0000000000e+00 +0.0000000000e+00 +4.5593999997e+01 4.5594000000e+01 5.1100000000e-04 0.0000e+00 -1.0000e+00
       11 -1    0    0    0    0 -0.0000000000e+00 -0.0000000000e+00 -4.5593999997e+01 4.5594000000e+01 5.1100000000e-04 0.0000e+00 1.0000e+00
       23  2    1    2    0    0 +0.0000000000e+00 +7.1054273576e-15 -3.5527136788e-15 9.1188000000e+01 9.1188000000e+01 4.8082e-14 0.0000e+00
 -9990012  2    3    3    0    0 -1.8001164020e+01 +3.1263349690e+01 -2.4128491499e+01 4.7787273717e+01 2.0000012184e+01 1.5714e-01 0.0000e+00
      -11  1    4    4    0    0 -7.2990168266e+00 +2.1289609172e+01 -2.2788885766e+01 3.2028993429e+01 5.1100000000e-04 0.0000e+00 1.0000e+00
       11  1    4    4    0    0 -3.6807159970e+00 +2.2765899066e-01 -2.2081370711e-01 3.6943548586e+00 5.1100000000e-04 0.0000e+00 -1.0000e+00
      -12  1    4    4    0    0 -7.0214311963e+00 +9.7460815269e+00 -1.1187920263e+00 1.2063925430e+01 0.0000000000e+00 0.0000e+00 1.0000e+00
       12  1    3    3    0    0 +1.8001164020e+01 -3.1263349690e+01 +2.4128491499e+01 4.3400726283e+01 0.0000000000e+00 0.0000e+00 -1.0000e+00
</event>
<event>
 8      4 +3.7482383e-04 9.11880000e+01 7.81616400e-03 1.18400000e-01
      -11 -1    0    0    0    0 +0.0000000000e+00 +0.0000000000e+00 +4.5593999997e+01 4.5594000000e+01 5.1100000000e-04 0.0000e+00 -1.0000e+00
       11 -1    0    0    0    0 -0.0000000000e+00 -0.0000000000e+00 -4.5593999997e+01 4.5594000000e+01 5.1100000000e-04 0.0000e+00 1.0000e+00
       23  2    1    2    0    0 +0.0000000000e+00 +3.5527136788e-15 +0.0000000000e+00 9.1188000000e+01 9.1188000000e+01 7.0206e-14 0.0000e+00
 -9990012  2    3    3    0    0 +3.4143595478e+01 -2.5839863069e+01 +7.0809307380e+00 4.7787271714e+01 2.0000003055e+01 2.0873e-01 0.0000e+00
      -11  1    4    4    0    0 +4.3433617457e+00 -1.8390504481e+00 +2.7660448571e+00 5.4678974219e+00 5.1100000000e-04 0.0000e+00 1.0000e+00
       11  1    4    4    0    0 -1.1552864704e+00 +4.9816963404e-01 -1.9776075086e+00 2.3438838564e+00 5.1100000000e-04 0.0000e+00 -1.0000e+00
      -12  1    4    4    0    0 +3.0955520203e+01 -2.4498982255e+01 +6.2924933895e+00 3.9975490436e+01 0.0000000000e+00 0.0000e+00 1.0000e+00
       12  1    3    3    0    0 -3.4143595478e+01 +2.5839863069e+01 -7.0809307380e+00 4.3400728286e+01 0.0000000000e+00 0.0000e+00 -1.0000e+00
</event>
<event>
 8      3 +3.7482383e-04 9.11880000e+01 7.81616400e-03 1.18400000e-01
      -11 -1    0    0    0    0 +0.0000000000e+00 +0.0000000000e+00 +4.5593999997e+01 4.5594000000e+01 5.1100000000e-04 0.0000e+00 -1.0000e+00
       11 -1    0    0    0    0 -0.0000000000e+00 -0.0000000000e+00 -4.5593999997e+01 4.5594000000e+01 5.1100000000e-04 0.0000e+00 1.0000e+00
       23  2    1    2    0    0 -7.1054273576e-15 +0.0000000000e+00 +0.0000000000e+00 9.1188000000e+01 9.1188000000e+01 5.3595e-15 0.0000e+00
  9990012  2    3    3    0    0 -3.2369065755e+01 +1.7904164698e+01 +2.2700394010e+01 4.7787269365e+01 1.9999992345e+01 3.2248e-02 0.0000e+00
      -11  1    4    4    0    0 +1.8288643247e+00 +1.6253291799e+00 -8.0483356238e-01 2.5756934960e+00 5.1100000000e-04 0.0000e+00 1.0000e+00
       11  1    4    4    0    0 -1.3579284970e+01 +9.4682404512e+00 +7.1768471626e+00 1.8043051100e+01 5.1100000000e-04 0.0000e+00 -1.0000e+00
       12  1    4    4    0    0 -2.0618645110e+01 +6.8105950668e+00 +1.6328380410e+01 2.7168524769e+01 0.0000000000e+00 0.0000e+00 -1.0000e+00
      -12  1    3    3    0    0 +3.2369065755e+01 -1.7904164698e+01 -2.2700394010e+01 4.3400730635e+01 0.0000000000e+00 0.0000e+00 1.0000e+00
</event>
<event>
 8      3 +3.7482383e-04 9.11880000e+01 7.81616400e-03 1.18400000e-01
      -11 -1    0    0    0    0 +0.0000000000e+00 +0.0000000000e+00 +4.5593999997e+01 4.5594000000e+01 5.1100000000e-04 0.0000e+00 1.0000e+00
       11 -1    0    0    0    0 -0.0000000000e+00 -0.0000000000e+00 -4.5593999997e+01 4.5594000000e+01 5.1100000000e-04 0.0000e+00 -1.0000e+00
       23  2    1    2    0    0 +0.0000000000e+00 -8.8817841970e-16 +0.0000000000e+00 9.1188000000e+01 9.1188000000e+01 1.5349e-14 0.0000e+00
  9990012  2    3    3    0    0 -4.1532763223e+01 -4.0634694951e+00 +1.1922296802e+01 4.7787269980e+01 1.9999995146e+01 1.3232e-01 0.0000e+00
      -11  1    4    4    0    0 -6.3087235909e+00 -7.2258692259e+00 -1.2209924348e+00 9.6697467497e+00 5.1100000000e-04 0.0000e+00 1.0000e+00
       11  1    4    4    0    0 -1.6268038400e+01 -2.1711279350e-01 +8.2928395717e+00 1.8261089775e+01 5.1100000000e-04 0.0000e+00 -1.0000e+00
       12  1    4    4    0    0 -1.8956001232e+01 +3.3795125243e+00 +4.8504496649e+00 1.9856433455e+01 0.0000000000e+00 0.0000e+00 -1.0000e+00
      -12  1    3    3    0    0 +4.1532763223e+01 +4.0634694951e+00 -1.1922296802e+01 4.3400730020e+01 0.0000000000e+00 0.0000e+00 1.0000e+00
</event>
<event>
 8      3 +3.7482383e-04 9.11880000e+01 7.81616400e-03 1.18400000e-01
      -11 -1    0    0    0    0 +0.0000000000e+00 +0.0000000000e+00 +4.5593999997e+01 4.5594000000e+01 5.1100000000e-04 0.0000e+00 -1.0000e+00
       11 -1    0    0    0    0 -0.0000000000e+00 -0.0000000000e+00 -4.5593999997e+01 4.5594000000e+01 5.1100000000e-04 0.0000e+00 1.0000e+00
       23  2    1    2    0    0 -3.5527136788e-15 +0.0000000000e+00 +0.0000000000e+00 9.1188000000e+01 9.1188000000e+01 1.6097e-14 0.0000e+00
  9990012  2    3    3    0    0 +2.8953066102e+01 +1.6722631124e+00 +3.2288498984e+01 4.7787266513e+01 1.9999979337e+01 7.4221e-02 0.0000e+00
      -11  1    4    4    0    0 -1.9752851166e+00 -3.6814610264e-01 +4.8674384262e-01 2.0674144902e+00 5.1100000000e-04 0.0000e+00 1.0000e+00
       11  1    4    4    0    0 +7.7746304037e+00 -1.2512724335e+00 +1.4940609150e+01 1.6888823602e+01 5.1100000000e-04 0.0000e+00 -1.0000e+00
       12  1    4    4    0    0 +2.3153720815e+01 +3.2916816485e+00 +1.6861145991e+01 2.8831028420e+01 0.0000000000e+00 0.0000e+00 -1.0000e+00
      -12  1    3    3    0    0 -2.8953066102e+01 -1.6722631124e+00 -3.2288498984e+01 4.3400733487e+01 0.0000000000e+00 0.0000e+00 1.0000e+00
</event>
<event>
 8      4 +3.7482383e-04 9.11880000e+01 7.81616400e-03 1.18400000e-01
      -11 -1    0    0    0    0 +0.0000000000e+00 +0.0000000000e+00 +4.5593999997e+01 4.5594000000e+01 5.1100000000e-04 0.0000e+00 1.0000e+00
       11 -1    0    0    0    0 -0.0000000000e+00 -0.0000000000e+00 -4.5593999997e+01 4.5594000000e+01 5.1100000000e-04 0.0000e+00 -1.0000e+00
       23  2    1    2    0    0 -3.5527136788e-15 +0.0000000000e+00 +1.1102230246e-15 9.1188000000e+01 9.1188000000e+01 1.0710e-13 0.0000e+00
 -9990012  2    3    3    0    0 -3.1826934568e+01 -2.9460136504e+01 +1.6641471238e+00 4.7787276590e+01 2.0000025283e+01 1.6933e-01 0.0000e+00
      -11  1    4    4    0    0 -4.5179982670e+00 -2.0998355014e+00 -1.6708017138e+00 5.2548259820e+00 5.1100000000e-04 0.0000e+00 1.0000e+00
       11  1    4    4    0    0 -1.3922043882e+01 -2.8408405607e+00 -1.0797873478e+00 1.4249899015e+01 5.1100000000e-04 0.0000e+00 -1.0000e+00
      -12  1    4    4    0    0 -1.3386892419e+01 -2.4519460442e+01 +4.4147361854e+00 2.8282551593e+01 0.0000000000e+00 0.0000e+00 1.0000e+00
       12  1    3    3    0    0 +3.1826934568e+01 +2.9460136504e+01 -1.6641471238e+00 4.3400723410e+01 0.0000000000e+00 0.0000e+00 -1.0000e+00
</event>
<event>
 8      4 +3.7482383e-04 9.11880000e+01 7.81616400e-03 1.18400000e-01
      -11 -1    0    0    0    0 +0.0000000000e+00 +0.0000000000e+00 +4.5593999997e+01 4.5594000000e+01 5.1100000000e-04 0.0000e+00 1.0000e+00
       11 -1    0    0    0    0 -0.0000000000e+00 -0.0000000000e+00 -4.5593999997e+01 4.5594000000e+01 5.1100000000e-04 0.0000e+00 -1.0000e+00
       23  2    1    2    0    0 -8.8817841970e-16 -1.4210854715e-14 +0.0000000000e+00 9.1188000000e+01 9.1188000000e+01 4.4625e-14 0.0000e+00
 -9990012  2    3    3    0    0 -5.2100159387e+00 -4.3071488003e+01 -1.1514594230e+00 4.7787271853e+01 2.0000003685e+01 4.5202e-02 0.0000e+00
      -11  1    4    4    0    0 -8.8031039665e+00 -1.1977903435e+01 -1.9769289932e+00 1.4995768025e+01 5.1100000000e-04 0.0000e+00 1.0000e+00
       11  1    4    4    0    0 +2.6326116494e+00 -2.0821412276e+00 +1.6761057989e+00 3.7517045590e+00 5.1100000000e-04 0.0000e+00 -1.0000e+00
      -12  1    4    4    0    0 +9.6047637849e-01 -2.9011443341e+01 -8.5063622879e-01 2.9039799269e+01 0.0000000000e+00 0.0000e+00 1.0000e+00
       12  1    3    3    0    0 +5.2100159387e+00 +4.3071488003e+01 +1.1514594230e+00 4.3400728147e+01 0.0000000000e+00 0.0000e+00 -1.0000e+00
</event>
<event>
 8      4 +3.7482383e-04 9.11880000e+01 7.81616400e-03 1.18400000e-01
      -11 -1    0    0    0    0 +0.0000000000e+00 +0.0000000000e+00 +4.5593999997e+01 4.5594000000e+01 5.1100000000e-04 0.0000e+00 -1.0000e+00
       11 -1    0    0    0    0 -0.0000000000e+00 -0.0000000000e+00 -4.5593999997e+01 4.5594000000e+01 5.1100000000e-04 0.0000e+00 1.0000e+00
       23  2    1    2    0    0 +0.0000000000e+00 +0.0000000000e+00 +1.7763568394e-15 9.1188000000e+01 9.1188000000e+01 2.1166e-13 0.0000e+00
 -9990012  2    3    3    0    0 +2.1658454117e+01 +3.4779710020e+01 -1.4314582610e+01 4.7787261076e+01 1.9999954551e+01 2.7802e-01 0.0000e+00
      -11  1    4    4    0    0 +1.5823907552e+01 +2.6728809041e+01 -1.3961712694e+01 3.4055171481e+01 5.1100000000e-04 0.0000e+00 1.0000e+00
       11  1    4    4    0    0 +1.4434960979e+00 +7.4161944722e+00 +3.0427978760e+00 8.1450746227e+00 5.1100000000e-04 0.0000e+00 -1.0000e+00
      -12  1    4    4    0    0 +4.3910504670e+00 +6.3470650669e-01 -3.3956677917e+00 5.5870149726e+00 0.0000000000e+00 0.0000e+00 1.0000e+00
       12  1    3    3    0    0 -2.1658454117e+01 -3.4779710020e+01 +1.4314582610e+01 4.3400738924e+01 0.0000000000e+00 0.0000e+00 -1.0000e+00
</event>
<event>
 8      3 +3.7482383e-04 9.11880000e+01 7.81616400e-03 1.18400000e-01
      -11 -1    0    0    0    0 +0.0000000000e+00 +0.0000000000e+00 +4.5593999997e+01 4.5594000000e+01 5.1100000000e-04 0.0000e+00 1.0000e+00
       11 -1    0    0    0    0 -0.0000000000e+00 -0.0000000000e+00 -4.5593999997e+01 4.5594000000e+01 5.1100000000e-04 0.0000e+00 -1.0000e+00
       23  2    1    2    0    0 +8.8817841970e-16 +0.0000000000e+00 +0.0000000000e+00 9.1188000000e+01 9.1188000000e+01 2.7001e-13 0.0000e+00
  9990012  2    3    3    0    0 -5.0760830633e+00 +3.7450588701e+01 -2.1337994412e+01 4.7787271678e+01 2.0000002889e+01 1.3112e-02 0.0000e+00
      -11  1    4    4    0    0 +2.3877715822e+00 +9.0274213693e+00 -3.9620148021e+00 1.0143635998e+01 5.1100000000e-04 0.0000e+00 1.0000e+00
       11  1    4    4    0    0 -1.1358214505e+01 +1.7141820682e+01 -1.5055170712e+01 2.5485470733e+01 5.1100000000e-04 0.0000e+00 -1.0000e+00
       12  1    4    4    0    0 +3.8943598593e+00 +1.1281346650e+01 -2.3208088978e+00 1.2158164947e+01 0.0000000000e+00 0.0000e+00 -1.0000e+00
      -12  1    3    3    0    0 +5.0760830633e+00 -3.7450588701e+01 +2.1337994412e+01 4.3400728322e+01 0.0000000000e+00 0.0000e+00 1.0000e+00
</event>
<event>
 8      4 +3.7482383e-04 9.11880000e+01 7.81616400e-03 1.18400000e-01
      -11 -1    0    0    0    0 +0.0000000000e+00 +0.0000000000e+00 +4.5593999997e+01 4.5594000000e+01 5.1100000000e-04 0.0000e+00 -1.0000e+00
       11 -1    0    0    0    0 -0.0000000000e+00 -0.0000000000e+00 -4.5593999997e+01 4.5594000000e+01 5.1100000000e-04 0.0000e+00 1.0000e+00
       23  2    1    2    0    0 +0.0000000000e+00 +0.0000000000e+00 +1.7763568394e-15 9.1188000000e+01 9.1188000000e+01 9.5124e-14 0.0000e+00
 -9990012  2    3    3    0    0 +4.1968458148e+01 +8.2780332032e+00 -7.3311738236e+00 4.7787269330e+01 1.9999992183e+01 2.8293e-01 0.0000e+00
      -11  1    4    4    0    0 +3.1544435222e+01 +5.6846001210e+00 -1.0609740153e+01 3.3762888774e+01 5.1100000000e-04 0.0000e+00 1.0000e+00
       11  1    4    4    0    0 +3.9071467189e+00 -1.9563673000e+00 -1.6518064846e+00 4.6713631221e+00 5.1100000000e-04 0.0000e+00 -1.0000e+00
      -12  1    4    4    0    0 +6.5168762075e+00 +4.5498003822e+00 +4.9303728141e+00 9.3530174333e+00 0.0000000000e+00 0.0000e+00 1.0000e+00
       12  1    3    3    0    0 -4.1968458148e+01 -8.2780332032e+00 +7.3311738236e+00 4.3400730670e+01 0.0000000000e+00 0.0000e+00 -1.0000e+00
</event>
<event>
 8      4 +3.7482383e-04 9.11880000e+01 7.81616400e-03 1.18400000e-01
      -11 -1    0    0    0    0 +0.0000000000e+00 +0.0000000000e+00 +4.5593999997e+01 4.5594000000e+01 5.1100000000e-04 0.0000e+00 1.0000e+00
       11 -1    0    0    0    0 -0.0000000000e+00 -0.0000000000e+00 -4.5593999997e+01 4.5594000000e+01 5.1100000000e-04 0.0000e+00 -1.0000e+00
       23  2    1    2    0    0 +3.5527136788e-15 +7.1054273576e-15 +0.0000000000e+00 9.1188000000e+01 9.1188000000e+01 6.1829e-15 0.0000e+00
 -9990012  2    3    3    0    0 +1.6099769222e+01 +3.7354537957e+01 +1.5134694776e+01 4.7787273497e+01 2.0000011184e+01 1.0210e-01 0.0000e+00
      -11  1    4    4    0    0 +6.9644483310e+00 +8.1528160156e+00 +1.1440118053e+01 1.5679548809e+01 5.1100000000e-04 0.0000e+00 1.0000e+00
       11  1    4    4    0    0 +1.2992329577e+00 +1.4241484389e+01 -1.6463005886e+00 1.4395075192e+01 5.1100000000e-04 0.0000e+00 -1.0000e+00
      -12  1    4    4    0    0 +7.8360879332e+00 +1.4960237552e+01 +5.3408773121e+00 1.7712649496e+01 0.0000000000e+00 0.0000e+00 1.0000e+00
       12  1    3    3    0    0 -1.6099769222e+01 -3.7354537957e+01 -1.5134694776e+01 4.3400726503e+01 0.0000000000e+00 0.0000e+00 -1.0000e+00
</event>
<event>
 8      4 +3.7482383e-04 9.11880000e+01 7.81616400e-03 1.18400000e-01
      -11 -1    0    0    0    0 +0.0000000000e+00 +0.0000000000e+00 +4.5593999997e+01 4.5594000000e+01 5.1100000000e-04 0.0000e+00 1.0000e+00
       11 -1    0    0    0    0 -0.0000000000e+00 -0.0000000000e+00 -4.5593999997e+01 4.5594000000e+01 5.1100000000e-04 0.0000e+00 -1.0000e+00
       23  2    1    2    0    0 -3.5527136788e-15 -1.7763568394e-15 +0.0000000000e+00 9.1188000000e+01 9.1188000000e+01 2.9682e-14 0.0000e+00
 -9990012  2    3    3    0    0 -1.8860040584e+01 -1.3422461804e+01 +3.6711846264e+01 4.7787271115e+01 2.0000000320e+01 2.6298e-01 0.0000e+00
      -11  1    4    4    0    0 -1.5401396490e+01 +3.0512839189e-01 +1.8676875062e+01 2.4209952076e+01 5.1100000000e-04 0.0000e+00 1.0000e+00
       11  1    4    4    0    0 +1.3537989146e+00 -4.7139739479e+00 +4.8621591814e+00 6.9061504508e+00 5.1100000000e-04 0.0000e+00 -1.0000e+00
      -12  1    4    4    0    0 -4.8124430084e+00 -9.0136162478e+00 +1.3172812020e+01 1.6671168588e+01 0.0000000000e+00 0.0000e+00 1.0000e+00
       12  1    3    3    0    0 +1.8860040584e+01 +1.3422461804e+01 -3.6711846264e+01 4.3400728885e+01 0.0000000000e+00 0.0000e+00 -1.0000e+00
</event>
<event>
 8      4 +3.7482383e-04 9.11880000e+01 7.81616400e-03 1.18400000e-01
      -11 -1    0    0    0    0 +0.0000000000e+00 +0.0000000000e+00 +4.5593999997e+01 4.5594000000e+01 5.1100000000e-04 0.0000e+00 1.0000e+00
       11 -1    0    0    0    0 -0.0000000000e+00 -0.0000000000e+00 -4.5593999997e+01 4.5594000000e+01 5.1100000000e-04 0.0000e+00 -1.0000e+00
       23  2    1    2    0    0 -3.5527136788e-15 +0.0000000000e+00 -1.7763568394e-15 9.1188000000e+01 9.1188000000e+01 1.9600e-14 0.0000e+00
 -9990012  2    3    3    0    0 +1.9685628517e+01 -3.7888444772e+01 +7.7823527389e+00 4.7787271533e+01 2.0000002226e+01 2.8840e-01 0.0000e+00
      -11  1    4    4    0    0 +4.9293402661e+00 -1.7898207721e+01 +3.0063269819e+00 1.8806441377e+01 5.1100000000e-04 0.0000e+00 1.0000e+00
       11  1    4    4    0    0 +5.8220755924e+00 -1.0457552084e+01 +9.2972496935e+00 1.5155718786e+01 5.1100000000e-04 0.0000e+00 -1.0000e+00
      -12  1    4    4    0    0 +8.9342126584e+00 -9.5326849667e+00 -4.5212239365e+00 1.3825111370e+01 0.0000000000e+00 0.0000e+00 1.0000e+00
       12  1    3    3    0    0 -1.9685628517e+01 +3.7888444772e+01 -7.7823527389e+00 4.3400728467e+01 0.0000000000e+00 0.0000e+00 -1.0000e+00
</event>
<event>
 8      3 +3.7482383e-04 9.11880000e+01 7.81616400e-03 1.18400000e-01
      -11 -1    0    0    0    0 +0.0000000000e+00 +0.0000000000e+00 +4.5593999997e+01 4.5594000000e+01 5.1100000000e-04 0.0000e+00 1.0000e+00
       11 -1    0    0    0    0 -0.0000000000e+00 -0.0000000000e+00 -4.5593999997e+01 4.5594000000e+01 5.1100000000e-04 0.0000e+00 -1.0000e+00
       23  2    1    2    0    0 -3.5527136788e-15 +0.0000000000e+00 +0.0000000000e+00 9.1188000000e+01 9.1188000000e+01 8.2489e-14 0.0000e+00
  9990012  2    3    3    0    0 +2.3767119040e+01 +2.0467143558e+01 -2.9997393420e+01 4.7787268153e+01 1.9999986816e+01 2.1447e-01 0.0000e+00
      -11  1    4    4    0    0 +9.6303786434e+00 +1.3500141880e+01 -5.3123850404e+00 1.7413197831e+01 5.1100000000e-04 0.0000e+00 1.0000e+00
       11  1    4    4    0    0 +8.4514155622e+00 +7.1838722751e+00 -1.1320492164e+01 1.5848911286e+01 5.1100000000e-04 0.0000e+00 -1.0000e+00
       12  1    4    4    0    0 +5.6853248340e+00 -2.1687059766e-01 -1.3364516216e+01 1.4525159036e+01 0.0000000000e+00 0.0000e+00 -1.0000e+00
      -12  1    3    3    0    0 -2.3767119040e+01 -2.0467143558e+01 +2.9997393420e+01 4.3400731847e+01 0.0000000000e+00 0.0000e+00 1.0000e+00
</event>
<event>
 8      4 +3.7482383e-04 9.11880000e+01 7.81616400e-03 1.18400000e-01
      -11 -1    0    0    0    0 +0.0000000000e+00 +0.0000000000e+00 +4.5593999997e+01 4.5594000000e+01 5.1100000000e-04 0.0000e+00 -1.0000e+00
       11 -1    0    0    0    0 -0.0000000000e+00 -0.0000000000e+00 -4.5593999997e+01 4.5594000000e+01 5.1100000000e-04 0.0000e+00 1.0000e+00
       23  2    1    2    0    0 -2.2204460493e-16 -3.5527136788e-15 +0.0000000000e+00 9.1188000000e+01 9.1188000000e+01 9.6564e-14 0.0000e+00
 -9990012  2    3    3    0    0 +1.2451057580e+00 -2.7439419920e+01 -3.3602840402e+01 4.7787274926e+01 2.0000017696e+01 3.6330e-01 0.0000e+00
      -11  1    4    4    0    0 +5.0027791939e+00 -2.6217539124e+01 -2.8254743503e+01 3.8867951941e+01 5.1100000000e-04 0.0000e+00 1.0000e+00
       11  1    4    4    0    0 -4.0960798272e+00 -1.1083410873e+00 -7.5213887500e-01 4.3095246913e+00 5.1100000000e-04 0.0000e+00 -1.0000e+00
      -12  1    4    4    0    0 +3.3840639124e-01 -1.1353970858e-01 -4.5959580236e+00 4.6097982934e+00 0.0000000000e+00 0.0000e+00 1.0000e+00
       12  1    3    3    0    0 -1.2451057580e+00 +2.7439419920e+01 +3.3602840402e+01 4.3400725074e+01 0.0000000000e+00 0.0000e+00 -1.0000e+00
</event>
<event>
 8      4 +3.7482383e-04 9.11880000e+01 7.81616400e-03 1.18400000e-01
      -11 -1    0    0    0    0 +0.0000000000e+00 +0.0000000000e+00 +4.5593999997e+01 4.5594000000e+01 5.1100000000e-04 0.0000e+00 -1.0000e+00
       11 -1    0    0    0    0 -0.0000000000e+00 -0.0000000000e+00 -4.5593999997e+01 4.5594000000e+01 5.1100000000e-04 0.0000e+00 1.0000e+00
       23  2    1    2    0    0 +3.5527136788e-15 +0.0000000000e+00 +0.0000000000e+00 9.1188000000e+01 9.1188000000e+01 2.6077e-14 0.0000e+00
 -9990012  2    3    3    0    0 -2.9252929087e+01 -2.4919417461e+01 -2.0172070255e+01 4.7787266768e+01 1.9999980500e+01 4.7532e-01 0.0000e+00
      -11  1    4    4    0    0 -9.3824736493e+00 -7.4695223247e+00 -1.7777328031e+00 1.2123733324e+01 5.1100000000e-04 0.0000e+00 1.0000e+00
       11  1    4    4    0    0 -5.9403458542e-01 +2.6351045567e+00 -1.3271987569e+00 3.0096694029e+00 5.1100000000e-04 0.0000e+00 -1.0000e+00
      -12  1    4    4    0    0 -1.9276420852e+01 -2.0084999693e+01 -1.7067138695e+01 3.2653864040e+01 0.0000000000e+00 0.0000e+00 1.0000e+00
       12  1    3    3    0    0 +2.9252929087e+01 +2.4919417461e+01 +2.0172070255e+01 4.3400733232e+01 0.0000000000e+00 0.0000e+00 -1.0000e+00
</event>
<event>
 8      4 +3.7482383e-04 9.11880000e+01 7.81616400e-03 1.18400000e-01
      -11 -1    0    0    0    0 +0.0000000000e+00 +0.0000000000e+00 +4.5593999997e+01 4.5594000000e+01 5.1100000000e-04 0.0000e+00 1.0000e+00
       11 -1    0    0    0    0 -0.0000000000e+00 -0.0000000000e+00 -4.5593999997e+01 4.5594000000e+01 5.1100000000e-04 0.0000e+00 -1.0000e+00
       23  2    1    2    0    0 +7.1054273576e-15 +0.0000000000e+00 -3.5527136788e-15 9.1188000000e+01 9.1188000000e+01 4.0822e-15 0.0000e+00
 -9990012  2    3    3    0    0 -3.5520895675e+01 -1.6233466193e+01 +1.8930500683e+01 4.7787270625e+01 1.9999998086e+01 2.2943e-01 0.0000e+00
      -11  1    4    4    0    0 -7.9551244676e+00 -4.1993880340e+00 -7.8084640532e-01 9.0293181650e+00 5.1100000000e-04 0.0000e+00 1.0000e+00
       11  1    4    4    0    0 -1.5258354593e+01 -9.6116856991e-01 +1.5289953053e+01 2.1622300861e+01 5.1100000000e-04 0.0000e+00 -1.0000e+00
      -12  1    4    4    0    0 -1.2307416615e+01 -1.1072909589e+01 +4.4213940355e+00 1.7135651599e+01 0.0000000000e+00 0.0000e+00 1.0000e+00
       12  1    3    3    0    0 +3.5520895675e+01 +1.6233466193e+01 -1.8930500683e+01 4.3400729375e+01 0.0000000000e+00 0.0000e+00 -1.0000e+00
</event>
<event>
 8      4 +3.7482383e-04 9.11880000e+01 7.81616400e-03 1.18400000e-01
      -11 -1    0    0    0    0 +0.0000000000e+00 +0.0000000000e+00 +4.5593999997e+01 4.5594000000e+01 5.1100000000e-04 0.0000e+00 -1.0000e+00
       11 -1    0    0    0    0 -0.0000000000e+00 -0.0000000000e+00 -4.5593999997e+01 4.5594000000e+01 5.1100000000e-04 0.0000e+00 1.0000e+00
       23  2    1    2    0    0 +0.0000000000e+00 +0.0000000000e+00 +3.5527136788e-15 9.1188000000e+01 9.1188000000e+01 2.4593e-14 0.0000e+00
 -9990012  2    3    3    0    0 -2.7361246163e+01 +2.0258415147e+01 -2.6918064280e+01 4.7787270047e+01 1.9999995452e+01 7.1955e-02 0.0000e+00
      -11  1    4    4    0    0 -2.0350476266e+00 +7.6079442815e-01 -6.9781453736e+00 7.3085388499e+00 5.1100000000e-04 0.0000e+00 1.0000e+00
       11  1    4    4    0    0 -2.4606944068e+00 +9.1071526188e+00 -9.1542326893e+00 1.3145159648e+01 5.1100000000e-04 0.0000e+00 -1.0000e+00
      -12  1    4    4    0    0 -2.2865504130e+01 +1.0390468100e+01 -1.0785686217e+01 2.7333571549e+01 0.0000000000e+00 0.0000e+00 1.0000e+00
       12  1    3    3    0    0 +2.7361246163e+01 -2.0258415147e+01 +2.6918064280e+01 4.3400729953e+01 0.0000000000e+00 0.0000e+00 -1.0000e+00
</event>
<event>
 8      3 +3.7482383e-04 9.11880000e+01 7.81616400e-03 1.18400000e-01
      -11 -1    0    0    0    0 +0.0000000000e+00 +0.0000000000e+00 +4.5593999997e+01 4.5594000000e+01 5.1100000000e-04 0.0000e+00 -1.0000e+00
       11 -1    0    0    0    0 -0.0000000000e+00 -0.0000000000e+00 -4.5593999997e+01 4.5594000000e+01 5.1100000000e-04 0.0000e+00 1.0000e+00
       23  2    1    2    0    0 +1.7763568394e-15 +0.0000000000e+00 +0.0000000000e+00 9.1188000000e+01 9.1188000000e+01 2.9754e-14 0.0000e+00
  9990012  2    3    3    0    0 -1.4790720417e+01 +7.4513376995e+00 +4.0116529806e+01 4.7787264895e+01 1.9999971963e+01 4.2341e-01 0.0000e+00
      -11  1    4    4    0    0 +3.5039607113e+00 -1.1829126751e+00 +7.9546143818e+00 8.7722809627e+00 5.1100000000e-04 0.0000e+00 1.0000e+00
       11  1    4    4    0    0 -1.3742427109e+01 +4.7147588159e+00 +2.8473251057e+01 3.1965751666e+01 5.1100000000e-04 0.0000e+00 -1.0000e+00
       12  1    4    4    0    0 -4.5522540195e+00 +3.9194915586e+00 +3.6886643670e+00 7.0492322666e+00 0.0000000000e+00 0.0000e+00 -1.0000e+00
      -12  1    3    3    0    0 +1.4790720417e+01 -7.4513376995e+00 -4.0116529806e+01 4.3400735105e+01 0.0000000000e+00 0.0000e+00 1.0000e+00
</event>
<event>
 8      3 +3.7482383e-04 9.11880000e+01 7.81616400e-03 1.18400000e-01
      -11 -1    0    0    0    0 +0.0000000000e+00 +0.0000000000e+00 +4.5593999997e+01 4.5594000000e+01 5.1100000000e-04 0.0000e+00 1.0000e+00
       11 -1    0    0    0    0 -0.0000000000e+00 -0.0000000000e+00 -4.5593999997e+01 4.5594000000e+01 5.1100000000e-04 0.0000e+00 -1.0000e+00
       23  2    1    2    0    0 +0.0000000000e+00 +0.0000000000e+00 +0.0000000000e+00 9.1188000000e+01 9.1188000000e+01 1.1882e-13 0.0000e+00
  9990012  2    3    3    0    0 -3.8745558918e+01 +1.7260489701e+01 -9.1913030881e+00 4.7787275432e+01 2.0000020005e+01 9.2871e-02 0.0000e+00
      -11  1    4    4    0    0 -1.2992001999e+01 +3.0666364717e+00 -8.2836721961e+00 1.5710366020e+01 5.1100000000e-04 0.0000e+00 1.0000e+00
       11  1    4    4    0    0 -1.1245926153e+01 +5.4251730906e-01 -3.9365599158e+00 1.1927350263e+01 5.1100000000e-04 0.0000e+00 -1.0000e+00
       12  1    4    4    0    0 -1.4507630767e+01 +1.3651335920e+01 +3.0289290238e+00 2.0149559149e+01 0.0000000000e+00 0.0000e+00 -1.0000e+00
      -12  1    3    3    0    0 +3.8745558918e+01 -1.7260489701e+01 +9.1913030881e+00 4.3400724568e+01 0.0000000000e+00 0.0000e+00 1.0000e+00
</event>
<event>
 8      3 +3.7482383e-04 9.11880000e+01 7.81616400e-03 1.18400000e-01
      -11 -1    0    0    0    0 +0.0000000000e+00 +0.0000000000e+00 +4.5593999997e+01 4.5594000000e+01 5.1100000000e-04 0.0000e+00 1.0000e+00
       11 -1    0    0    0    0 -0.0000000000e+00 -0.0000000000e+00 -4.5593999997e+01 4.5594000000e+01 5.1100000000e-04 0.0000e+00 -1.0000e+00
       23  2    1    2    0    0 +4.4408920985e-16 -7.1054273576e-15 +0.0000000000e+00 9.1188000000e+01 9.1188000000e+01 7.5936e-14 0.0000e+00
  9990012  2    3    3    0    0 +3.0826450929e+00 +3.7325342502e+01 +2.1930338330e+01 4.7787266908e+01 1.9999981140e+01 2.0095e-01 0.0000e+00
      -11  1    4    4    0    0 +2.1721527292e-01 -1.0886496961e+00 -2.5391541061e-01 1.1387773849e+00 5.1100000000e-04 0.0000e+00 1.0000e+00
       11  1    4    4    0    0 -4.3975736711e+00 +4.2777250069e+00 +3.4008842524e+00 7.0145277380e+00 5.1100000000e-04 0.0000e+00 -1.0000e+00
       12  1    4    4    0    0 +7.2630034911e+00 +3.4136267191e+01 +1.8783369488e+01 3.9633961785e+01 0.0000000000e+00 0.0000e+00 -1.0000e+00
      -12  1    3    3    0    0 -3.0826450929e+00 -3.7325342502e+01 -2.1930338330e+01 4.3400733092e+01 0.0000000000e+00 0.0000e+00 1.0000e+00
</event>
<event>
 8      4 +3.7482383e-04 9.11880000e+01 7.81616400e-03 1.18400000e-01
      -11 -1    0    0    0    0 +0.0000000000e+00 +0.0000000000e+00 +4.5593999997e+01 4.5594000000e+01 5.1100000000e-04 0.0000e+00 1.0000e+00
       11 -1    0    0    0    0 -0.0000000000e+00 -0.0000000000e+00 -4.5593999997e+01 4.5594000000e+01 5.1100000000e-04 0.0000e+00 -1.0000e+00
       23  2    1    2    0    0 +0.0000000000e+00 +3.5527136788e-15 +0.0000000000e+00 9.1188000000e+01 9.1188000000e+01 3.3429e-14 0.0000e+00
 -9990012  2    3    3    0    0 -2.6353392452e+01 -1.8600347922e+01 +2.9037049727e+01 4.7787256995e+01 1.9999935941e+01 4.9916e-02 0.0000e+00
      -11  1    4    4    0    0 -7.5364129790e-01 +5.9503712236e-01 +2.3797677197e+00 2.5661915446e+00 5.1100000000e-04 0.0000e+00 1.0000e+00
       11  1    4    4    0    0 -4.5515144887e+00 -3.1952959587e+00 +1.5602228519e+01 1.6563687253e+01 5.1100000000e-04 0.0000e+00 -1.0000e+00
      -12  1    4    4    0    0 -2.1048236665e+01 -1.6000089086e+01 +1.1055053489e+01 2.8657378197e+01 0.0000000000e+00 0.0000e+00 1.0000e+00
       12  1    3    3    0    0 +2.6353392452e+01 +1.8600347922e+01 -2.9037049727e+01 4.3400743005e+01 0.0000000000e+00 0.0000e+00 -1.0000e+00
</event>
<event>
 8      3 +3.7482383e-04 9.11880000e+01 7.81616400e-03 1.18400000e-01
      -11 -1    0    0    0    0 +0.0000000000e+00 +0.0000000000e+00 +4.5593999997e+01 4.5594000000e+01 5.1100000000e-04 0.0000e+00 1.0000e+00
       11 -1    0    0    0    0 -0.0000000000e+00 -0.0000000000e+00 -4.5593999997e+01 4.5594000000e+01 5.1100000000e-04 0.0000e+00 -1.0000e+00
       23  2    1    2    0    0 +0.0000000000e+00 +3.5527136788e-15 +8.8817841970e-16 9.1188000000e+01 9.1188000000e+01 1.3016e-13 0.0000e+00
  9990012  2    3    3    0    0 +3.0063971351e+01 -3.0321025129e+01 -7.7727999007e+00 4.7787270092e+01 1.9999995656e+01 4.2103e-02 0.0000e+00
      -11  1    4    4    0    0 +6.5709245316e+00 -3.1184895049e+00 +5.0766160568e+00 8.8698397303e+00 5.1100000000e-04 0.0000e+00 1.0000e+00
       11  1    4    4    0    0 +2.3141213122e+00 -3.4542867303e+00 +8.9940077313e-01 4.2539600697e+00 5.1100000000e-04 0.0000e+00 -1.0000e+00
       12  1    4    4    0    0 +2.1178925507e+01 -2.3748248894e+01 -1.3748816731e+01 3.4663470292e+01 0.0000000000e+00 0.0000e+00 -1.0000e+00
      -12  1    3    3    0    0 -3.0063971351e+01 +3.0321025129e+01 +7.7727999007e+00 4.3400729908e+01 0.0000000000e+00 0.0000e+00 1.0000e+00
</event>
<event>
 8      4 +3.7482383e-04 9.11880000e+01 7.81616400e-03 1.18400000e-01
      -11 -1    0    0    0    0 +0.0000000000e+00 +0.0000000000e+00 +4.5593999997e+01 4.5594000000e+01 5.1100000000e-04 0.0000e+00 1.0000e+00
       11 -1    0    0    0    0 -0.0000000000e+00 -0.0000000000e+00 -4.5593999997e+01 4.5594000000e+01 5.1100000000e-04 0.0000e+00 -1.0000e+00
       23  2    1    2    0    0 +0.0000000000e+00 +0.0000000000e+00 +0.0000000000e+00 9.1188000000e+01 9.1188000000e+01 2.8362e-15 0.0000e+00
 -9990012  2    3    3    0    0 -1.0075552685e+01 +2.1742098548e+01 +3.6185463616e+01 4.7787269726e+01 1.9999993990e+01 4.9949e-01 0.0000e+00
      -11  1    4    4    0    0 -1.3911903021e+01 +1.0591351764e+01 +1.5954001049e+01 2.3669556979e+01 5.1100000000e-04 0.0000e+00 1.0000e+00
       11  1    4    4    0    0 +1.8947133526e+00 +6.4002871789e+00 +5.9487120717e+00 8.9409613708e+00 5.1100000000e-04 0.0000e+00 -1.0000e+00
      -12  1    4    4    0    0 +1.9416369827e+00 +4.7504596043e+00 +1.4282750496e+01 1.5176751377e+01 0.0000000000e+00 0.0000e+00 1.0000e+00
       12  1    3    3    0    0 +1.0075552685e+01 -2.1742098548e+01 -3.6185463616e+01 4.3400730274e+01 0.0000000000e+00 0.0000e+00 -1.0000e+00
</event>
<event>
 8      4 +3.7482383e-04 9.11880000e+01 7.81616400e-03 1.18400000e-01
      -11 -1    0    0    0    0 +0.0000000000e+00 +0.0000000000e+00 +4.5593999997e+01 4.5594000000e+01 5.1100000000e-04 0.0000e+00 1.0000e+00
       11 -1    0    0    0    0 -0.0000000000e+00 -0.0000000000e+00 -4.5593999997e+01 4.5594000000e+01 5.1100000000e-04 0.0000e+00 -1.0000e+00
       23  2    1    2    0    0 +0.0000000000e+00 +0.0000000000e+00 +0.0000000000e+00 9.1188000000e+01 9.1188000000e+01 1.8471e-14 0.0000e+00
 -9990012  2    3    3    0    0 -3.8659814598e+01 +1.1929253492e+01 +1.5707813218e+01 4.7787265562e+01 1.9999975005e+01 3.1258e-01 0.0000e+00
      -11  1    4    4    0    0 -8.7950330661e+00 +6.3821880421e+00 +1.3383546374e+01 1.7239612659e+01 5.1100000000e-04 0.0000e+00 1.0000e+00
       11  1    4    4    0    0 -5.8433002713e+00 +8.2357680819e-01 -4.0261458316e-01 5.9147726570e+00 5.1100000000e-04 0.0000e+00 -1.0000e+00
      -12  1    4    4    0    0 -2.4021481260e+01 +4.7234886421e+00 +2.7268814275e+00 2.4632880246e+01 0.0000000000e+00 0.0000e+00 1.0000e+00
       12  1    3    3    0    0 +3.8659814598e+01 -1.1929253492e+01 -1.5707813218e+01 4.3400734438e+01 0.0000000000e+00 0.0000e+00 -1.0000e+00
</event>
<event>
 8      3 +3.7482383e-04 9.11880000e+01 7.81616400e-03 1.18400000e-01
      -11 -1    0    0    0    0 +0.0000000000e+00 +0.0000000000e+00 +4.5593999997e+01 4.5594000000e+01 5.1100000000e-04 0.0000e+00 1.0000e+00
       11 -1    0    0    0    0 -0.0000000000e+00 -0.0000000000e+00 -4.5593999997e+01 4.5594000000e+01 5.1100000000e-04 0.0000e+00 -1.0000e+00
       23  2    1    2    0    0 -6.6613381478e-16 +0.0000000000e+00 +0.0000000000e+00 9.1188000000e+01 9.1188000000e+01 1.7050e-13 0.0000e+00
  9990012  2    3    3    0    0 -1.4240846638e+00 -3.8052505028e+01 -2.0823115684e+01 4.7787270711e+01 1.9999998479e+01 4.4343e-01 0.0000e+00
      -11  1    4    4    0    0 -1.2364874340e+00 -1.0786875754e+01 +4.1765587021e-01 1.0865543078e+01 5.1100000000e-04 0.0000e+00 1.0000e+00
       11  1    4    4    0    0 +4.3361886346e+00 -2.4493023431e+01 -1.8012929651e+01 3.0711176525e+01 5.1100000000e-04 0.0000e+00 -1.0000e+00
       12  1    4    4    0    0 -4.5237858644e+00 -2.7726058433e+00 -3.2278419035e+00 6.2105511078e+00 0.0000000000e+00 0.0000e+00 -1.0000e+00
      -12  1    3    3    0    0 +1.4240846638e+00 +3.8052505028e+01 +2.0823115684e+01 4.3400729289e+01 0.0000000000e+00 0.0000e+00 1.0000e+00
</event>
<event>
 8      4 +3.7482383e-04 9.11880000e+01 7.81616400e-03 1.18400000e-01
      -11 -1    0    0    0    0 +0.0000000000e+00 +0.0000000000e+00 +4.5593999997e+01 4.5594000000e+01 5.1100000000e-04 0.0000e+00 -1.0000e+00
       11 -1    0    0    0    0 -0.0000000000e+00 -0.0000000000e+00 -4.5593999997e+01 4.5594000000e+01 5.1100000000e-04 0.0000e+00 1.0000e+00
       23  2    1    2    0    0 +1.7763568394e-15 -1.1102230246e-15 +0.0000000000e+00 9.1188000000e+01 9.1188000000e+01 8.1868e-14 0.0000e+00
 -9990012  2    3    3    0    0 -1.1131390309e+01 +5.4638686309e-01 -4.1945404694e+01 4.7787270009e+01 1.9999995277e+01 3.5246e-01 0.0000e+00
      -11  1    4    4    0    0 -9.1380859588e+00 -8.2221171932e+00 -2.7480511227e+01 3.0104589745e+01 5.1100000000e-04 0.0000e+00 1.0000e+00
       11  1    4    4    0    0 -1.8888970569e+00 +8.7718216777e-01 -1.7628426375e+00 2.7285518270e+00 5.1100000000e-04 0.0000e+00 -1.0000e+00
      -12  1    4    4    0    0 -1.0440729376e-01 +7.8913218885e+00 -1.2702050829e+01 1.4954128437e+01 0.0000000000e+00 0.0000e+00 1.0000e+00
       12  1    3    3    0    0 +1.1131390309e+01 -5.4638686309e-01 +4.1945404694e+01 4.3400729991e+01 0.0000000000e+00 0.0000e+00 -1.0000e+00
</event>
<event>
 8      4 +3.7482383e-04 9.11880000e+01 7.81616400e-03 1.18400000e-01
      -11 -1    0    0    0    0 +0.0000000000e+00 +0.0000000000e+00 +4.5593999997e+01 4.5594000000e+01 5.1100000000e-04 0.0000e+00 -1.0000e+00
       11 -1    0    0    0    0 -0.0000000000e+00 -0.0000000000e+00 -4.5593999997e+01 4.5594000000e+01 5.1100000000e-04 0.0000e+00 1.0000e+00
       23  2    1    2    0    0 +0.0000000000e+00 +0.0000000000e+00 +0.0000000000e+00 9.1188000000e+01 9.1188000000e+01 2.5940e-13 0.0000e+00
 -9990012  2    3    3    0    0 +3.1752077459e+01 +1.3592466542e+01 -2.6280694840e+01 4.7787257023e+01 1.9999936071e+01 8.5637e-03 0.0000e+00
      -11  1    4    4    0    0 +1.2387488477e+01 +5.3776089539e+00 -4.4801399209e+00 1.4228148256e+01 5.1100000000e-04 0.0000e+00 -1.0000e+00
       11  1    4    4    0    0 +3.2138035311e-02 -1.4529633483e+00 -7.5048999870e+00 7.6443220380e+00 5.1100000000e-04 0.0000e+00 1.0000e+00
      -12  1    4    4    0    0 +1.9332450947e+01 +9.6678209362e+00 -1.4295654932e+01 2.5914786729e+01 0.0000000000e+00 0.0000e+00 1.0000e+00
       12  1    3    3    0    0 -3.1752077459e+01 -1.3592466542e+01 +2.6280694840e+01 4.3400742977e+01 0.0000000000e+00 0.0000e+00 -1.0000e+00
</event>
<event>
 8      3 +3.7482383e-04 9.11880000e+01 7.81616400e-03 1.18400000e-01
      -11 -1    0    0    0    0 +0.0000000000e+00 +0.0000000000e+00 +4.5593999997e+01 4.5594000000e+01 5.1100000000e-04 0.0000e+00 1.0000e+00
       11 -1    0    0    0    0 -0.0000000000e+00 -0.0000000000e+00 -4.5593999997e+01 4.5594000000e+01 5.1100000000e-04 0.0000e+00 -1.0000e+00
       23  2    1    2    0    0 +0.0000000000e+00 +0.0000000000e+00 +3.5527136788e-15 9.1188000000e+01 9.1188000000e+01 5.1141e-14 0.0000e+00
  9990012  2    3    3    0    0 +9.9510725633e+00 +3.1188145356e+01 -2.8493831153e+01 4.7787278005e+01 2.0000031738e+01 9.8255e-02 0.0000e+00
      -11  1    4    4    0    0 +2.5878466561e+00 +7.6894976571e+00 -2.5508984976e+00 8.5048461444e+00 5.1100000000e-04 0.0000e+00 1.0000e+00
       11  1    4    4    0    0 -7.4632937178e-01 +8.5746384573e+00 -4.1086499484e-01 8.6168580416e+00 5.1100000000e-04 0.0000e+00 -1.0000e+00
       12  1    4    4    0    0 +8.1095552790e+00 +1.4924009241e+01 -2.5532067660e+01 3.0665573819e+01 0.0000000000e+00 0.0000e+00 -1.0000e+00
      -12  1    3    3    0    0 -9.9510725633e+00 -3.1188145356e+01 +2.8493831153e+01 4.3400721995e+01 0.0000000000e+00 0.0000e+00 1.0000e+00
</event>
<event>
 8      4 +3.7482383e-04 9.11880000e+01 7.81616400e-03 1.18400000e-01
      -11 -1    0    0    0    0 +0.0000000000e+00 +0.0000000000e+00 +4.5593999997e+01 4.5594000000e+01 5.1100000000e-04 0.0000e+00 1.0000e+00
       11 -1    0    0    0    0 -0.0000000000e+00 -0.0000000000e+00 -4.5593999997e+01 4.5594000000e+01 5.1100000000e-04 0.0000e+00 -1.0000e+00
       23  2    1    2    0    0 +0.0000000000e+00 -3.5527136788e-15 +0.0000000000e+00 9.1188000000e+01 9.1188000000e+01 6.6320e-15 0.0000e+00
 -9990012  2    3    3    0    0 +2.4591634619e+01 -2.7388107125e+01 -2.2994921277e+01 4.7787270633e+01 1.9999998122e+01 3.4816e-01 0.0000e+00
      -11  1    4    4    0    0 +1.2976214449e+01 -5.8395100148e+00 -7.8383393202e+00 1.6245663489e+01 5.1100000000e-04 0.0000e+00 1.0000e+00
       11  1    4    4    0    0 +5.7174893373e+00 -1.7396249476e+01 -4.8170207972e+00 1.8934700150e+01 5.1100000000e-04 0.0000e+00 -1.0000e+00
      -12  1    4    4    0    0 +5.8979308323e+00 -4.1523476346e+00 -1.0339561159e+01 1.2606906994e+01 0.0000000000e+00 0.0000e+00 1.0000e+00
       12  1    3    3    0    0 -2.4591634619e+01 +2.7388107125e+01 +2.2994921277e+01 4.3400729367e+01 0.0000000000e+00 0.0000e+00 -1.0000e+00
</event>
<event>
 8      4 +3.7482383e-04 9.11880000e+01 7.81616400e-03 1.18400000e-01
      -11 -1    0    0    0    0 +0.0000000000e+00 +0.0000000000e+00 +4.5593999997e+01 4.5594000000e+01 5.1100000000e-04 0.0000e+00 -1.0000e+00
       11 -1    0    0    0    0 -0.0000000000e+00 -0.0000000000e+00 -4.5593999997e+01 4.5594000000e+01 5.1100000000e-04 0.0000e+00 1.0000e+00
       23  2    1    2    0    0 +0.0000000000e+00 +0.0000000000e+00 -7.1054273576e-15 9.1188000000e+01 9.1188000000e+01 1.3022e-14 0.0000e+00
 -9990012  2    3    3    0    0 +2.2306100789e+00 +1.3788138937e+01 -4.1091786077e+01 4.7787270978e+01 1.9999999695e+01 6.1103e-02 0.0000e+00
      -11  1    4    4    0    0 -3.9147609307e+00 +3.8412181208e+00 -3.8508820703e+00 6.7014627341e+00 5.1100000000e-04 0.0000e+00 1.0000e+00
       11  1    4    4    0    0 +6.7037932922e+00 +6.5390263746e+00 -1.0285567685e+01 1.3910162231e+01 5.1100000000e-04 0.0000e+00 -1.0000e+00
      -12  1    4    4    0    0 -5.5842228257e-01 +3.4078944413e+00 -2.6955336322e+01 2.7175646012e+01 0.0000000000e+00 0.0000e+00 1.0000e+00
       12  1    3    3    0    0 -2.2306100789e+00 -1.3788138937e+01 +4.1091786077e+01 4.3400729022e+01 0.0000000000e+00 0.0000e+00 -1.0000e+00
</event>
<event>
 8      3 +3.7482383e-04 9.11880000e+01 7.81616400e-03 1.18400000e-01
      -11 -1    0    0    0    0 +0.0000000000e+00 +0.0000000000e+00 +4.5593999997e+01 4.5594000000e+01 5.1100000000e-04 0.0000e+00 -1.0000e+00
       11 -1    0    0    0    0 -0.0000000000e+00 -0.0000000000e+00 -4.5593999997e+01 4.5594000000e+01 5.1100000000e-04 0.0000e+00 1.0000e+00
       23  2    1    2    0    0 +0.0000000000e+00 +0.0000000000e+00 -1.7763568394e-15 9.1188000000e+01 9.1188000000e+01 9.2614e-15 0.0000e+00
  9990012  2    3    3    0    0 +1.3063072375e+01 -3.9624871801e+01 +1.1951939810e+01 4.7787272007e+01 2.0000004389e+01 5.5741e-01 0.0000e+00
      -11  1    4    4    0    0 -2.0355429506e+00 -1.0487768825e+00 +2.4193121092e-01 2.3025852915e+00 5.1100000000e-04 0.0000e+00 1.0000e+00
       11  1    4    4    0    0 +1.2747797807e+01 -2.8776340819e+01 +2.0745908188e+00 3.1541846287e+01 5.1100000000e-04 0.0000e+00 -1.0000e+00
       12  1    4    4    0    0 +2.3508175181e+00 -9.7997540991e+00 +9.6354177803e+00 1.3942840428e+01 0.0000000000e+00 0.0000e+00 -1.0000e+00
      -12  1    3    3    0    0 -1.3063072375e+01 +3.9624871801e+01 -1.1951939810e+01 4.3400727993e+01 0.0000000000e+00 0.0000e+00 1.0000e+00
</event>
<event>
 8      3 +3.7482383e-04 9.11880000e+01 7.81616400e-03 1.18400000e-01
      -11 -1    0    0    0    0 +0.0000000000e+00 +0.0000000000e+00 +4.5593999997e+01 4.5594000000e+01 5.1100000000e-04 0.0000e+00 1.0000e+00
       11 -1    0    0    0    0 -0.0000000000e+00 -0.0000000000e+00 -4.5593999997e+01 4.5594000000e+01 5.1100000000e-04 0.0000e+00 -1.0000e+00
       23  2    1    2    0    0 -3.5527136788e-15 +0.0000000000e+00 +0.0000000000e+00 9.1188000000e+01 9.1188000000e+01 9.8463e-14 0.0000e+00
  9990012  2    3    3    0    0 +2.1363429029e+01 -1.6107746688e+01 -3.4172612995e+01 4.7787273253e+01 2.0000010071e+01 1.6635e-01 0.0000e+00
      -11  1    4    4    0    0 -8.5141929668e-01 +5.6419882619e-01 -3.7262180330e+00 3.8636687520e+00 5.1100000000e-04 0.0000e+00 1.0000e+00
       11  1    4    4    0    0 +2.0833288402e+01 -9.1590417720e+00 -1.6808368342e+01 2.8291963495e+01 5.1100000000e-04 0.0000e+00 -1.0000e+00
       12  1    4    4    0    0 +1.3815599234e+00 -7.5129037417e+00 -1.3638026620e+01 1.5631641006e+01 0.0000000000e+00 0.0000e+00 -1.0000e+00
      -12  1    3    3    0    0 -2.1363429029e+01 +1.6107746688e+01 +3.4172612995e+01 4.3400726747e+01 0.0000000000e+00 0.0000e+00 1.0000e+00
</event>
<event>
 8      4 +3.7482383e-04 9.11880000e+01 7.81616400e-03 1.18400000e-01
      -11 -1    0    0    0    0 +0.0000000000e+00 +0.0000000000e+00 +4.5593999997e+01 4.5594000000e+01 5.1100000000e-04 0.0000e+00 -1.0000e+00
       11 -1    0    0    0    0 -0.0000000000e+00 -0.0000000000e+00 -4.5593999997e+01 4.5594000000e+01 5.1100000000e-04 0.0000e+00 1.0000e+00
       23  2    1    2    0    0 +0.0000000000e+00 +3.5527136788e-15 +8.8817841970e-16 9.1188000000e+01 9.1188000000e+01 1.7123e-15 0.0000e+00
 -9990012  2    3    3    0    0 -3.7588544293e+01 -2.1068792443e+01 -5.1797962492e+00 4.7787274588e+01 2.0000016158e+01 2.9713e-01 0.0000e+00
      -11  1    4    4    0    0 -2.9554976789e+00 -6.9270648942e+00 -3.3707181145e-01 7.5387540248e+00 5.1100000000e-04 0.0000e+00 -1.0000e+00
       11  1    4    4    0    0 -2.5705261263e+01 -1.1334346533e+01 -9.6792226960e+00 2.9713889348e+01 5.1100000000e-04 0.0000e+00 1.0000e+00
      -12  1    4    4    0    0 -8.9277853510e+00 -2.8073810162e+00 +4.8364982583e+00 1.0534631215e+01 0.0000000000e+00 0.0000e+00 1.0000e+00
       12  1    3    3    0    0 +3.7588544293e+01 +2.1068792443e+01 +5.1797962492e+00 4.3400725412e+01 0.0000000000e+00 0.0000e+00 -1.0000e+00
</event>
<event>
 8      4 +3.7482383e-04 9.11880000e+01 7.81616400e-03 1.18400000e-01
      -11 -1    0    0    0    0 +0.0000000000e+00 +0.0000000000e+00 +4.5593999997e+01 4.5594000000e+01 5.1100000000e-04 0.0000e+00 1.0000e+00
       11 -1    0    0    0    0 -0.0000000000e+00 -0.0000000000e+00 -4.5593999997e+01 4.5594000000e+01 5.1100000000e-04 0.0000e+00 -1.0000e+00
       23  2    1    2    0    0 +0.0000000000e+00 +0.0000000000e+00 +0.0000000000e+00 9.1188000000e+01 9.1188000000e+01 5.5942e-14 0.0000e+00
 -9990012  2    3    3    0    0 +5.2933197350e+00 -4.1956498361e+01 +9.7599311626e+00 4.7787271379e+01 2.0000001527e+01 3.1066e-01 0.0000e+00
      -11  1    4    4    0    0 +9.0309761175e+00 -1.7246884686e+01 +4.1164469016e+00 1.9898710922e+01 5.1100000000e-04 0.0000e+00 1.0000e+00
       11  1    4    4    0    0 -3.5571166389e+00 -1.1476367753e+00 +1.0496431128e+00 3.8822544837e+00 5.1100000000e-04 0.0000e+00 -1.0000e+00
      -12  1    4    4    0    0 -1.8053974369e-01 -2.3561976900e+01 +4.5938411482e+00 2.4006305974e+01 0.0000000000e+00 0.0000e+00 1.0000e+00
       12  1    3    3    0    0 -5.2933197350e+00 +4.1956498361e+01 -9.7599311626e+00 4.3400728621e+01 0.0000000000e+00 0.0000e+00 -1.0000e+00
</event>
<event>
 8      4 +3.7482383e-04 9.11880000e+01 7.81616400e-03 1.18400000e-01
      -11 -1    0    0    0    0 +0.0000000000e+00 +0.0000000000e+00 +4.5593999997e+01 4.5594000000e+01 5.1100000000e-04 0.0000e+00 1.0000e+00
       11 -1    0    0    0    0 -0.0000000000e+00 -0.0000000000e+00 -4.5593999997e+01 4.5594000000e+01 5.1100000000e-04 0.0000e+00 -1.0000e+00
       23  2    1    2    0    0 +7.1054273576e-15 -3.5527136788e-15 -1.7763568394e-15 9.1188000000e+01 9.1188000000e+01 4.0180e-14 0.0000e+00
 -9990012  2    3    3    0    0 -3.7901314225e+01 +1.6679512646e+01 +1.2996441032e+01 4.7787271417e+01 2.0000001697e+01 2.4549e-01 0.0000e+00
      -11  1    4    4    0    0 -1.6323940715e+01 -1.4730711142e+00 +2.9816545119e+00 1.6659268977e+01 5.1100000000e-04 0.0000e+00 1.0000e+00
       11  1    4    4    0    0 -1.8069611751e+00 +4.0759166661e+00 -8.4748479709e-01 4.5383296596e+00 5.1100000000e-04 0.0000e+00 -1.0000e+00
      -12  1    4    4    0    0 -1.9770412335e+01 +1.4076667094e+01 +1.0862271317e+01 2.6589672780e+01 0.0000000000e+00 0.0000e+00 1.0000e+00
       12  1    3    3    0    0 +3.7901314225e+01 -1.6679512646e+01 -1.2996441032e+01 4.3400728583e+01 0.0000000000e+00 0.0000e+00 -1.0000e+00
</event>
<event>
 8      3 +3.7482383e-04 9.11880000e+01 7.81616400e-03 1.18400000e-01
      -11 -1    0    0    0    0 +0.0000000000e+00 +0.0000000000e+00 +4.5593999997e+01 4.5594000000e+01 5.1100000000e-04 0.0000e+00 1.0000e+00
       11 -1    0    0    0    0 -0.0000000000e+00 -0.0000000000e+00 -4.5593999997e+01 4.5594000000e+01 5.1100000000e-04 0.0000e+00 -1.0000e+00
       23  2    1    2    0    0 -3.5527136788e-15 +7.1054273576e-15 +8.8817841970e-16 9.1188000000e+01 9.1188000000e+01 2.6393e-14 0.0000e+00
  9990012  2    3    3    0    0 +2.2417997954e+01 -3.6890346947e+01 -4.4899682845e+00 4.7787261004e+01 1.9999954224e+01 3.8186e-01 0.0000e+00
      -11  1    4    4    0    0 +1.9307300707e+01 -3.3908596509e+01 -1.0148419738e+00 3.9033250983e+01 5.1100000000e-04 0.0000e+00 -1.0000e+00
       11  1    4    4    0    0 +3.5972848241e+00 +1.4511351901e-01 +5.4134799046e-01 3.6406831703e+00 5.1100000000e-04 0.0000e+00 1.0000e+00
       12  1    4    4    0    0 -4.8658757656e-01 -3.1268639570e+00 -4.0164743011e+00 5.1133268512e+00 0.0000000000e+00 0.0000e+00 -1.0000e+00
      -12  1    3    3    0    0 -2.2417997954e+01 +3.6890346947e+01 +4.4899682845e+00 4.3400738996e+01 0.0000000000e+00 0.0000e+00 1.0000e+00
</event>
<event>
 8      3 +3.7482383e-04 9.11880000e+01 7.81616400e-03 1.18400000e-01
      -11 -1    0    0    0    0 +0.0000000000e+00 +0.0000000000e+00 +4.5593999997e+01 4.5594000000e+01 5.1100000000e-04 0.0000e+00 -1.0000e+00
       11 -1    0    0    0    0 -0.0000000000e+00 -0.0000000000e+00 -4.5593999997e+01 4.5594000000e+01 5.1100000000e-04 0.0000e+00 1.0000e+00
       23  2    1    2    0    0 +7.1054273576e-15 +0.0000000000e+00 +4.4408920985e-16 9.1188000000e+01 9.1188000000e+01 8.8578e-14 0.0000e+00
  9990012  2    3    3    0    0 -3.8859560461e+01 -1.9015130124e+01 +3.4616047443e+00 4.7787270511e+01 1.9999997566e+01 5.3411e-01 0.0000e+00
      -11  1    4    4    0    0 -1.2207295710e+01 -1.1586762834e+01 +5.9434087400e+00 1.7849236657e+01 5.1100000000e-04 0.0000e+00 1.0000e+00
       11  1    4    4    0    0 -2.0742084614e+01 -2.3023180064e+00 +1.9262766773e+00 2.0958179416e+01 5.1100000000e-04 0.0000e+00 -1.0000e+00
       12  1    4    4    0    0 -5.9101801371e+00 -5.1260492833e+00 -4.4080806731e+00 8.9798544381e+00 0.0000000000e+00 0.0000e+00 -1.0000e+00
      -12  1    3    3    0    0 +3.8859560461e+01 +1.9015130124e+01 -3.4616047443e+00 4.3400729489e+01 0.0000000000e+00 0.0000e+00 1.0000e+00
</event>
<event>
 8      3 +3.7482383e-04 9.11880000e+01 7.81616400e-03 1.18400000e-01
      -11 -1    0    0    0    0 +0.0000000000e+00 +0.0000000000e+00 +4.5593999997e+01 4.5594000000e+01 5.1100000000e-04 0.0000e+00 1.0000e+00
       11 -1    0    0    0    0 -0.0000000000e+00 -0.0000000000e+00 -4.5593999997e+01 4.5594000000e+01 5.1100000000e-04 0.0000e+00 -1.0000e+00
       23  2    1    2    0    0 +0.0000000000e+00 +0.0000000000e+00 +0.0000000000e+00 9.1188000000e+01 9.1188000000e+01 6.2342e-15 0.0000e+00
  9990012  2    3    3    0    0 -3.6184718708e+01 -1.9799995621e+01 -1.3499971082e+01 4.7787275192e+01 2.0000018913e+01 9.5848e-02 0.0000e+00
      -11  1    4    4    0    0 -3.4538143203e+00 -1.7192344061e+00 -5.8822994633e+00 7.0346320117e+00 5.1100000000e-04 0.0000e+00 1.0000e+00
       11  1    4    4    0    0 -2.3594110875e+01 -5.2719038080e+00 -3.0381655794e+00 2.4366072480e+01 5.1100000000e-04 0.0000e+00 -1.0000e+00
       12  1    4    4    0    0 -9.1367935129e+00 -1.2808857407e+01 -4.5795060393e+00 1.6386570701e+01 0.0000000000e+00 0.0000e+00 -1.0000e+00
      -12  1    3    3    0    0 +3.6184718708e+01 +1.9799995621e+01 +1.3499971082e+01 4.3400724808e+01 0.0000000000e+00 0.0000e+00 1.0000e+00
</event>
<event>
 8      3 +3.7482383e-04 9.11880000e+01 7.81616400e-03 1.18400000e-01
      -11 -1    0    0    0    0 +0.0000000000e+00 +0.0000000000e+00 +4.5593999997e+01 4.5594000000e+01 5.1100000000e-04 0.0000e+00 -1.0000e+00
       11 -1    0    0    0    0 -0.0000000000e+00 -0.0000000000e+00 -4.5593999997e+01 4.5594000000e+01 5.1100000000e-04 0.0000e+00 1.0000e+00
       23  2    1    2    0    0 +2.2204460493e-16 -7.1054273576e-15 +8.8817841970e-16 9.1188000000e+01 9.1188000000e+01 4.7386e-14 0.0000e+00
  9990012  2    3    3    0    0 -1.1587757244e+00 -4.2723336328e+01 +7.5496378642e+00 4.7787271204e+01 2.0000000728e+01 3.3928e-02 0.0000e+00
      -11  1    4    4    0    0 +3.7432804161e+00 -7.6303516287e+00 +3.9753893533e+00 9.3828639030e+00 5.1100000000e-04 0.0000e+00 1.0000e+00
       11  1    4    4    0    0 -2.9190153192e+00 -2.7690933194e+01 +8.7154315862e+00 2.9176483331e+01 5.1100000000e-04 0.0000e+00 -1.0000e+00
       12  1    4    4    0    0 -1.9830408213e+00 -7.4020515053e+00 -5.1411830752e+00 9.2279239701e+00 0.0000000000e+00 0.0000e+00 -1.0000e+00
      -12  1    3    3    0    0 +1.1587757244e+00 +4.2723336328e+01 -7.5496378642e+00 4.3400728796e+01 0.0000000000e+00 0.0000e+00 1.0000e+00
</event>
<event>
 8      4 +3.7482383e-04 9.11880000e+01 7.81616400e-03 1.18400000e-01
      -11 -1    0    0    0    0 +0.0000000000e+00 +0.0000000000e+00 +4.5593999997e+01 4.5594000000e+01 5.1100000000e-04 0.0000e+00 -1.0000e+00
       11 -1    0    0    0    0 -0.0000000000e+00 -0.0000000000e+00 -4.5593999997e+01 4.5594000000e+01 5.1100000000e-04 0.0000e+00 1.0000e+00
       23  2    1    2    0    0 +0.0000000000e+00 +0.0000000000e+00 +0.0000000000e+00 9.1188000000e+01 9.1188000000e+01 1.6067e-13 0.0000e+00
 -9990012  2    3    3    0    0 -3.7753881103e+01 +1.1845530355e+01 -1.7831181974e+01 4.7787272145e+01 2.0000005017e+01 2.4443e-01 0.0000e+00
      -11  1    4    4    0    0 -2.2552483358e+00 +2.5122267438e+00 -4.4152242454e+00 5.5580242593e+00 5.1100000000e-04 0.0000e+00 1.0000e+00
       11  1    4    4    0    0 +6.9274403365e-01 +3.0623128403e+00 -4.3256183635e-02 3.1399881507e+00 5.1100000000e-04 0.0000e+00 -1.0000e+00
      -12  1    4    4    0    0 -3.6191376801e+01 +6.2709907713e+00 -1.3372701545e+01 3.9089259735e+01 0.0000000000e+00 0.0000e+00 1.0000e+00
       12  1    3    3    0    0 +3.7753881103e+01 -1.1845530355e+01 +1.7831181974e+01 4.3400727855e+01 0.0000000000e+00 0.0000e+00 -1.0000e+00
</event>
<event>
 8      4 +3.7482383e-04 9.11880000e+01 7.81616400e-03 1.18400000e-01
      -11 -1    0    0    0    0 +0.0000000000e+00 +0.0000000000e+00 +4.5593999997e+01 4.5594000000e+01 5.1100000000e-04 0.0000e+00 -1.0000e+00
       11 -1    0    0    0    0 -0.0000000000e+00 -0.0000000000e+00 -4.5593999997e+01 4.5594000000e+01 5.1100000000e-04 0.0000e+00 1.0000e+00
       23  2    1    2    0    0 +0.0000000000e+00 +0.0000000000e+00 +0.0000000000e+00 9.1188000000e+01 9.1188000000e+01 1.0892e-13 0.0000e+00
 -9990012  2    3    3    0    0 +2.2359871714e+01 +3.3430080491e+01 +1.6312267988e+01 4.7787260011e+01 1.9999949692e+01 2.0495e-01 0.0000e+00
      -11  1    4    4    0    0 +6.3679157862e+00 +1.9594209841e+01 +1.2015597533e+01 2.3850744120e+01 5.1100000000e-04 0.0000e+00 1.0000e+00
       11  1    4    4    0    0 -5.0346158764e-01 +9.3009415983e-01 -1.8308834969e+00 2.1143990534e+00 5.1100000000e-04 0.0000e+00 -1.0000e+00
      -12  1    4    4    0    0 +1.6495417515e+01 +1.2905776491e+01 +6.1275539522e+00 2.1822116837e+01 0.0000000000e+00 0.0000e+00 1.0000e+00
       12  1    3    3    0    0 -2.2359871714e+01 -3.3430080491e+01 -1.6312267988e+01 4.3400739989e+01 0.0000000000e+00 0.0000e+00 -1.0000e+00
</event>
<event>
 8      4 +3.7482383e-04 9.11880000e+01 7.81616400e-03 1.18400000e-01
      -11 -1    0    0    0    0 +0.0000000000e+00 +0.0000000000e+00 +4.5593999997e+01 4.5594000000e+01 5.1100000000e-04 0.0000e+00 1.0000e+00
       11 -1    0    0    0    0 -0.0000000000e+00 -0.0000000000e+00 -4.5593999997e+01 4.5594000000e+01 5.1100000000e-04 0.0000e+00 -1.0000e+00
       23  2    1    2    0    0 +0.0000000000e+00 +0.0000000000e+00 +0.0000000000e+00 9.1188000000e+01 9.1188000000e+01 2.9665e-13 0.0000e+00
 -9990012  2    3    3    0    0 -2.7253010976e+01 +2.5394216683e+01 +2.2271744725e+01 4.7787268885e+01 1.9999990155e+01 4.5679e-02 0.0000e+00
      -11  1    4    4    0    0 -2.8156202070e+01 +2.4154398706e+01 +2.4101990188e+01 4.4239265626e+01 5.1100000000e-04 0.0000e+00 1.0000e+00
       11  1    4    4    0    0 +5.1117932718e-01 -7.8953910952e-01 -8.1824305663e-01 1.2466748858e+00 5.1100000000e-04 0.0000e+00 -1.0000e+00
      -12  1    4    4    0    0 +3.9201176687e-01 +2.0293570864e+00 -1.0120024064e+00 2.3013283729e+00 0.0000000000e+00 0.0000e+00 1.0000e+00
       12  1    3    3    0    0 +2.7253010976e+01 -2.5394216683e+01 -2.2271744725e+01 4.3400731115e+01 0.0000000000e+00 0.0000e+00 -1.0000e+00
</event>
<event>
 8      4 +3.7482383e-04 9.11880000e+01 7.81616400e-03 1.18400000e-01
      -11 -1    0    0    0    0 +0.0000000000e+00 +0.0000000000e+00 +4.5593999997e+01 4.5594000000e+01 5.1100000000e-04 0.0000e+00 -1.0000e+00
       11 -1    0    0    0    0 -0.0000000000e+00 -0.0000000000e+00 -4.5593999997e+01 4.5594000000e+01 5.1100000000e-04 0.0000e+00 1.0000e+00
       23  2    1    2    0    0 +0.0000000000e+00 +0.0000000000e+00 +7.1054273576e-15 9.1188000000e+01 9.1188000000e+01 6.4004e-14 0.0000e+00
 -9990012  2    3    3    0    0 -7.8969667366e+00 +2.5956795346e+01 -3.3874854117e+01 4.7787273627e+01 2.0000011776e+01 1.0136e-01 0.0000e+00
      -11  1    4    4    0    0 -7.4648975468e+00 +6.3849687110e+00 -1.9590623969e+01 2.1915407105e+01 5.1100000000e-04 0.0000e+00 1.0000e+00
       11  1    4    4    0    0 +2.9855800842e+00 +3.7175072830e+00 -5.9887749875e+00 7.6549967310e+00 5.1100000000e-04 0.0000e+00 -1.0000e+00
      -12  1    4    4    0    0 -3.4176492741e+00 +1.5854319352e+01 -8.2954551597e+00 1.8216869791e+01 0.0000000000e+00 0.0000e+00 1.0000e+00
       12  1    3    3    0    0 +7.8969667366e+00 -2.5956795346e+01 +3.3874854117e+01 4.3400726373e+01 0.0000000000e+00 0.0000e+00 -1.0000e+00
</event>
<event>
 8      3 +3.7482383e-04 9.11880000e+01 7.81616400e-03 1.18400000e-01
      -11 -1    0    0    0    0 +0.0000000000e+00 +0.0000000000e+00 +4.5593999997e+01 4.5594000000e+01 5.1100000000e-04 0.0000e+00 1.0000e+00
       11 -1    0    0    0    0 -0.0000000000e+00 -0.0000000000e+00 -4.5593999997e+01 4.5594000000e+01 5.1100000000e-04 0.0000e+00 -1.0000e+00
       23  2    1    2    0    0 +0.0000000000e+00 +1.1102230246e-15 +3.5527136788e-15 9.1188000000e+01 9.1188000000e+01 3.6883e-15 0.0000e+00
  9990012  2    3    3    0    0 -4.0532822577e+01 -1.2533418207e+00 -1.5464231532e+01 4.7787273869e+01 2.0000012879e+01 3.5838e-01 0.0000e+00
      -11  1    4    4    0    0 -1.5634935909e+01 +4.3638070562e+00 -8.6241293939e+00 1.8381230671e+01 5.1100000000e-04 0.0000e+00 1.0000e+00
       11  1    4    4    0    0 -2.0253159654e+01 +1.3674700228e-01 -8.2654883348e+00 2.1875270819e+01 5.1100000000e-04 0.0000e+00 -1.0000e+00
       12  1    4    4    0    0 -4.6447270143e+00 -5.7538958792e+00 +1.4253861967e+00 7.5307723798e+00 0.0000000000e+00 0.0000e+00 -1.0000e+00
      -12  1    3    3    0    0 +4.0532822577e+01 +1.2533418207e+00 +1.5464231532e+01 4.3400726131e+01 0.0000000000e+00 0.0000e+00 1.0000e+00
</event>
<event>
 8      4 +3.7482383e-04 9.11880000e+01 7.81616400e-03 1.18400000e-01
      -11 -1    0    0    0    0 +0.0000000000e+00 +0.0000000000e+00 +4.5593999997e+01 4.5594000000e+01 5.1100000000e-04 0.0000e+00 -1.0000e+00
       11 -1    0    0    0    0 -0.0000000000e+00 -0.0000000000e+00 -4.5593999997e+01 4.5594000000e+01 5.1100000000e-04 0.0000e+00 1.0000e+00
       23  2    1    2    0    0 +7.1054273576e-15 +6.6613381478e-16 -3.5527136788e-15 9.1188000000e+01 9.1188000000e+01 1.9162e-13 0.0000e+00
 -9990012  2    3    3    0    0 +3.9528328611e+01 -1.1821518905e+00 +1.7881182499e+01 4.7787274966e+01 2.0000017882e+01 3.5005e-01 0.0000e+00
      -11  1    4    4    0    0 +2.3047602493e+01 -4.8852677792e+00 +5.6995174880e-01 2.3566558239e+01 5.1100000000e-04 0.0000e+00 1.0000e+00
       11  1    4    4    0    0 +1.3094510279e+01 +2.7685565854e+00 +1.4389098936e+01 1.9651393678e+01 5.1100000000e-04 0.0000e+00 -1.0000e+00
      -12  1    4    4    0    0 +3.3862158389e+00 +9.3455930332e-01 +2.9221318134e+00 4.5693230499e+00 0.0000000000e+00 0.0000e+00 1.0000e+00
       12  1    3    3    0    0 -3.9528328611e+01 +1.1821518905e+00 -1.7881182499e+01 4.3400725034e+01 0.0000000000e+00 0.0000e+00 -1.0000e+00
</event>
<event>
 8      3 +3.7482383e-04 9.11880000e+01 7.81616400e-03 1.18400000e-01
      -11 -1    0    0    0    0 +0.0000000000e+00 +0.0000000000e+00 +4.5593999997e+01 4.5594000000e+01 5.1100000000e-04 0.0000e+00 1.0000e+00
       11 -1    0    0    0    0 -0.0000000000e+00 -0.0000000000e+00 -4.5593999997e+01 4.5594000000e+01 5.1100000000e-04 0.0000e+00 -1.0000e+00
       23  2    1    2    0    0 +0.0000000000e+00 +0.0000000000e+00 +0.0000000000e+00 9.1188000000e+01 9.1188000000e+01 8.1384e-14 0.0000e+00
  9990012  2    3    3    0    0 -2.9388719826e+01 +3.0665855085e+01 -8.9180682157e+00 4.7787268879e+01 1.9999990128e+01 1.0943e-01 0.0000e+00
      -11  1    4    4    0    0 -4.9509847381e+00 -2.2516460574e-02 -1.9311580266e+00 5.3143323619e+00 5.1100000000e-04 0.0000e+00 1.0000e+00
       11  1    4    4    0    0 -2.4939612245e+01 +2.9001040730e+01 -3.3055588704e+00 3.8392334418e+01 5.1100000000e-04 0.0000e+00 -1.0000e+00
       12  1    4    4    0    0 +5.0187715682e-01 +1.6873308158e+00 -3.6813513187e+00 4.0806020995e+00 0.0000000000e+00 0.0000e+00 -1.0000e+00
      -12  1    3    3    0    0 +2.9388719826e+01 -3.0665855085e+01 +8.9180682157e+00 4.3400731121e+01 0.0000000000e+00 0.0000e+00 1.0000e+00
</event>
<event>
 8      3 +3.7482383e-04 9.11880000e+01 7.81616400e-03 1.18400000e-01
      -11 -1    0    0    0    0 +0.0000000000e+00 +0.0000000000e+00 +4.5593999997e+01 4.5594000000e+01 5.1100000000e-04 0.0000e+00 -1.0000e+00
       11 -1    0    0    0    0 -0.0000000000e+00 -0.0000000000e+00 -4.5593999997e+01 4.5594000000e+01 5.1100000000e-04 0.0000e+00 1.0000e+00
       23  2    1    2    0    0 +0.0000000000e+00 -1.7763568394e-15 +0.0000000000e+00 9.1188000000e+01 9.1188000000e+01 1.0736e-13 0.0000e+00
  9990012  2    3    3    0    0 +3.6865689570e+01 -1.3725144774e+01 +1.8334797007e+01 4.7787269040e+01 1.9999990861e+01 2.2517e-01 0.0000e+00
      -11  1    4    4    0    0 +2.4598118427e+00 -5.9293966283e+00 +5.0995873807e+00 8.1984273122e+00 5.1100000000e-04 0.0000e+00 1.0000e+00
       11  1    4    4    0    0 +1.0888809712e+01 +8.6979130821e-01 -6.3881266232e-01 1.0942156814e+01 5.1100000000e-04 0.0000e+00 -1.0000e+00
       12  1    4    4    0    0 +2.3517068015e+01 -8.6655394541e+00 +1.3874022289e+01 2.8646684913e+01 0.0000000000e+00 0.0000e+00 -1.0000e+00
      -12  1    3    3    0    0 -3.6865689570e+01 +1.3725144774e+01 -1.8334797007e+01 4.3400730960e+01 0.0000000000e+00 0.0000e+00 1.0000e+00
</event>
<event>
 8      4 +3.7482383e-04 9.11880000e+01 7.81616400e-03 1.18400000e-01
      -11 -1    0    0    0    0 +0.0000000000e+00 +0.0000000000e+00 +4.5593999997e+01 4.5594000000e+01 5.1100000000e-04 0.0000e+00 1.0000e+00
       11 -1    0    0    0    0 -0.0000000000e+00 -0.0000000000e+00 -4.5593999997e+01 4.5594000000e+01 5.1100000000e-04 0.0000e+00 -1.0000e+00
       23  2    1    2    0    0 +0.0000000000e+00 +3.5527136788e-15 -3.5527136788e-15 9.1188000000e+01 9.1188000000e+01 3.8283e-14 0.0000e+00
 -9990012  2    3    3    0    0 +4.5058700224e+00 -3.0880455785e+01 +3.0161506127e+01 4.7787287264e+01 2.0000073951e+01 5.3098e-01 0.0000e+00
      -11  1    4    4    0    0 +7.2906995865e+00 -1.9952807327e+01 +2.2847068307e+01 3.1197072798e+01 5.1100000000e-04 0.0000e+00 1.0000e+00
       11  1    4    4    0    0 -4.9141506004e+00 -4.8173158987e+00 +7.4183518957e+00 1.0118663632e+01 5.1100000000e-04 0.0000e+00 -1.0000e+00
      -12  1    4    4    0    0 +2.1293210363e+00 -6.1103325591e+00 -1.0391407518e-01 6.4715508337e+00 0.0000000000e+00 0.0000e+00 1.0000e+00
       12  1    3    3    0    0 -4.5058700224e+00 +3.0880455785e+01 -3.0161506127e+01 4.3400712736e+01 0.0000000000e+00 0.0000e+00 -1.0000e+00
</event>
<event>
 8      4 +3.7482383e-04 9.11880000e+01 7.81616400e-03 1.18400000e-01
      -11 -1    0    0    0    0 +0.0000000000e+00 +0.0000000000e+00 +4.5593999997e+01 4.5594000000e+01 5.1100000000e-04 0.0000e+00 -1.0000e+00
       11 -1    0    0    0    0 -0.0000000000e+00 -0.0000000000e+00 -4.5593999997e+01 4.5594000000e+01 5.1100000000e-04 0.0000e+00 1.0000e+00
       23  2    1    2    0    0 +0.0000000000e+00 +0.0000000000e+00 +0.0000000000e+00 9.1188000000e+01 9.1188000000e+01 6.7368e-14 0.0000e+00
 -9990012  2    3    3    0    0 -8.6078597866e+00 +3.4329421512e+01 -2.5120090621e+01 4.7787269773e+01 1.9999994203e+01 7.0355e-02 0.0000e+00
      -11  1    4    4    0    0 +3.4719733459e+00 +1.6911156544e+01 -1.6228560808e+01 2.3694049901e+01 5.1100000000e-04 0.0000e+00 1.0000e+00
       11  1    4    4    0    0 -2.1789864138e+00 +7.6958419002e+00 -8.2042855526e-01 8.0403400189e+00 5.1100000000e-04 0.0000e+00 -1.0000e+00
      -12  1    4    4    0    0 -9.9008467187e+00 +9.7224230672e+00 -8.0711012582e+00 1.6052879853e+01 0.0000000000e+00 0.0000e+00 1.0000e+00
       12  1    3    3    0    0 +8.6078597866e+00 -3.4329421512e+01 +2.5120090621e+01 4.3400730227e+01 0.0000000000e+00 0.0000e+00 -1.0000e+00
</event>
<event>
 8      3 +3.7482383e-04 9.11880000e+01 7.81616400e-03 1.18400000e-01
      -11 -1    0    0    0    0 +0.0000000000e+00 +0.0000000000e+00 +4.5593999997e+01 4.5594000000e+01 5.1100000000e-04 0.0000e+00 1.0000e+00
       11 -1    0    0    0    0 -0.0000000000e+00 -0.0000000000e+00 -4.5593999997e+01 4.5594000000e+01 5.1100000000e-04 0.0000e+00 -1.0000e+00
       23  2    1    2    0    0 +2.2204460493e-16 -1.7763568394e-15 +7.1054273576e-15 9.1188000000e+01 9.1188000000e+01 4.2572e-14 0.0000e+00
  9990012  2    3    3    0    0 -1.6970047660e+00 -1.2723289234e+01 -4.1459153995e+01 4.7787270006e+01 1.9999995263e+01 8.5197e-01 0.0000e+00
      -11  1    4    4    0    0 -3.4883976701e+00 +3.3380355899e+00 -3.2193754851e+00 5.8030835492e+00 5.1100000000e-04 0.0000e+00 1.0000e+00
       11  1    4    4    0    0 +1.8118479548e+00 -5.4362833458e+00 -2.0688166311e+01 2.1467095639e+01 5.1100000000e-04 0.0000e+00 -1.0000e+00
       12  1    4    4    0    0 -2.0455050642e-02 -1.0625041478e+01 -1.7551612199e+01 2.0517090817e+01 0.0000000000e+00 0.0000e+00 -1.0000e+00
      -12  1    3    3    0    0 +1.6970047660e+00 +1.2723289234e+01 +4.1459153995e+01 4.3400729994e+01 0.0000000000e+00 0.0000e+00 1.0000e+00
</event>
<event>
 8      4 +3.7482383e-04 9.11880000e+01 7.81616400e-03 1.18400000e-01
      -11 -1    0    0    0    0 +0.0000000000e+00 +0.0000000000e+00 +4.5593999997e+01 4.5594000000e+01 5.1100000000e-04 0.0000e+00 1.0000e+00
       11 -1    0    0    0    0 -0.0000000000e+00 -0.0000000000e+00 -4.5593999997e+01 4.5594000000e+01 5.1100000000e-04 0.0000e+00 -1.0000e+00
       23  2    1    2    0    0 +0.0000000000e+00 -8.8817841970e-16 +0.0000000000e+00 9.1188000000e+01 9.1188000000e+01 5.4822e-14 0.0000e+00
 -9990012  2    3    3    0    0 +2.4151189737e+01 -5.7581185704e+00 +3.5597552073e+01 4.7787290227e+01 2.0000087461e+01 7.9920e-01 0.0000e+00
      -11  1    4    4    0    0 +1.1654384739e+01 -2.8165631677e-01 +1.4979266188e+01 1.8981107178e+01 5.1100000000e-04 0.0000e+00 1.0000e+00
       11  1    4    4    0    0 +7.2095955919e+00 +4.1530799801e+00 +1.3010796348e+01 1.5443677146e+01 5.1100000000e-04 0.0000e+00 -1.0000e+00
      -12  1    4    4    0    0 +5.2872094063e+00 -9.6295422338e+00 +7.6074895369e+00 1.3362505902e+01 0.0000000000e+00 0.0000e+00 1.0000e+00
       12  1    3    3    0    0 -2.4151189737e+01 +5.7581185704e+00 -3.5597552073e+01 4.3400709773e+01 0.0000000000e+00 0.0000e+00 -1.0000e+00
</event>
<event>
 8      4 +3.7482383e-04 9.11880000e+01 7.81616400e-03 1.18400000e-01
      -11 -1    0    0    0    0 +0.0000000000e+00 +0.0000000000e+00 +4.5593999997e+01 4.5594000000e+01 5.1100000000e-04 0.0000e+00 -1.0000e+00
       11 -1    0    0    0    0 -0.0000000000e+00 -0.0000000000e+00 -4.5593999997e+01 4.5594000000e+01 5.1100000000e-04 0.0000e+00 1.0000e+00
       23  2    1    2    0    0 +0.0000000000e+00 +0.0000000000e+00 +6.6613381478e-16 9.1188000000e+01 9.1188000000e+01 1.7809e-14 0.0000e+00
 -9990012  2    3    3    0    0 -1.9623447970e+01 -3.8701035340e+01 -8.7949886039e-01 4.7787269996e+01 1.9999995220e+01 4.8816e-01 0.0000e+00
      -11  1    4    4    0    0 -1.1201447987e+01 -1.8265798775e+01 +7.0917119053e+00 2.2569984933e+01 5.1100000000e-04 0.0000e+00 1.0000e+00
       11  1    4    4    0    0 +2.0770505542e-01 -1.3780761218e+00 -3.5795447597e+00 3.8412727234e+00 5.1100000000e-04 0.0000e+00 -1.0000e+00
      -12  1    4    4    0    0 -8.6297050387e+00 -1.9057160444e+01 -4.3916660060e+00 2.1376012339e+01 0.0000000000e+00 0.0000e+00 1.0000e+00
       12  1    3    3    0    0 +1.9623447970e+01 +3.8701035340e+01 +8.7949886039e-01 4.3400730004e+01 0.0000000000e+00 0.0000e+00 -1.0000e+00
</event>
<event>
 8      4 +3.7482383e-04 9.11880000e+01 7.81616400e-03 1.18400000e-01
      -11 -1    0    0    0    0 +0.0000000000e+00 +0.0000000000e+00 +4.5593999997e+01 4.5594000000e+01 5.1100000000e-04 0.0000e+00 -1.0000e+00
       11 -1    0    0    0    0 -0.0000000000e+00 -0.0000000000e+00 -4.5593999997e+01 4.5594000000e+01 5.1100000000e-04 0.0000e+00 1.0000e+00
       23  2    1    2    0    0 +0.0000000000e+00 +0.0000000000e+00 -3.5527136788e-15 9.1188000000e+01 9.1188000000e+01 1.3383e-13 0.0000e+00
 -9990012  2    3    3    0    0 -1.7240704864e+01 +3.2299055658e+01 -2.3305628808e+01 4.7787271495e+01 2.0000002054e+01 1.1635e-01 0.0000e+00
      -11  1    4    4    0    0 -3.7699188239e-01 -1.3994298088e-02 +1.9449915534e+00 1.9812397946e+00 5.1100000000e-04 0.0000e+00 1.0000e+00
       11  1    4    4    0    0 -1.1534040286e+01 +1.4922341426e+01 -7.2212065191e+00 2.0195449557e+01 5.1100000000e-04 0.0000e+00 -1.0000e+00
      -12  1    4    4    0    0 -5.3296726956e+00 +1.7390708530e+01 -1.8029413842e+01 2.5610582144e+01 0.0000000000e+00 0.0000e+00 1.0000e+00
       12  1    3    3    0    0 +1.7240704864e+01 -3.2299055658e+01 +2.3305628808e+01 4.3400728505e+01 0.0000000000e+00 0.0000e+00 -1.0000e+00
</event>
<event>
 8      4 +3.7482383e-04 9.11880000e+01 7.81616400e-03 1.18400000e-01
      -11 -1    0    0    0    0 +0.0000000000e+00 +0.0000000000e+00 +4.5593999997e+01 4.5594000000e+01 5.1100000000e-04 0.0000e+00 1.0000e+00
       11 -1    0    0    0    0 -0.0000000000e+00 -0.0000000000e+00 -4.5593999997e+01 4.5594000000e+01 5.1100000000e-04 0.0000e+00 -1.0000e+00
       23  2    1    2    0    0 +0.0000000000e+00 -4.4408920985e-16 +0.0000000000e+00 9.1188000000e+01 9.1188000000e+01 4.4444e-14 0.0000e+00
 -9990012  2    3    3    0    0 -4.1964912442e+01 -2.5675604645e+00 -1.0769345805e+01 4.7787250558e+01 1.9999906596e+01 4.6609e-01 0.0000e+00
      -11  1    4    4    0    0 -2.9472360339e+01 +1.8192023651e+00 -7.2298225605e+00 3.0400655514e+01 5.1100000000e-04 0.0000e+00 1.0000e+00
       11  1    4    4    0    0 +1.4837258956e+00 +1.0373599178e+00 -1.2989218593e+00 2.2281733303e+00 5.1100000000e-04 0.0000e+00 -1.0000e+00
      -12  1    4    4    0    0 -1.3976277999e+01 -5.4241227474e+00 -2.2406013855e+00 1.5158421714e+01 0.0000000000e+00 0.0000e+00 1.0000e+00
       12  1    3    3    0    0 +4.1964912442e+01 +2.5675604645e+00 +1.0769345805e+01 4.3400749442e+01 0.0000000000e+00 0.0000e+00 -1.0000e+00
</event>
<event>
 8      3 +3.7482383e-04 9.11880000e+01 7.81616400e-03 1.18400000e-01
      -11 -1    0    0    0    0 +0.0000000000e+00 +0.0000000000e+00 +4.5593999997e+01 4.5594000000e+01 5.1100000000e-04 0.0000e+00 1.0000e+00
       11 -1    0    0    0    0 -0.0000000000e+00 -0.0000000000e+00 -4.5593999997e+01 4.5594000000e+01 5.1100000000e-04 0.0000e+00 -1.0000e+00
       23  2    1    2    0    0 +0.0000000000e+00 +1.0658141036e-14 +0.0000000000e+00 9.1188000000e+01 9.1188000000e+01 7.6780e-14 0.0000e+00
  9990012  2    3    3    0    0 +3.3751089656e+01 -2.6566956673e+01 +6.2196841770e+00 4.7787266007e+01 1.9999977035e+01 5.5378e-01 0.0000e+00
      -11  1    4    4    0    0 +2.4630188520e+01 -2.3017493722e+01 +9.4210147682e+00 3.5002953065e+01 5.1100000000e-04 0.0000e+00 1.0000e+00
       11  1    4    4    0    0 +7.1433313291e+00 +1.1472732548e+00 -2.4187646465e+00 7.6284887805e+00 5.1100000000e-04 0.0000e+00 -1.0000e+00
       12  1    4    4    0    0 +1.9775698069e+00 -4.6967362056e+00 -7.8256594477e-01 5.1558241615e+00 0.0000000000e+00 0.0000e+00 -1.0000e+00
      -12  1    3    3    0    0 -3.3751089656e+01 +2.6566956673e+01 -6.2196841770e+00 4.3400733993e+01 0.0000000000e+00 0.0000e+00 1.0000e+00
</event>
<event>
 8      4 +3.7482383e-04 9.11880000e+01 7.81616400e-03 1.18400000e-01
      -11 -1    0    0    0    0 +0.0000000000e+00 +0.0000000000e+00 +4.5593999997e+01 4.5594000000e+01 5.1100000000e-04 0.0000e+00 -1.0000e+00
       11 -1    0    0    0    0 -0.0000000000e+00 -0.0000000000e+00 -4.5593999997e+01 4.5594000000e+01 5.1100000000e-04 0.0000e+00 1.0000e+00
       23  2    1    2    0    0 +0.0000000000e+00 +0.0000000000e+00 +0.0000000000e+00 9.1188000000e+01 9.1188000000e+01 6.3550e-14 0.0000e+00
 -9990012  2    3    3    0    0 -2.7973969962e+01 +3.2942841478e+01 +3.9811202237e+00 4.7787272837e+01 2.0000008172e+01 1.5749e-01 0.0000e+00
      -11  1    4    4    0    0 -2.6076971494e+01 +2.1548503919e+01 +2.5053061420e+00 3.3920834639e+01 5.1100000000e-04 0.0000e+00 1.0000e+00
       11  1    4    4    0    0 -3.9989547882e+00 +6.5483457778e+00 +3.1950310174e+00 8.3114797291e+00 5.1100000000e-04 0.0000e+00 -1.0000e+00
      -12  1    4    4    0    0 +2.1019563209e+00 +4.8459917816e+00 -1.7192169357e+00 5.5549584692e+00 0.0000000000e+00 0.0000e+00 1.0000e+00
       12  1    3    3    0    0 +2.7973969962e+01 -3.2942841478e+01 -3.9811202237e+00 4.3400727163e+01 0.0000000000e+00 0.0000e+00 -1.0000e+00
</event>
<event>
 8      3 +3.7482383e-04 9.11880000e+01 7.81616400e-03 1.18400000e-01
      -11 -1    0    0    0    0 +0.0000000000e+00 +0.0000000000e+00 +4.5593999997e+01 4.5594000000e+01 5.1100000000e-04 0.0000e+00 -1.0000e+00
       11 -1    0    0    0    0 -0.0000000000e+00 -0.0000000000e+00 -4.5593999997e+01 4.5594000000e+01 5.1100000000e-04 0.0000e+00 1.0000e+00
       23  2    1    2    0    0 +0.0000000000e+00 +0.0000000000e+00 +8.8817841970e-16 9.1188000000e+01 9.1188000000e+01 1.9276e-13 0.0000e+00
  9990012  2    3    3    0    0 +2.3089215622e+01 -3.6277730496e+01 +5.8683838223e+00 4.7787268017e+01 1.9999986197e+01 2.7652e-01 0.0000e+00
      -11  1    4    4    0    0 +1.9346156816e+00 -2.9519760751e+00 -2.7417242958e+00 4.4692228585e+00 5.1100000000e-04 0.0000e+00 1.0000e+00
       11  1    4    4    0    0 +9.5087109803e+00 -2.1828968687e+01 -1.8729284983e+00 2.3883620326e+01 5.1100000000e-04 0.0000e+00 -1.0000e+00
       12  1    4    4    0    0 +1.1645888960e+01 -1.1496785733e+01 +1.0483036616e+01 1.9434424833e+01 0.0000000000e+00 0.0000e+00 -1.0000e+00
      -12  1    3    3    0    0 -2.3089215622e+01 +3.6277730496e+01 -5.8683838223e+00 4.3400731983e+01 0.0000000000e+00 0.0000e+00 1.0000e+00
</event>
<event>
 8      4 +3.7482383e-04 9.11880000e+01 7.81616400e-03 1.18400000e-01
      -11 -1    0    0    0    0 +0.0000000000e+00 +0.0000000000e+00 +4.5593999997e+01 4.5594000000e+01 5.1100000000e-04 0.0000e+00 -1.0000e+00
       11 -1    0    0    0    0 -0.0000000000e+00 -0.0000000000e+00 -4.5593999997e+01 4.5594000000e+01 5.1100000000e-04 0.0000e+00 1.0000e+00
       23  2    1    2    0    0 +0.0000000000e+00 +0.0000000000e+00 +0.0000000000e+00 9.1188000000e+01 9.1188000000e+01 6.0253e-14 0.0000e+00
 -9990012  2    3    3    0    0 +1.5030052095e+01 -5.2877198694e+00 -4.0370289588e+01 4.7787277323e+01 2.0000028628e+01 2.5039e-02 0.0000e+00
      -11  1    4    4    0    0 +1.4476996719e+01 +1.5992178855e+00 -2.9700807960e+01 3.3079887025e+01 5.1100000000e-04 0.0000e+00 1.0000e+00
       11  1    4    4    0    0 +1.2946543522e+00 -7.8797782811e+00 -6.3169772152e+00 1.0181907338e+01 5.1100000000e-04 0.0000e+00 -1.0000e+00
      -12  1    4    4    0    0 -7.4159897626e-01 +9.9284052624e-01 -4.3525044129e+00 4.5254829595e+00 0.0000000000e+00 0.0000e+00 1.0000e+00
       12  1    3    3    0    0 -1.5030052095e+01 +5.2877198694e+00 +4.0370289588e+01 4.3400722677e+01 0.0000000000e+00 0.0000e+00 -1.0000e+00
</event>
<event>
 8      3 +3.7482383e-04 9.11880000e+01 7.81616400e-03 1.18400000e-01
      -11 -1    0    0    0    0 +0.0000000000e+00 +0.0000000000e+00 +4.5593999997e+01 4.5594000000e+01 5.1100000000e-04 0.0000e+00 1.0000e+00
       11 -1    0    0    0    0 -0.0000000000e+00 -0.0000000000e+00 -4.5593999997e+01 4.5594000000e+01 5.1100000000e-04 0.0000e+00 -1.0000e+00
       23  2    1    2    0    0 +1.7763568394e-15 +0.0000000000e+00 +0.0000000000e+00 9.1188000000e+01 9.1188000000e+01 5.8521e-14 0.0000e+00
  9990012  2    3    3    0    0 +9.7784524102e+00 -1.5738749603e+01 -3.9246617286e+01 4.7787270294e+01 1.9999996578e+01 3.5555e-01 0.0000e+00
      -11  1    4    4    0    0 +2.4217442840e+00 -2.7734712046e+00 -2.0196953702e+00 4.1995425405e+00 5.1100000000e-04 0.0000e+00 1.0000e+00
       11  1    4    4    0    0 -3.2708511423e+00 -4.0956798200e-01 -4.8543066908e-01 3.3319448259e+00 5.1100000000e-04 0.0000e+00 -1.0000e+00
       12  1    4    4    0    0 +1.0627559269e+01 -1.2555710416e+01 -3.6741491247e+01 4.0255782928e+01 0.0000000000e+00 0.0000e+00 -1.0000e+00
      -12  1    3    3    0    0 -9.7784524102e+00 +1.5738749603e+01 +3.9246617286e+01 4.3400729706e+01 0.0000000000e+00 0.0000e+00 1.0000e+00
</event>
<event>
 8      4 +3.7482383e-04 9.11880000e+01 7.81616400e-03 1.18400000e-01
      -11 -1    0    0    0    0 +0.0000000000e+00 +0.0000000000e+00 +4.5593999997e+01 4.5594000000e+01 5.1100000000e-04 0.0000e+00 1.0000e+00
       11 -1    0    0    0    0 -0.0000000000e+00 -0.0000000000e+00 -4.5593999997e+01 4.5594000000e+01 5.1100000000e-04 0.0000e+00 -1.0000e+00
       23  2    1    2    0    0 -3.5527136788e-15 +0.0000000000e+00 +0.0000000000e+00 9.1188000000e+01 9.1188000000e+01 2.6440e-14 0.0000e+00
 -9990012  2    3    3    0    0 +2.5659055836e+01 +1.6784296593e+01 +3.0716830066e+01 4.7787269501e+01 1.9999992964e+01 1.5893e-01 0.0000e+00
      -11  1    4    4    0    0 +2.1615911628e+01 +1.1509536320e+01 +1.7154334093e+01 2.9899636122e+01 5.1100000000e-04 0.0000e+00 1.0000e+00
       11  1    4    4    0    0 +2.1126439729e+00 -1.2959139175e+00 -2.2939765027e-01 2.4890321374e+00 5.1100000000e-04 0.0000e+00 -1.0000e+00
      -12  1    4    4    0    0 +1.9305002349e+00 +6.5706741905e+00 +1.3791893623e+01 1.5398601241e+01 0.0000000000e+00 0.0000e+00 1.0000e+00
       12  1    3    3    0    0 -2.5659055836e+01 -1.6784296593e+01 -3.0716830066e+01 4.3400730499e+01 0.0000000000e+00 0.0000e+00 -1.0000e+00
</event>
<event>
 8      3 +3.7482383e-04 9.11880000e+01 7.81616400e-03 1.18400000e-01
      -11 -1    0    0    0    0 +0.0000000000e+00 +0.0000000000e+00 +4.5593999997e+01 4.5594000000e+01 5.1100000000e-04 0.0000e+00 1.0000e+00
       11 -1    0    0    0    0 -0.0000000000e+00 -0.0000000000e+00 -4.5593999997e+01 4.5594000000e+01 5.1100000000e-04 0.0000e+00 -1.0000e+00
       23  2    1    2    0    0 +0.0000000000e+00 +0.0000000000e+00 +0.0000000000e+00 9.1188000000e+01 9.1188000000e+01 1.2251e-14 0.0000e+00
  9990012  2    3    3    0    0 -2.2308722098e+01 -6.4360330195e+00 -3.6667718060e+01 4.7787272467e+01 2.0000006487e+01 3.0825e-02 0.0000e+00
      -11  1    4    4    0    0 -2.5465847561e-02 +1.8404055212e-01 -2.9870797516e+00 2.9928523414e+00 5.1100000000e-04 0.0000e+00 1.0000e+00
       11  1    4    4    0    0 -2.0021515784e+01 +3.4803629376e-01 -1.5918761887e+01 2.5581032110e+01 5.1100000000e-04 0.0000e+00 -1.0000e+00
       12  1    4    4    0    0 -2.2617404669e+00 -6.9681098654e+00 -1.7761876421e+01 1.9213388016e+01 0.0000000000e+00 0.0000e+00 -1.0000e+00
      -12  1    3    3    0    0 +2.2308722098e+01 +6.4360330195e+00 +3.6667718060e+01 4.3400727533e+01 0.0000000000e+00 0.0000e+00 1.0000e+00
</event>
<event>
 8      4 +3.7482383e-04 9.11880000e+01 7.81616400e-03 1.18400000e-01
      -11 -1    0    0    0    0 +0.0000000000e+00 +0.0000000000e+00 +4.5593999997e+01 4.5594000000e+01 5.1100000000e-04 0.0000e+00 -1.0000e+00
       11 -1    0    0    0    0 -0.0000000000e+00 -0.0000000000e+00 -4.5593999997e+01 4.5594000000e+01 5.1100000000e-04 0.0000e+00 1.0000e+00
       23  2    1    2    0    0 +0.0000000000e+00 +3.5527136788e-15 +3.5527136788e-15 9.1188000000e+01 9.1188000000e+01 8.2309e-14 0.0000e+00
 -9990012  2    3    3    0    0 -1.1118102999e+01 -3.0629056851e+01 -2.8668311726e+01 4.7787269187e+01 1.9999991533e+01 3.5775e-01 0.0000e+00
      -11  1    4    4    0    0 -4.7447756623e+00 -2.4527735008e+01 -2.0966121137e+01 3.2614428041e+01 5.1100000000e-04 0.0000e+00 1.0000e+00
       11  1    4    4    0    0 +2.3611012332e+00 -2.5247414570e+00 -1.0051625194e+00 3.5999264450e+00 5.1100000000e-04 0.0000e+00 -1.0000e+00
      -12  1    4    4    0    0 -8.7344285703e+00 -3.5765803860e+00 -6.6970280699e+00 1.1572914701e+01 0.0000000000e+00 0.0000e+00 1.0000e+00
       12  1    3    3    0    0 +1.1118102999e+01 +3.0629056851e+01 +2.8668311726e+01 4.3400730813e+01 0.0000000000e+00 0.0000e+00 -1.0000e+00
</event>
<event>
 8      4 +3.7482383e-04 9.11880000e+01 7.81616400e-03 1.18400000e-01
      -11 -1    0    0    0    0 +0.0000000000e+00 +0.0000000000e+00 +4.5593999997e+01 4.5594000000e+01 5.1100000000e-04 0.0000e+00 1.0000e+00
       11 -1    0    0    0    0 -0.0000000000e+00 -0.0000000000e+00 -4.5593999997e+01 4.5594000000e+01 5.1100000000e-04 0.0000e+00 -1.0000e+00
       23  2    1    2    0    0 +0.0000000000e+00 -7.1054273576e-15 +0.0000000000e+00 9.1188000000e+01 9.1188000000e+01 7.7287e-15 0.0000e+00
 -9990012  2    3    3    0    0 -1.9940350841e+01 -3.6929979429e+01 +1.1053610777e+01 4.7787270933e+01 1.9999999492e+01 2.4102e-01 0.0000e+00
      -11  1    4    4    0    0 -4.8992179371e+00 -1.9663814776e+01 -3.5690718413e+00 2.0576837026e+01 5.1100000000e-04 0.0000e+00 1.0000e+00
       11  1    4    4    0    0 -1.2544666680e+01 -1.4585683596e+01 +1.2897565613e+01 2.3161563572e+01 5.1100000000e-04 0.0000e+00 -1.0000e+00
      -12  1    4    4    0    0 -2.4964662247e+00 -2.6804810573e+00 +1.7251170051e+00 4.0488703352e+00 0.0000000000e+00 0.0000e+00 1.0000e+00
       12  1    3    3    0    0 +1.9940350841e+01 +3.6929979429e+01 -1.1053610777e+01 4.3400729067e+01 0.0000000000e+00 0.0000e+00 -1.0000e+00
</event>
<event>
 8      4 +3.7482383e-04 9.11880000e+01 7.81616400e-03 1.18400000e-01
      -11 -1    0    0    0    0 +0.0000000000e+00 +0.0000000000e+00 +4.5593999997e+01 4.5594000000e+01 5.1100000000e-04 0.0000e+00 -1.0000e+00
       11 -1    0    0    0    0 -0.0000000000e+00 -0.0000000000e+00 -4.5593999997e+01 4.5594000000e+01 5.1100000000e-04 0.0000e+00 1.0000e+00
       23  2    1    2    0    0 +0.0000000000e+00 -4.4408920985e-16 +3.5527136788e-15 9.1188000000e+01 9.1188000000e+01 6.6433e-15 0.0000e+00
 -9990012  2    3    3    0    0 -3.8830477022e+01 -3.2622505024e+00 -1.9109555927e+01 4.7787270147e+01 1.9999995907e+01 5.3537e-01 0.0000e+00
      -11  1    4    4    0    0 -9.6641219226e+00 -3.3078608798e+00 -1.1326898954e+01 1.5252404280e+01 5.1100000000e-04 0.0000e+00 1.0000e+00
       11  1    4    4    0    0 -1.5688611440e+01 -6.0132272568e+00 -4.5843342926e+00 1.7415727149e+01 5.1100000000e-04 0.0000e+00 -1.0000e+00
      -12  1    4    4    0    0 -1.3477743659e+01 +6.0588376341e+00 -3.1983226808e+00 1.5119138718e+01 0.0000000000e+00 0.0000e+00 1.0000e+00
       12  1    3    3    0    0 +3.8830477022e+01 +3.2622505024e+00 +1.9109555927e+01 4.3400729853e+01 0.0000000000e+00 0.0000e+00 -1.0000e+00
</event>
<event>
 8      4 +3.7482383e-04 9.11880000e+01 7.81616400e-03 1.18400000e-01
      -11 -1    0    0    0    0 +0.0000000000e+00 +0.0000000000e+00 +4.5593999997e+01 4.5594000000e+01 5.1100000000e-04 0.0000e+00 1.0000e+00
       11 -1    0    0    0    0 -0.0000000000e+00 -0.0000000000e+00 -4.5593999997e+01 4.5594000000e+01 5.1100000000e-04 0.0000e+00 -1.0000e+00
       23  2    1    2    0    0 -3.5527136788e-15 -3.5527136788e-15 -7.1054273576e-15 9.1188000000e+01 9.1188000000e+01 9.1286e-15 0.0000e+00
 -9990012  2    3    3    0    0 +1.6289890546e+01 +2.9211509496e+01 +2.7657740149e+01 4.7787269462e+01 1.9999992786e+01 6.3941e-01 0.0000e+00
      -11  1    4    4    0    0 +4.7638178471e+00 +3.8186802111e+00 +6.5295964548e+00 8.9393461259e+00 5.1100000000e-04 0.0000e+00 1.0000e+00
       11  1    4    4    0    0 +7.6404380705e+00 +1.3865134261e+01 +2.1473281912e+01 2.6678082359e+01 5.1100000000e-04 0.0000e+00 -1.0000e+00
      -12  1    4    4    0    0 +3.8856346279e+00 +1.1527695024e+01 -3.4513821784e-01 1.2169840978e+01 0.0000000000e+00 0.0000e+00 1.0000e+00
       12  1    3    3    0    0 -1.6289890546e+01 -2.9211509496e+01 -2.7657740149e+01 4.3400730538e+01 0.0000000000e+00 0.0000e+00 -1.0000e+00
</event>
<event>
 8      4 +3.7482383e-04 9.11880000e+01 7.81616400e-03 1.18400000e-01
      -11 -1    0    0    0    0 +0.0000000000e+00 +0.0000000000e+00 +4.5593999997e+01 4.5594000000e+01 5.1100000000e-04 0.0000e+00 1.0000e+00
       11 -1    0    0    0    0 -0.0000000000e+00 -0.0000000000e+00 -4.5593999997e+01 4.5594000000e+01 5.1100000000e-04 0.0000e+00 -1.0000e+00
       23  2    1    2    0    0 -7.1054273576e-15 +0.0000000000e+00 +1.7763568394e-15 9.1188000000e+01 9.1188000000e+01 6.7275e-14 0.0000e+00
 -9990012  2    3    3    0    0 +3.2458458624e+01 -2.7103187202e+01 -9.7718495253e+00 4.7787270330e+01 1.9999996743e+01 4.3599e-02 0.0000e+00
      -11  1    4    4    0    0 -1.0523543919e+00 -3.4087184473e+00 -2.9175436787e+00 4.6085651343e+00 5.1100000000e-04 0.0000e+00 1.0000e+00
       11  1    4    4    0    0 +2.6394687824e+00 +5.3479011328e-01 +1.4602452277e+00 3.0635130659e+00 5.1100000000e-04 0.0000e+00 -1.0000e+00
      -12  1    4    4    0    0 +3.0871344234e+01 -2.4229258868e+01 -8.3145510743e+00 4.0115192130e+01 0.0000000000e+00 0.0000e+00 1.0000e+00
       12  1    3    3    0    0 -3.2458458624e+01 +2.7103187202e+01 +9.7718495253e+00 4.3400729670e+01 0.0000000000e+00 0.0000e+00 -1.0000e+00
</event>
<event>
 8      4 +3.7482383e-04 9.11880000e+01 7.81616400e-03 1.18400000e-01
      -11 -1    0    0    0    0 +0.0000000000e+00 +0.0000000000e+00 +4.5593999997e+01 4.5594000000e+01 5.1100000000e-04 0.0000e+00 1.0000e+00
       11 -1    0    0    0    0 -0.0000000000e+00 -0.0000000000e+00 -4.5593999997e+01 4.5594000000e+01 5.1100000000e-04 0.0000e+00 -1.0000e+00
       23  2    1    2    0    0 +0.0000000000e+00 +0.0000000000e+00 +0.0000000000e+00 9.1188000000e+01 9.1188000000e+01 8.8229e-14 0.0000e+00
 -9990012  2    3    3    0    0 -3.8268362881e+01 +7.5811499310e+00 -1.9017938492e+01 4.7787269404e+01 1.9999992519e+01 4.1859e-01 0.0000e+00
      -11  1    4    4    0    0 -1.5567639253e+01 +1.0466802219e+01 -6.3681816898e+00 1.9810579973e+01 5.1100000000e-04 0.0000e+00 1.0000e+00
       11  1    4    4    0    0 -1.1502702749e+01 +1.3802666598e+00 -1.0824919064e+01 1.5855477905e+01 5.1100000000e-04 0.0000e+00 -1.0000e+00
      -12  1    4    4    0    0 -1.1198020879e+01 -4.2659189478e+00 -1.8248377381e+00 1.2121211526e+01 0.0000000000e+00 0.0000e+00 1.0000e+00
       12  1    3    3    0    0 +3.8268362881e+01 -7.5811499310e+00 +1.9017938492e+01 4.3400730596e+01 0.0000000000e+00 0.0000e+00 -1.0000e+00
</event>
<event>
 8      3 +3.7482383e-04 9.11880000e+01 7.81616400e-03 1.18400000e-01
      -11 -1    0    0    0    0 +0.0000000000e+00 +0.0000000000e+00 +4.5593999997e+01 4.5594000000e+01 5.1100000000e-04 0.0000e+00 -1.0000e+00
       11 -1    0    0    0    0 -0.0000000000e+00 -0.0000000000e+00 -4.5593999997e+01 4.5594000000e+01 5.1100000000e-04 0.0000e+00 1.0000e+00
       23  2    1    2    0    0 +0.0000000000e+00 +1.7763568394e-15 +0.0000000000e+00 9.1188000000e+01 9.1188000000e+01 1.4203e-13 0.0000e+00
  9990012  2    3    3    0    0 +1.6870163484e+01 -1.5637051989e+01 +3.6803580551e+01 4.7787270141e+01 1.9999995882e+01 4.2526e-01 0.0000e+00
      -11  1    4    4    0    0 +7.2251609868e+00 +6.5075564003e-01 +3.0376046623e+00 7.8646981210e+00 5.1100000000e-04 0.0000e+00 1.0000e+00
       11  1    4    4    0    0 -1.6277337196e+00 -5.0996610796e+00 +7.2174636445e+00 8.9859802976e+00 5.1100000000e-04 0.0000e+00 -1.0000e+00
       12  1    4    4    0    0 +1.1272736217e+01 -1.1188146550e+01 +2.6548512244e+01 3.0936591723e+01 0.0000000000e+00 0.0000e+00 -1.0000e+00
      -12  1    3    3    0    0 -1.6870163484e+01 +1.5637051989e+01 -3.6803580551e+01 4.3400729859e+01 0.0000000000e+00 0.0000e+00 1.0000e+00
</event>
<event>
 8      4 +3.7482383e-04 9.11880000e+01 7.81616400e-03 1.18400000e-01
      -11 -1    0    0    0    0 +0.0000000000e+00 +0.0000000000e+00 +4.5593999997e+01 4.5594000000e+01 5.1100000000e-04 0.0000e+00 1.0000e+00
       11 -1    0    0    0    0 -0.0000000000e+00 -0.0000000000e+00 -4.5593999997e+01 4.5594000000e+01 5.1100000000e-04 0.0000e+00 -1.0000e+00
       23  2    1    2    0    0 +3.5527136788e-15 -1.7763568394e-15 +0.0000000000e+00 9.1188000000e+01 9.1188000000e+01 2.0389e-13 0.0000e+00
 -9990012  2    3    3    0    0 -2.7767100525e+01 +1.3067463961e+01 +3.0689615469e+01 4.7787274389e+01 2.0000015251e+01 5.3429e-02 0.0000e+00
      -11  1    4    4    0    0 -9.9382870222e+00 +1.0925528507e+01 +5.8911023123e+00 1.5901000246e+01 5.1100000000e-04 0.0000e+00 1.0000e+00
       11  1    4    4    0    0 -9.3306772645e+00 +5.0029785521e+00 +1.6869436047e+01 1.9916556063e+01 5.1100000000e-04 0.0000e+00 -1.0000e+00
      -12  1    4    4    0    0 -8.4981362379e+00 -2.8610430980e+00 +7.9290771093e+00 1.1969718081e+01 0.0000000000e+00 0.0000e+00 1.0000e+00
       12  1    3    3    0    0 +2.7767100525e+01 -1.3067463961e+01 -3.0689615469e+01 4.3400725611e+01 0.0000000000e+00 0.0000e+00 -1.0000e+00
</event>
<event>
 8      3 +3.7482383e-04 9.11880000e+01 7.81616400e-03 1.18400000e-01
      -11 -1    0    0    0    0 +0.0000000000e+00 +0.0000000000e+00 +4.5593999997e+01 4.5594000000e+01 5.1100000000e-04 0.0000e+00 -1.0000e+00
       11 -1    0    0    0    0 -0.0000000000e+00 -0.0000000000e+00 -4.5593999997e+01 4.5594000000e+01 5.1100000000e-04 0.0000e+00 1.0000e+00
       23  2    1    2    0    0 -1.7763568394e-15 +0.0000000000e+00 +0.0000000000e+00 9.1188000000e+01 9.1188000000e+01 1.5030e-13 0.0000e+00
  9990012  2    3    3    0    0 +1.5554778910e+01 -6.1495723302e+00 +4.0048157003e+01 4.7787271134e+01 2.0000000409e+01 1.3688e-01 0.0000e+00
      -11  1    4    4    0    0 +1.0005829384e+01 +5.6410132143e+00 +1.6624579377e+01 2.0206788252e+01 5.1100000000e-04 0.0000e+00 1.0000e+00
       11  1    4    4    0    0 +3.4054090251e+00 -2.8233720095e+00 +3.5483687743e+00 5.6709048089e+00 5.1100000000e-04 0.0000e+00 -1.0000e+00
       12  1    4    4    0    0 +2.1435405010e+00 -8.9672135351e+00 +1.9875208851e+01 2.1909578073e+01 0.0000000000e+00 0.0000e+00 -1.0000e+00
      -12  1    3    3    0    0 -1.5554778910e+01 +6.1495723302e+00 -4.0048157003e+01 4.3400728866e+01 0.0000000000e+00 0.0000e+00 1.0000e+00
</event>
<event>
 8      4 +3.7482383e-04 9.11880000e+01 7.81616400e-03 1.18400000e-01
      -11 -1    0    0    0    0 +0.0000000000e+00 +0.0000000000e+00 +4.5593999997e+01 4.5594000000e+01 5.1100000000e-04 0.0000e+00 1.0000e+00
       11 -1    0    0    0    0 -0.0000000000e+00 -0.0000000000e+00 -4.5593999997e+01 4.5594000000e+01 5.1100000000e-04 0.0000e+00 -1.0000e+00
       23  2    1    2    0    0 +0.0000000000e+00 +0.0000000000e+00 +0.0000000000e+00 9.1188000000e+01 9.1188000000e+01 4.7277e-14 0.0000e+00
 -9990012  2    3    3    0    0 +1.6449103139e+01 -3.2620374893e+01 +2.3429925604e+01 4.7787271135e+01 2.0000000413e+01 3.0659e-02 0.0000e+00
      -11  1    4    4    0    0 +1.2819814976e+00 -2.9538740386e+00 -1.9795975506e+00 3.7799014696e+00 5.1100000000e-04 0.0000e+00 1.0000e+00
       11  1    4    4    0    0 +4.5171113025e+00 -5.4023510297e+00 -3.5129811861e-01 7.0507518603e+00 5.1100000000e-04 0.0000e+00 -1.0000e+00
      -12  1    4    4    0    0 +1.0650010339e+01 -2.4264149824e+01 +2.5760821273e+01 3.6956617805e+01 0.0000000000e+00 0.0000e+00 1.0000e+00
       12  1    3    3    0    0 -1.6449103139e+01 +3.2620374893e+01 -2.3429925604e+01 4.3400728865e+01 0.0000000000e+00 0.0000e+00 -1.0000e+00
</event>
<event>
 8      4 +3.7482383e-04 9.11880000e+01 7.81616400e-03 1.18400000e-01
      -11 -1    0    0    0    0 +0.0000000000e+00 +0.0000000000e+00 +4.5593999997e+01 4.5594000000e+01 5.1100000000e-04 0.0000e+00 -1.0000e+00
       11 -1    0    0    0    0 -0.0000000000e+00 -0.0000000000e+00 -4.5593999997e+01 4.5594000000e+01 5.1100000000e-04 0.0000e+00 1.0000e+00
       23  2    1    2    0    0 -7.1054273576e-15 -1.7763568394e-15 +0.0000000000e+00 9.1188000000e+01 9.1188000000e+01 1.8153e-13 0.0000e+00
 -9990012  2    3    3    0    0 -3.9841597622e+01 -1.5368921395e+01 +7.7502715367e+00 4.7787270112e+01 1.9999995747e+01 1.3396e-01 0.0000e+00
      -11  1    4    4    0    0 -3.1405895368e+01 -5.9282998205e+00 +6.5539278345e+00 3.2625587702e+01 5.1100000000e-04 0.0000e+00 1.0000e+00
       11  1    4    4    0    0 -6.8842526376e+00 -1.0202177266e+01 -1.0215300503e+00 1.2349934382e+01 5.1100000000e-04 0.0000e+00 -1.0000e+00
      -12  1    4    4    0    0 -1.5514496171e+00 +7.6155569139e-01 +2.2178737526e+00 2.8117480271e+00 0.0000000000e+00 0.0000e+00 1.0000e+00
       12  1    3    3    0    0 +3.9841597622e+01 +1.5368921395e+01 -7.7502715367e+00 4.3400729888e+01 0.0000000000e+00 0.0000e+00 -1.0000e+00
</event>
<event>
 8      4 +3.7482383e-04 9.11880000e+01 7.81616400e-03 1.18400000e-01
      -11 -1    0    0    0    0 +0.0000000000e+00 +0.0000000000e+00 +4.5593999997e+01 4.5594000000e+01 5.1100000000e-04 0.0000e+00 -1.0000e+00
       11 -1    0    0    0    0 -0.0000000000e+00 -0.0000000000e+00 -4.5593999997e+01 4.5594000000e+01 5.1100000000e-04 0.0000e+00 1.0000e+00
       23  2    1    2    0    0 +0.0000000000e+00 +0.0000000000e+00 +0.0000000000e+00 9.1188000000e+01 9.1188000000e+01 2.7117e-14 0.0000e+00
 -9990012  2    3    3    0    0 -3.0607234857e+00 +2.1609687146e+01 -3.7513699556e+01 4.7787259671e+01 1.9999948142e+01 4.1875e-01 0.0000e+00
      -11  1    4    4    0    0 -1.5083214908e-01 +7.6987864767e+00 -3.2684571942e+00 8.3652182424e+00 5.1100000000e-04 0.0000e+00 1.0000e+00
       11  1    4    4    0    0 -5.0938263163e-02 +6.9146756737e+00 -3.4782872832e+00 7.7404016087e+00 5.1100000000e-04 0.0000e+00 -1.0000e+00
      -12  1    4    4    0    0 -2.8589530734e+00 +6.9962249954e+00 -3.0766955078e+01 3.1681639819e+01 0.0000000000e+00 0.0000e+00 1.0000e+00
       12  1    3    3    0    0 +3.0607234857e+00 -2.1609687146e+01 +3.7513699556e+01 4.3400740329e+01 0.0000000000e+00 0.0000e+00 -1.0000e+00
</event>
<event>
 8      3 +3.7482383e-04 9.11880000e+01 7.81616400e-03 1.18400000e-01
      -11 -1    0    0    0    0 +0.0000000000e+00 +0.0000000000e+00 +4.5593999997e+01 4.5594000000e+01 5.1100000000e-04 0.0000e+00 -1.0000e+00
       11 -1    0    0    0    0 -0.0000000000e+00 -0.0000000000e+00 -4.5593999997e+01 4.5594000000e+01 5.1100000000e-04 0.0000e+00 1.0000e+00
       23  2    1    2    0    0 +0.0000000000e+00 +0.0000000000e+00 -3.5527136788e-15 9.1188000000e+01 9.1188000000e+01 9.5786e-14 0.0000e+00
  9990012  2    3    3    0    0 -3.6306256947e+01 -4.9164031271e+00 +2.3266024293e+01 4.7787271900e+01 2.0000003900e+01 3.3597e-01 0.0000e+00
      -11  1    4    4    0    0 -2.1802626329e+00 +6.3947114379e-01 +5.6518037201e+00 6.0914164235e+00 5.1100000000e-04 0.0000e+00 1.0000e+00
       11  1    4    4    0    0 -1.8203308614e+01 -7.6727988100e-01 +1.7211800294e+01 2.5063823182e+01 5.1100000000e-04 0.0000e+00 -1.0000e+00
       12  1    4    4    0    0 -1.5922685701e+01 -4.7885943899e+00 +4.0242027952e-01 1.6632032294e+01 0.0000000000e+00 0.0000e+00 -1.0000e+00
      -12  1    3    3    0    0 +3.6306256947e+01 +4.9164031271e+00 -2.3266024293e+01 4.3400728100e+01 0.0000000000e+00 0.0000e+00 1.0000e+00
</event>
<event>
 8      3 +3.7482383e-04 9.11880000e+01 7.81616400e-03 1.18400000e-01
      -11 -1    0    0    0    0 +0.0000000000e+00 +0.0000000000e+00 +4.5593999997e+01 4.5594000000e+01 5.1100000000e-04 0.0000e+00 1.0000e+00
       11 -1    0    0    0    0 -0.0000000000e+00 -0.0000000000e+00 -4.5593999997e+01 4.5594000000e+01 5.1100000000e-04 0.0000e+00 -1.0000e+00
       23  2    1    2    0    0 +0.0000000000e+00 +0.0000000000e+00 +0.0000000000e+00 9.1188000000e+01 9.1188000000e+01 4.4254e-14 0.0000e+00
  9990012  2    3    3    0    0 -1.8635362284e+01 -1.0006276473e+01 -3.7897506456e+01 4.7787270837e+01 1.9999999054e+01 2.0695e-01 0.0000e+00
      -11  1    4    4    0    0 +6.2896806637e-01 +1.2177123830e+00 -8.6674651939e-01 1.6216269812e+00 5.1100000000e-04 0.0000e+00 1.0000e+00
       11  1    4    4    0    0 -1.5925397266e+01 -5.7261747059e+00 -1.3144895950e+01 2.1428850755e+01 5.1100000000e-04 0.0000e+00 -1.0000e+00
       12  1    4    4    0    0 -3.3389330835e+00 -5.4978141503e+00 -2.3885863986e+01 2.4736793101e+01 0.0000000000e+00 0.0000e+00 -1.0000e+00
      -12  1    3    3    0    0 +1.8635362284e+01 +1.0006276473e+01 +3.7897506456e+01 4.3400729163e+01 0.0000000000e+00 0.0000e+00 1.0000e+00
</event>
<event>
 8      3 +3.7482383e-04 9.11880000e+01 7.81616400e-03 1.18400000e-01
      -11 -1    0    0    0    0 +0.0000000000e+00 +0.0000000000e+00 +4.5593999997e+01 4.5594000000e+01 5.1100000000e-04 0.0000e+00 1.0000e+00
       11 -1    0    0    0    0 -0.0000000000e+00 -0.0000000000e+00 -4.5593999997e+01 4.5594000000e+01 5.1100000000e-04 0.0000e+00 -1.0000e+00
       23  2    1    2    0    0 -3.5527136788e-15 -1.7763568394e-15 -7.1054273576e-15 9.1188000000e+01 9.1188000000e+01 2.7573e-14 0.0000e+00
  9990012  2    3    3    0    0 -1.7209350843e+01 +9.1929188019e+00 -3.8767922486e+01 4.7787270440e+01 1.9999997242e+01 8.7112e-01 0.0000e+00
      -11  1    4    4    0    0 -2.0081549267e+00 +1.4538991604e+00 -1.1136366684e+00 2.7178476537e+00 5.1100000000e-04 0.0000e+00 1.0000e+00
       11  1    4    4    0    0 -1.2125080329e+00 -4.2852777273e+00 -1.6074800135e+01 1.6680317160e+01 5.1100000000e-04 0.0000e+00 -1.0000e+00
       12  1    4    4    0    0 -1.3988687883e+01 +1.2024297369e+01 -2.1579485682e+01 2.8389105626e+01 0.0000000000e+00 0.0000e+00 -1.0000e+00
      -12  1    3    3    0    0 +1.7209350843e+01 -9.1929188019e+00 +3.8767922486e+01 4.3400729560e+01 0.0000000000e+00 0.0000e+00 1.0000e+00
</event>
<event>
 8      3 +3.7482383e-04 9.11880000e+01 7.81616400e-03 1.18400000e-01
      -11 -1    0    0    0    0 +0.0000000000e+00 +0.0000000000e+00 +4.5593999997e+01 4.5594000000e+01 5.1100000000e-04 0.0000e+00 -1.0000e+00
       11 -1    0    0    0    0 -0.0000000000e+00 -0.0000000000e+00 -4.5593999997e+01 4.5594000000e+01 5.1100000000e-04 0.0000e+00 1.0000e+00
       23  2    1    2    0    0 +7.1054273576e-15 +0.0000000000e+00 +1.1102230246e-16 9.1188000000e+01 9.1188000000e+01 8.0605e-14 0.0000e+00
  9990012  2    3    3    0    0 -3.9788586520e+01 -1.7316694308e+01 +7.9006307515e-01 4.7787265920e+01 1.9999976634e+01 2.2271e-01 0.0000e+00
      -11  1    4    4    0    0 -2.5578846612e+01 -5.3635085104e+00 -6.5122028440e-01 2.6143234415e+01 5.1100000000e-04 0.0000e+00 -1.0000e+00
       11  1    4    4    0    0 +1.3126598310e-01 +9.9587715698e-01 +2.0816612708e+00 2.3113450581e+00 5.1100000000e-04 0.0000e+00 1.0000e+00
       12  1    4    4    0    0 -1.4341005891e+01 -1.2949062955e+01 -6.4037791124e-01 1.9332686447e+01 0.0000000000e+00 0.0000e+00 -1.0000e+00
      -12  1    3    3    0    0 +3.9788586520e+01 +1.7316694308e+01 -7.9006307515e-01 4.3400734080e+01 0.0000000000e+00 0.0000e+00 1.0000e+00
</event>
<event>
 8      4 +3.7482383e-04 9.11880000e+01 7.81616400e-03 1.18400000e-01
      -11 -1    0    0    0    0 +0.0000000000e+00 +0.0000000000e+00 +4.5593999997e+01 4.5594000000e+01 5.1100000000e-04 0.0000e+00 1.0000e+00
       11 -1    0    0    0    0 -0.0000000000e+00 -0.0000000000e+00 -4.5593999997e+01 4.5594000000e+01 5.1100000000e-04 0.0000e+00 -1.0000e+00
       23  2    1    2    0    0 +0.0000000000e+00 +7.1054273576e-15 +8.8817841970e-16 9.1188000000e+01 9.1188000000e+01 5.6913e-14 0.0000e+00
 -9990012  2    3    3    0    0 +3.8368805521e+01 +1.9995331136e+01 +3.4124764807e+00 4.7787268438e+01 1.9999988118e+01 3.3940e-01 0.0000e+00
      -11  1    4    4    0    0 +1.0413584266e+00 +1.1065766239e+00 -2.5554990090e+00 2.9731321268e+00 5.1100000000e-04 0.0000e+00 1.0000e+00
       11  1    4    4    0    0 +1.5987689621e-01 +2.2133778502e+00 +3.3172309613e+00 3.9910679826e+00 5.1100000000e-04 0.0000e+00 -1.0000e+00
      -12  1    4    4    0    0 +3.7167570198e+01 +1.6675376662e+01 +2.6507445285e+00 4.0823068329e+01 0.0000000000e+00 0.0000e+00 1.0000e+00
       12  1    3    3    0    0 -3.8368805521e+01 -1.9995331136e+01 -3.4124764807e+00 4.3400731562e+01 0.0000000000e+00 0.0000e+00 -1.0000e+00
</event>
<event>
 8      3 +3.7482383e-04 9.11880000e+01 7.81616400e-03 1.18400000e-01
      -11 -1    0    0    0    0 +0.0000000000e+00 +0.0000000000e+00 +4.5593999997e+01 4.5594000000e+01 5.1100000000e-04 0.0000e+00 1.0000e+00
       11 -1    0    0    0    0 -0.0000000000e+00 -0.0000000000e+00 -4.5593999997e+01 4.5594000000e+01 5.1100000000e-04 0.0000e+00 -1.0000e+00
       23  2    1    2    0    0 -1.7763568394e-15 +0.0000000000e+00 +0.0000000000e+00 9.1188000000e+01 9.1188000000e+01 6.2063e-15 0.0000e+00
  9990012  2    3    3    0    0 +1.2769218565e+01 -2.0387155105e+01 -3.6123881285e+01 4.7787264578e+01 1.9999970519e+01 1.0742e-01 0.0000e+00
      -11  1    4    4    0    0 +3.6070591271e+00 -3.3149722414e+00 -4.1269152075e+00 6.4055714732e+00 5.1100000000e-04 0.0000e+00 1.0000e+00
       11  1    4    4    0    0 +8.8177331138e+00 -1.9445997337e+01 -3.2542384415e+01 3.8921793553e+01 5.1100000000e-04 0.0000e+00 -1.0000e+00
       12  1    4    4    0    0 +3.4442632436e-01 +2.3738144733e+00 +5.4541833713e-01 2.4598995526e+00 0.0000000000e+00 0.0000e+00 -1.0000e+00
      -12  1    3    3    0    0 -1.2769218565e+01 +2.0387155105e+01 +3.6123881285e+01 4.3400735422e+01 0.0000000000e+00 0.0000e+00 1.0000e+00
</event>
<event>
 8      4 +3.7482383e-04 9.11880000e+01 7.81616400e-03 1.18400000e-01
      -11 -1    0    0    0    0 +0.0000000000e+00 +0.0000000000e+00 +4.5593999997e+01 4.5594000000e+01 5.1100000000e-04 0.0000e+00 -1.0000e+00
       11 -1    0    0    0    0 -0.0000000000e+00 -0.0000000000e+00 -4.5593999997e+01 4.5594000000e+01 5.1100000000e-04 0.0000e+00 1.0000e+00
       23  2    1    2    0    0 -3.5527136788e-15 +0.0000000000e+00 -2.2204460493e-16 9.1188000000e+01 9.1188000000e+01 9.2677e-14 0.0000e+00
 -9990012  2    3    3    0    0 -2.9230481487e+01 -3.2025095404e+01 +1.8960604217e+00 4.7787276173e+01 2.0000023384e+01 3.2611e-01 0.0000e+00
      -11  1    4    4    0    0 -5.2735818792e+00 -1.0729521367e+01 +4.7819281072e+00 1.2876339981e+01 5.1100000000e-04 0.0000e+00 1.0000e+00
       11  1    4    4    0    0 +5.8647683106e-01 +1.2597350403e+00 +3.1287855510e-01 1.4243527290e+00 5.1100000000e-04 0.0000e+00 -1.0000e+00
      -12  1    4    4    0    0 -2.4543376439e+01 -2.2555309077e+01 -3.1987462407e+00 3.3486583464e+01 0.0000000000e+00 0.0000e+00 1.0000e+00
       12  1    3    3    0    0 +2.9230481487e+01 +3.2025095404e+01 -1.8960604217e+00 4.3400723827e+01 0.0000000000e+00 0.0000e+00 -1.0000e+00
</event>
<event>
 8      4 +3.7482383e-04 9.11880000e+01 7.81616400e-03 1.18400000e-01
      -11 -1    0    0    0    0 +0.0000000000e+00 +0.0000000000e+00 +4.5593999997e+01 4.5594000000e+01 5.1100000000e-04 0.0000e+00 -1.0000e+00
       11 -1    0    0    0    0 -0.0000000000e+00 -0.0000000000e+00 -4.5593999997e+01 4.5594000000e+01 5.1100000000e-04 0.0000e+00 1.0000e+00
       23  2    1    2    0    0 +0.0000000000e+00 -1.7763568394e-15 -3.5527136788e-15 9.1188000000e+01 9.1188000000e+01 1.6991e-14 0.0000e+00
 -9990012  2    3    3    0    0 +3.4925840059e+01 -1.1422149127e+01 -2.3094226312e+01 4.7787273238e+01 2.0000010001e+01 8.3288e-02 0.0000e+00
      -11  1    4    4    0    0 +1.9295895092e+01 -9.6135421182e+00 -7.4240432917e+00 2.2800617942e+01 5.1100000000e-04 0.0000e+00 1.0000e+00
       11  1    4    4    0    0 -1.2629588602e+00 -1.2767040426e+00 +1.9410971348e-01 1.8062992933e+00 5.1100000000e-04 0.0000e+00 -1.0000e+00
      -12  1    4    4    0    0 +1.6892903827e+01 -5.3190296670e-01 -1.5864292734e+01 2.3180356003e+01 0.0000000000e+00 0.0000e+00 1.0000e+00
       12  1    3    3    0    0 -3.4925840059e+01 +1.1422149127e+01 +2.3094226312e+01 4.3400726762e+01 0.0000000000e+00 0.0000e+00 -1.0000e+00
</event>
<event>
 8      3 +3.7482383e-04 9.11880000e+01 7.81616400e-03 1.18400000e-01
      -11 -1    0    0    0    0 +0.0000000000e+00 +0.0000000000e+00 +4.5593999997e+01 4.5594000000e+01 5.1100000000e-04 0.0000e+00 1.0000e+00
       11 -1    0    0    0    0 -0.0000000000e+00 -0.0000000000e+00 -4.5593999997e+01 4.5594000000e+01 5.1100000000e-04 0.0000e+00 -1.0000e+00
       23  2    1    2    0    0 +0.0000000000e+00 +0.0000000000e+00 +3.5527136788e-15 9.1188000000e+01 9.1188000000e+01 1.1071e-13 0.0000e+00
  9990012  2    3    3    0    0 -4.1418518858e+00 -3.3467211362e+01 -2.7320579341e+01 4.7787271562e+01 2.0000002361e+01 5.3565e-01 0.0000e+00
      -11  1    4    4    0    0 +3.5427249186e+00 -1.9433679519e+01 -1.1080652650e+01 2.2649495864e+01 5.1100000000e-04 0.0000e+00 1.0000e+00
       11  1    4    4    0    0 -3.9722267039e+00 -1.4822037897e+01 -1.3701950836e+01 2.0572186305e+01 5.1100000000e-04 0.0000e+00 -1.0000e+00
       12  1    4    4    0    0 -3.7123501005e+00 +7.8850605335e-01 -2.5379758549e+00 4.5655893930e+00 0.0000000000e+00 0.0000e+00 -1.0000e+00
      -12  1    3    3    0    0 +4.1418518858e+00 +3.3467211362e+01 +2.7320579341e+01 4.3400728438e+01 0.0000000000e+00 0.0000e+00 1.0000e+00
</event>
<event>
 8      4 +3.7482383e-04 9.11880000e+01 7.81616400e-03 1.18400000e-01
      -11 -1    0    0    0    0 +0.0000000000e+00 +0.0000000000e+00 +4.5593999997e+01 4.5594000000e+01 5.1100000000e-04 0.0000e+00 1.0000e+00
       11 -1    0    0    0    0 -0.0000000000e+00 -0.0000000000e+00 -4.5593999997e+01 4.5594000000e+01 5.1100000000e-04 0.0000e+00 -1.0000e+00
       23  2    1    2    0    0 +0.0000000000e+00 +0.0000000000e+00 +0.0000000000e+00 9.1188000000e+01 9.1188000000e+01 2.2708e-14 0.0000e+00
 -9990012  2    3    3    0    0 -1.3929291969e+01 +5.4253470114e+00 +4.0745070351e+01 4.7787305041e+01 2.0000155005e+01 1.2701e-01 0.0000e+00
      -11  1    4    4    0    0 -8.7519813514e+00 +2.4341897258e+00 +3.1033133514e+01 3.2335395979e+01 5.1100000000e-04 0.0000e+00 1.0000e+00
       11  1    4    4    0    0 -8.0183159878e+00 +9.5236539018e-01 +4.7072124249e+00 9.3465630149e+00 5.1100000000e-04 0.0000e+00 -1.0000e+00
      -12  1    4    4    0    0 +2.8410053706e+00 +2.0387918954e+00 +5.0047244130e+00 6.1053460474e+00 0.0000000000e+00 0.0000e+00 1.0000e+00
       12  1    3    3    0    0 +1.3929291969e+01 -5.4253470114e+00 -4.0745070351e+01 4.3400694959e+01 0.0000000000e+00 0.0000e+00 -1.0000e+00
</event>
<event>
 8      4 +3.7482383e-04 9.11880000e+01 7.81616400e-03 1.18400000e-01
      -11 -1    0    0    0    0 +0.0000000000e+00 +0.0000000000e+00 +4.5593999997e+01 4.5594000000e+01 5.1100000000e-04 0.0000e+00 1.0000e+00
       11 -1    0    0    0    0 -0.0000000000e+00 -0.0000000000e+00 -4.5593999997e+01 4.5594000000e+01 5.1100000000e-04 0.0000e+00 -1.0000e+00
       23  2    1    2    0    0 +0.0000000000e+00 +1.7763568394e-15 -7.1054273576e-15 9.1188000000e+01 9.1188000000e+01 4.3436e-14 0.0000e+00
 -9990012  2    3    3    0    0 -1.7159907981e+01 +8.3289399802e+00 +3.8984479772e+01 4.7787270211e+01 1.9999996200e+01 6.7558e-01 0.0000e+00
      -11  1    4    4    0    0 +6.4751967401e-01 -3.4961324819e-01 +2.2937812004e+00 2.4089299716e+00 5.1100000000e-04 0.0000e+00 1.0000e+00
       11  1    4    4    0    0 +1.0988541104e+00 +7.5162174250e-01 -1.5168409168e+00 2.0182225417e+00 5.1100000000e-04 0.0000e+00 -1.0000e+00
      -12  1    4    4    0    0 -1.8906281766e+01 +7.9269314859e+00 +3.8207539489e+01 4.3360117698e+01 0.0000000000e+00 0.0000e+00 1.0000e+00
       12  1    3    3    0    0 +1.7159907981e+01 -8.3289399802e+00 -3.8984479772e+01 4.3400729789e+01 0.0000000000e+00 0.0000e+00 -1.0000e+00
</event>
<event>
 8      3 +3.7482383e-04 9.11880000e+01 7.81616400e-03 1.18400000e-01
      -11 -1    0    0    0    0 +0.0000000000e+00 +0.0000000000e+00 +4.5593999997e+01 4.5594000000e+01 5.1100000000e-04 0.0000e+00 1.0000e+00
       11 -1    0    0    0    0 -0.0000000000e+00 -0.0000000000e+00 -4.5593999997e+01 4.5594000000e+01 5.1100000000e-04 0.0000e+00 -1.0000e+00
       23  2    1    2    0    0 +0.0000000000e+00 +0.0000000000e+00 +1.7763568394e-15 9.1188000000e+01 9.1188000000e+01 8.7444e-14 0.0000e+00
  9990012  2    3    3    0    0 +3.6822759171e+01 -1.9051412660e+01 -1.2835549425e+01 4.7787271362e+01 2.0000001447e+01 1.4099e-02 0.0000e+00
      -11  1    4    4    0    0 +9.9995611417e+00 -1.1059515018e+01 -1.6361631508e+00 1.4999370839e+01 5.1100000000e-04 0.0000e+00 1.0000e+00
       11  1    4    4    0    0 +4.9857120480e+00 -2.2845298641e-01 +2.7888739692e+00 5.7172837668e+00 5.1100000000e-04 0.0000e+00 -1.0000e+00
       12  1    4    4    0    0 +2.1837485981e+01 -7.7634446553e+00 -1.3988260243e+01 2.7070616756e+01 0.0000000000e+00 0.0000e+00 -1.0000e+00
      -12  1    3    3    0    0 -3.6822759171e+01 +1.9051412660e+01 +1.2835549425e+01 4.3400728638e+01 0.0000000000e+00 0.0000e+00 1.0000e+00
</event>
<event>
 8      3 +3.7482383e-04 9.11880000e+01 7.81616400e-03 1.18400000e-01
      -11 -1    0    0    0    0 +0.0000000000e+00 +0.0000000000e+00 +4.5593999997e+01 4.5594000000e+01 5.1100000000e-04 0.0000e+00 -1.0000e+00
       11 -1    0    0    0    0 -0.0000000000e+00 -0.0000000000e+00 -4.5593999997e+01 4.5594000000e+01 5.1100000000e-04 0.0000e+00 1.0000e+00
       23  2    1    2    0    0 -3.5527136788e-15 +0.0000000000e+00 +0.0000000000e+00 9.1188000000e+01 9.1188000000e+01 1.0133e-14 0.0000e+00
  9990012  2    3    3    0    0 +2.3171219063e+01 +4.9978758528e+00 +3.6355728125e+01 4.7787272778e+01 2.0000007903e+01 2.0182e-01 0.0000e+00
      -11  1    4    4    0    0 +1.5452921634e+01 +1.5245771085e+00 +2.4388708599e+01 2.8912388863e+01 5.1100000000e-04 0.0000e+00 -1.0000e+00
       11  1    4    4    0    0 +3.1812551600e+00 -4.2368753156e+00 +6.5189429506e+00 8.4004829794e+00 5.1100000000e-04 0.0000e+00 1.0000e+00
       12  1    4    4    0    0 +4.5370422694e+00 +7.7101740598e+00 +5.4480765757e+00 1.0474400936e+01 0.0000000000e+00 0.0000e+00 -1.0000e+00
      -12  1    3    3    0    0 -2.3171219063e+01 -4.9978758528e+00 -3.6355728125e+01 4.3400727222e+01 0.0000000000e+00 0.0000e+00 1.0000e+00
</event>
<event>
 8      3 +3.7482383e-04 9.11880000e+01 7.81616400e-03 1.18400000e-01
      -11 -1    0    0    0    0 +0.0000000000e+00 +0.0000000000e+00 +4.5593999997e+01 4.5594000000e+01 5.1100000000e-04 0.0000e+00 -1.0000e+00
       11 -1    0    0    0    0 -0.0000000000e+00 -0.0000000000e+00 -4.5593999997e+01 4.5594000000e+01 5.1100000000e-04 0.0000e+00 1.0000e+00
       23  2    1    2    0    0 +3.5527136788e-15 -1.7763568394e-15 +3.5527136788e-15 9.1188000000e+01 9.1188000000e+01 9.6234e-14 0.0000e+00
  9990012  2    3    3    0    0 +3.0294749265e+01 +1.3619882793e+01 +2.7934745096e+01 4.7787273924e+01 2.0000013129e+01 1.7301e-01 0.0000e+00
      -11  1    4    4    0    0 +1.5133278825e+01 +1.3467489703e+01 +7.9482472951e+00 2.1761526652e+01 5.1100000000e-04 0.0000e+00 1.0000e+00
       11  1    4    4    0    0 +9.8476316378e-01 +2.0374317635e+00 +3.8320025890e+00 4.4502955837e+00 5.1100000000e-04 0.0000e+00 -1.0000e+00
       12  1    4    4    0    0 +1.4176707276e+01 -1.8850386732e+00 +1.6154495212e+01 2.1575451688e+01 0.0000000000e+00 0.0000e+00 -1.0000e+00
      -12  1    3    3    0    0 -3.0294749265e+01 -1.3619882793e+01 -2.7934745096e+01 4.3400726076e+01 0.0000000000e+00 0.0000e+00 1.0000e+00
</event>
<event>
 8      4 +3.7482383e-04 9.11880000e+01 7.81616400e-03 1.18400000e-01
      -11 -1    0    0    0    0 +0.0000000000e+00 +0.0000000000e+00 +4.5593999997e+01 4.5594000000e+01 5.1100000000e-04 0.0000e+00 1.0000e+00
       11 -1    0    0    0    0 -0.0000000000e+00 -0.0000000000e+00 -4.5593999997e+01 4.5594000000e+01 5.1100000000e-04 0.0000e+00 -1.0000e+00
       23  2    1    2    0    0 +0.0000000000e+00 +0.0000000000e+00 +3.3306690739e-16 9.1188000000e+01 9.1188000000e+01 1.4135e-15 0.0000e+00
 -9990012  2    3    3    0    0 +4.2926498608e+01 -6.3742264605e+00 +5.5452220692e-01 4.7787279492e+01 2.0000038515e+01 7.1737e-01 0.0000e+00
      -11  1    4    4    0    0 +1.5761534707e-03 -2.2991039521e-01 -1.1945524190e+00 1.2164772982e+00 5.1100000000e-04 0.0000e+00 -1.0000e+00
       11  1    4    4    0    0 +8.4423891393e+00 -6.7024795395e+00 +5.0928890532e+00 1.1922025228e+01 5.1100000000e-04 0.0000e+00 1.0000e+00
      -12  1    4    4    0    0 +3.4482533316e+01 +5.5816347424e-01 -3.3438144273e+00 3.4648776966e+01 0.0000000000e+00 0.0000e+00 1.0000e+00
       12  1    3    3    0    0 -4.2926498608e+01 +6.3742264605e+00 -5.5452220692e-01 4.3400720508e+01 0.0000000000e+00 0.0000e+00 -1.0000e+00
</event>
<event>
 8      4 +3.7482383e-04 9.11880000e+01 7.81616400e-03 1.18400000e-01
      -11 -1    0    0    0    0 +0.0000000000e+00 +0.0000000000e+00 +4.5593999997e+01 4.5594000000e+01 5.1100000000e-04 0.0000e+00 1.0000e+00
       11 -1    0    0    0    0 -0.0000000000e+00 -0.0000000000e+00 -4.5593999997e+01 4.5594000000e+01 5.1100000000e-04 0.0000e+00 -1.0000e+00
       23  2    1    2    0    0 +0.0000000000e+00 +8.8817841970e-16 +0.0000000000e+00 9.1188000000e+01 9.1188000000e+01 1.2654e-14 0.0000e+00
 -9990012  2    3    3    0    0 -3.7772009301e+01 -7.3597936502e+00 +2.0068187743e+01 4.7787269493e+01 1.9999992927e+01 4.6356e-01 0.0000e+00
      -11  1    4    4    0    0 -1.6101044485e+01 +5.2349987379e+00 +1.0433132594e+01 1.9887159206e+01 5.1100000000e-04 0.0000e+00 1.0000e+00
       11  1    4    4    0    0 -6.8487290993e+00 -4.8728326961e+00 -3.8381096306e-01 8.4140893670e+00 5.1100000000e-04 0.0000e+00 -1.0000e+00
      -12  1    4    4    0    0 -1.4822235717e+01 -7.7219596920e+00 +1.0018866111e+01 1.9486020920e+01 0.0000000000e+00 0.0000e+00 1.0000e+00
       12  1    3    3    0    0 +3.7772009301e+01 +7.3597936502e+00 -2.0068187743e+01 4.3400730507e+01 0.0000000000e+00 0.0000e+00 -1.0000e+00
</event>
<event>
 8      3 +3.7482383e-04 9.11880000e+01 7.81616400e-03 1.18400000e-01
      -11 -1    0    0    0    0 +0.0000000000e+00 +0.0000000000e+00 +4.5593999997e+01 4.5594000000e+01 5.1100000000e-04 0.0000e+00 1.0000e+00
       11 -1    0    0    0    0 -0.0000000000e+00 -0.0000000000e+00 -4.5593999997e+01 4.5594000000e+01 5.1100000000e-04 0.0000e+00 -1.0000e+00
       23  2    1    2    0    0 +0.0000000000e+00 -1.7763568394e-15 +0.0000000000e+00 9.1188000000e+01 9.1188000000e+01 3.2968e-14 0.0000e+00
  9990012  2    3    3    0    0 -2.7566177843e+01 -1.5653919729e+01 -2.9642594056e+01 4.7787277125e+01 2.0000027724e+01 3.3667e-02 0.0000e+00
      -11  1    4    4    0    0 -2.1662815370e+00 -9.4934789381e+00 -9.4841805984e+00 1.3592961411e+01 5.1100000000e-04 0.0000e+00 1.0000e+00
       11  1    4    4    0    0 -1.3106614787e+01 -7.5645253166e+00 -1.2628315919e+01 1.9709889844e+01 5.1100000000e-04 0.0000e+00 -1.0000e+00
       12  1    4    4    0    0 -1.2293281519e+01 +1.4040845261e+00 -7.5300975382e+00 1.4484425870e+01 0.0000000000e+00 0.0000e+00 -1.0000e+00
      -12  1    3    3    0    0 +2.7566177843e+01 +1.5653919729e+01 +2.9642594056e+01 4.3400722875e+01 0.0000000000e+00 0.0000e+00 1.0000e+00
</event>
<event>
 8      3 +3.7482383e-04 9.11880000e+01 7.81616400e-03 1.18400000e-01
      -11 -1    0    0    0    0 +0.0000000000e+00 +0.0000000000e+00 +4.5593999997e+01 4.5594000000e+01 5.1100000000e-04 0.0000e+00 -1.0000e+00
       11 -1    0    0    0    0 -0.0000000000e+00 -0.0000000000e+00 -4.5593999997e+01 4.5594000000e+01 5.1100000000e-04 0.0000e+00 1.0000e+00
       23  2    1    2    0    0 +7.1054273576e-15 +0.0000000000e+00 +0.0000000000e+00 9.1188000000e+01 9.1188000000e+01 2.2217e-13 0.0000e+00
  9990012  2    3    3    0    0 +3.7328170996e+01 -1.6864681678e+01 +1.4346202253e+01 4.7787270086e+01 1.9999995629e+01 7.7651e-02 0.0000e+00
      -11  1    4    4    0    0 +3.5601202225e+01 -1.2507900153e+01 +8.9050070768e+00 3.8771024199e+01 5.1100000000e-04 0.0000e+00 1.0000e+00
       11  1    4    4    0    0 +7.1141690965e-01 -4.1656245216e+00 +8.5049210672e-01 4.3106703375e+00 5.1100000000e-04 0.0000e+00 -1.0000e+00
       12  1    4    4    0    0 +1.0155518614e+00 -1.9115700264e-01 +4.5907030693e+00 4.7055755496e+00 0.0000000000e+00 0.0000e+00 -1.0000e+00
      -12  1    3    3    0    0 -3.7328170996e+01 +1.6864681678e+01 -1.4346202253e+01 4.3400729914e+01 0.0000000000e+00 0.0000e+00 1.0000e+00
</event>
<event>
 8      4 +3.7482383e-04 9.11880000e+01 7.81616400e-03 1.18400000e-01
      -11 -1    0    0    0    0 +0.0000000000e+00 +0.0000000000e+00 +4.5593999997e+01 4.5594000000e+01 5.1100000000e-04 0.0000e+00 -1.0000e+00
       11 -1    0    0    0    0 -0.0000000000e+00 -0.0000000000e+00 -4.5593999997e+01 4.5594000000e+01 5.1100000000e-04 0.0000e+00 1.0000e+00
       23  2    1    2    0    0 +0.0000000000e+00 +1.7763568394e-15 +0.0000000000e+00 9.1188000000e+01 9.1188000000e+01 8.6740e-14 0.0000e+00
 -9990012  2    3    3    0    0 +3.9924153767e+01 +1.2776627410e+01 -1.1244670481e+01 4.7787275626e+01 2.0000020887e+01 2.1241e-02 0.0000e+00
      -11  1    4    4    0    0 +7.5418282199e+00 +1.4211929864e-01 -9.8890290893e+00 1.2437534618e+01 5.1100000000e-04 0.0000e+00 1.0000e+00
       11  1    4    4    0    0 +2.0264624763e+01 +7.5242236273e+00 +2.1953050766e+00 2.1727593577e+01 5.1100000000e-04 0.0000e+00 -1.0000e+00
      -12  1    4    4    0    0 +1.2117700784e+01 +5.1102844838e+00 -3.5509464685e+00 1.3622147431e+01 0.0000000000e+00 0.0000e+00 1.0000e+00
       12  1    3    3    0    0 -3.9924153767e+01 -1.2776627410e+01 +1.1244670481e+01 4.3400724374e+01 0.0000000000e+00 0.0000e+00 -1.0000e+00
</event>
<event>
 8      3 +3.7482383e-04 9.11880000e+01 7.81616400e-03 1.18400000e-01
      -11 -1    0    0    0    0 +0.0000000000e+00 +0.0000000000e+00 +4.5593999997e+01 4.5594000000e+01 5.1100000000e-04 0.0000e+00 -1.0000e+00
       11 -1    0    0    0    0 -0.0000000000e+00 -0.0000000000e+00 -4.5593999997e+01 4.5594000000e+01 5.1100000000e-04 0.0000e+00 1.0000e+00
       23  2    1    2    0    0 +0.0000000000e+00 +0.0000000000e+00 +0.0000000000e+00 9.1188000000e+01 9.1188000000e+01 4.3661e-14 0.0000e+00
  9990012  2    3    3    0    0 -2.2354786591e+01 +3.0902473859e+01 +2.0710471026e+01 4.7787274381e+01 2.0000015214e+01 1.5233e-01 0.0000e+00
      -11  1    4    4    0    0 -2.4660237817e+00 +1.2311572653e+01 +5.3106787136e+00 1.3633026192e+01 5.1100000000e-04 0.0000e+00 1.0000e+00
       11  1    4    4    0    0 -1.2156699145e+01 +1.3604539648e+01 +1.6855876530e+01 2.4839271467e+01 5.1100000000e-04 0.0000e+00 -1.0000e+00
       12  1    4    4    0    0 -7.7320636643e+00 +4.9863615567e+00 -1.4560842183e+00 9.3149767222e+00 0.0000000000e+00 0.0000e+00 -1.0000e+00
      -12  1    3    3    0    0 +2.2354786591e+01 -3.0902473859e+01 -2.0710471026e+01 4.3400725619e+01 0.0000000000e+00 0.0000e+00 1.0000e+00
</event>
<event>
 8      4 +3.7482383e-04 9.11880000e+01 7.81616400e-03 1.18400000e-01
      -11 -1    0    0    0    0 +0.0000000000e+00 +0.0000000000e+00 +4.5593999997e+01 4.5594000000e+01 5.1100000000e-04 0.0000e+00 -1.0000e+00
       11 -1    0    0    0    0 -0.0000000000e+00 -0.0000000000e+00 -4.5593999997e+01 4.5594000000e+01 5.1100000000e-04 0.0000e+00 1.0000e+00
       23  2    1    2    0    0 +0.0000000000e+00 -8.8817841970e-16 +0.0000000000e+00 9.1188000000e+01 9.1188000000e+01 1.2274e-14 0.0000e+00
 -9990012  2    3    3    0    0 -4.7766549257e+00 +6.9207053801e+00 -4.2578290822e+01 4.7787269078e+01 1.9999991034e+01 8.0789e-02 0.0000e+00
      -11  1    4    4    0    0 -1.8516783246e+00 +6.1489264503e+00 -1.7117299079e+01 1.8282230092e+01 5.1100000000e-04 0.0000e+00 1.0000e+00
       11  1    4    4    0    0 +8.4715790106e-01 -4.2676501537e+00 -1.3051241056e+00 4.5424512695e+00 5.1100000000e-04 0.0000e+00 -1.0000e+00
      -12  1    4    4    0    0 -3.7721345021e+00 +5.0394290835e+00 -2.4155867637e+01 2.4962587717e+01 0.0000000000e+00 0.0000e+00 1.0000e+00
       12  1    3    3    0    0 +4.7766549257e+00 -6.9207053801e+00 +4.2578290822e+01 4.3400730922e+01 0.0000000000e+00 0.0000e+00 -1.0000e+00
</event>
<event>
 8      4 +3.7482383e-04 9.11880000e+01 7.81616400e-03 1.18400000e-01
      -11 -1    0    0    0    0 +0.0000000000e+00 +0.0000000000e+00 +4.5593999997e+01 4.5594000000e+01 5.1100000000e-04 0.0000e+00 -1.0000e+00
       11 -1    0    0    0    0 -0.0000000000e+00 -0.0000000000e+00 -4.5593999997e+01 4.5594000000e+01 5.1100000000e-04 0.0000e+00 1.0000e+00
       23  2    1    2    0    0 +0.0000000000e+00 +3.5527136788e-15 +0.0000000000e+00 9.1188000000e+01 9.1188000000e+01 7.0606e-14 0.0000e+00
 -9990012  2    3    3    0    0 -5.6743494185e+00 -2.9709821516e+01 -3.1124772538e+01 4.7787271880e+01 2.0000003809e+01 1.2672e-01 0.0000e+00
      -11  1    4    4    0    0 +8.9694027445e-01 -8.0241068160e+00 -1.8827652933e+00 8.2906934246e+00 5.1100000000e-04 0.0000e+00 1.0000e+00
       11  1    4    4    0    0 +3.5466441193e+00 -8.0119222238e+00 -1.4721647822e+01 1.7131739465e+01 5.1100000000e-04 0.0000e+00 -1.0000e+00
      -12  1    4    4    0    0 -1.0117933812e+01 -1.3673792476e+01 -1.4520359423e+01 2.2364838991e+01 0.0000000000e+00 0.0000e+00 1.0000e+00
       12  1    3    3    0    0 +5.6743494185e+00 +2.9709821516e+01 +3.1124772538e+01 4.3400728120e+01 0.0000000000e+00 0.0000e+00 -1.0000e+00
</event>
<event>
 8      4 +3.7482383e-04 9.11880000e+01 7.81616400e-03 1.18400000e-01
      -11 -1    0    0    0    0 +0.0000000000e+00 +0.0000000000e+00 +4.5593999997e+01 4.5594000000e+01 5.1100000000e-04 0.0000e+00 -1.0000e+00
       11 -1    0    0    0    0 -0.0000000000e+00 -0.0000000000e+00 -4.5593999997e+01 4.5594000000e+01 5.1100000000e-04 0.0000e+00 1.0000e+00
       23  2    1    2    0    0 +0.0000000000e+00 +0.0000000000e+00 +8.8817841970e-16 9.1188000000e+01 9.1188000000e+01 4.4162e-14 0.0000e+00
 -9990012  2    3    3    0    0 +1.1625330424e+01 +4.1574224563e+01 -4.4787050821e+00 4.7787271265e+01 2.0000001008e+01 2.8385e-01 0.0000e+00
      -11  1    4    4    0    0 +1.4875533462e+00 +1.4805082286e+01 -7.9422722378e+00 1.6866622810e+01 5.1100000000e-04 0.0000e+00 1.0000e+00
       11  1    4    4    0    0 +9.8350614845e+00 +2.2813853881e+01 -1.1076698309e+00 2.4868198488e+01 5.1100000000e-04 0.0000e+00 -1.0000e+00
      -12  1    4    4    0    0 +3.0271559330e-01 +3.9552883962e+00 +4.5712369866e+00 6.0524499680e+00 0.0000000000e+00 0.0000e+00 1.0000e+00
       12  1    3    3    0    0 -1.1625330424e+01 -4.1574224563e+01 +4.4787050821e+00 4.3400728735e+01 0.0000000000e+00 0.0000e+00 -1.0000e+00
</event>
<event>
 8      3 +3.7482383e-04 9.11880000e+01 7.81616400e-03 1.18400000e-01
      -11 -1    0    0    0    0 +0.0000000000e+00 +0.0000000000e+00 +4.5593999997e+01 4.5594000000e+01 5.1100000000e-04 0.0000e+00 1.0000e+00
       11 -1    0    0    0    0 -0.0000000000e+00 -0.0000000000e+00 -4.5593999997e+01 4.5594000000e+01 5.1100000000e-04 0.0000e+00 -1.0000e+00
       23  2    1    2    0    0 -3.5527136788e-15 +3.5527136788e-15 +0.0000000000e+00 9.1188000000e+01 9.1188000000e+01 7.2214e-14 0.0000e+00
  9990012  2    3    3    0    0 -2.4384055197e+01 +3.1679730918e+01 +1.6894748180e+01 4.7787308588e+01 2.0000171177e+01 1.0096e-01 0.0000e+00
      -11  1    4    4    0    0 -3.8396888507e+00 +1.7262532095e+01 +1.1697937084e+01 2.1203300617e+01 5.1100000000e-04 0.0000e+00 1.0000e+00
       11  1    4    4    0    0 +9.7005481640e-02 -1.8247939640e-01 +9.1896690511e-01 9.4191784535e-01 5.1100000000e-04 0.0000e+00 -1.0000e+00
       12  1    4    4    0    0 -2.0641371828e+01 +1.4599678220e+01 +4.2778441911e+00 2.5642090126e+01 0.0000000000e+00 0.0000e+00 -1.0000e+00
      -12  1    3    3    0    0 +2.4384055197e+01 -3.1679730918e+01 -1.6894748180e+01 4.3400691412e+01 0.0000000000e+00 0.0000e+00 1.0000e+00
</event>
<event>
 8      3 +3.7482383e-04 9.11880000e+01 7.81616400e-03 1.18400000e-01
      -11 -1    0    0    0    0 +0.0000000000e+00 +0.0000000000e+00 +4.5593999997e+01 4.5594000000e+01 5.1100000000e-04 0.0000e+00 -1.0000e+00
       11 -1    0    0    0    0 -0.0000000000e+00 -0.0000000000e+00 -4.5593999997e+01 4.5594000000e+01 5.1100000000e-04 0.0000e+00 1.0000e+00
       23  2    1    2    0    0 +3.5527136788e-15 +0.0000000000e+00 +7.1054273576e-15 9.1188000000e+01 9.1188000000e+01 6.8337e-14 0.0000e+00
  9990012  2    3    3    0    0 +2.2364497516e+01 -2.3632978986e+00 +3.7119638333e+01 4.7787268715e+01 1.9999989378e+01 1.4892e-01 0.0000e+00
      -11  1    4    4    0    0 +5.0513204858e+00 -5.5826183997e+00 +2.9098379336e+00 8.0714697489e+00 5.1100000000e-04 0.0000e+00 1.0000e+00
       11  1    4    4    0    0 +7.3078262465e+00 -2.0041545700e-01 +2.3722266748e+01 2.4823183332e+01 5.1100000000e-04 0.0000e+00 -1.0000e+00
       12  1    4    4    0    0 +1.0005350784e+01 +3.4197359581e+00 +1.0487533652e+01 1.4892615634e+01 0.0000000000e+00 0.0000e+00 -1.0000e+00
      -12  1    3    3    0    0 -2.2364497516e+01 +2.3632978986e+00 -3.7119638333e+01 4.3400731285e+01 0.0000000000e+00 0.0000e+00 1.0000e+00
</event>
<event>
 8      3 +3.7482383e-04 9.11880000e+01 7.81616400e-03 1.18400000e-01
      -11 -1    0    0    0    0 +0.0000000000e+00 +0.0000000000e+00 +4.5593999997e+01 4.5594000000e+01 5.1100000000e-04 0.0000e+00 -1.0000e+00
       11 -1    0    0    0    0 -0.0000000000e+00 -0.0000000000e+00 -4.5593999997e+01 4.5594000000e+01 5.1100000000e-04 0.0000e+00 1.0000e+00
       23  2    1    2    0    0 +0.0000000000e+00 +0.0000000000e+00 +0.0000000000e+00 9.1188000000e+01 9.1188000000e+01 5.2285e-15 0.0000e+00
  9990012  2    3    3    0    0 +8.0894423167e+00 +2.7676258303e+01 +3.2437779277e+01 4.7787264118e+01 1.9999968421e+01 4.2204e-02 0.0000e+00
      -11  1    4    4    0    0 +7.7048417298e-01 -2.4520594085e+00 +6.2023288370e+00 6.7138010446e+00 5.1100000000e-04 0.0000e+00 1.0000e+00
       11  1    4    4    0    0 +1.8022854832e-01 -6.3047782936e-02 +1.1802944870e+00 1.1956390298e+00 5.1100000000e-04 0.0000e+00 -1.0000e+00
       12  1    4    4    0    0 +7.1387295954e+00 +3.0191365494e+01 +2.5055155953e+01 3.9877824044e+01 0.0000000000e+00 0.0000e+00 -1.0000e+00
      -12  1    3    3    0    0 -8.0894423167e+00 -2.7676258303e+01 -3.2437779277e+01 4.3400735882e+01 0.0000000000e+00 0.0000e+00 1.0000e+00
</event>
<event>
 8      4 +3.7482383e-04 9.11880000e+01 7.81616400e-03 1.18400000e-01
      -11 -1    0    0    0    0 +0.0000000000e+00 +0.0000000000e+00 +4.5593999997e+01 4.5594000000e+01 5.1100000000e-04 0.0000e+00 -1.0000e+00
       11 -1    0    0    0    0 -0.0000000000e+00 -0.0000000000e+00 -4.5593999997e+01 4.5594000000e+01 5.1100000000e-04 0.0000e+00 1.0000e+00
       23  2    1    2    0    0 -8.8817841970e-16 +0.0000000000e+00 +7.1054273576e-15 9.1188000000e+01 9.1188000000e+01 3.9692e-14 0.0000e+00
 -9990012  2    3    3    0    0 +3.6735800586e+00 +1.0814278337e+01 -4.1870986276e+01 4.7787270766e+01 1.9999998728e+01 1.2954e-01 0.0000e+00
      -11  1    4    4    0    0 -1.8092745156e+00 +8.2034719698e+00 -1.4104940335e+01 1.6417057250e+01 5.1100000000e-04 0.0000e+00 -1.0000e+00
       11  1    4    4    0    0 +3.7991969770e+00 +2.0120390483e+00 -2.8923428765e+01 2.9241185519e+01 5.1100000000e-04 0.0000e+00 1.0000e+00
      -12  1    4    4    0    0 +1.6836575973e+00 +5.9876731887e-01 +1.1573828243e+00 2.1290279963e+00 0.0000000000e+00 0.0000e+00 1.0000e+00
       12  1    3    3    0    0 -3.6735800586e+00 -1.0814278337e+01 +4.1870986276e+01 4.3400729234e+01 0.0000000000e+00 0.0000e+00 -1.0000e+00
</event>
<event>
 8      3 +3.7482383e-04 9.11880000e+01 7.81616400e-03 1.18400000e-01
      -11 -1    0    0    0    0 +0.0000000000e+00 +0.0000000000e+00 +4.5593999997e+01 4.5594000000e+01 5.1100000000e-04 0.0000e+00 -1.0000e+00
       11 -1    0    0    0    0 -0.0000000000e+00 -0.0000000000e+00 -4.5593999997e+01 4.5594000000e+01 5.1100000000e-04 0.0000e+00 1.0000e+00
       23  2    1    2    0    0 +0.0000000000e+00 +1.7763568394e-15 +0.0000000000e+00 9.1188000000e+01 9.1188000000e+01 7.9783e-14 0.0000e+00
  9990012  2    3    3    0    0 +3.4522451284e+01 +1.4927920912e+01 +2.1655965874e+01 4.7787270475e+01 1.9999997403e+01 7.2136e-02 0.0000e+00
      -11  1    4    4    0    0 +4.0927087215e+00 -2.5128047178e+00 +3.9914348581e+00 6.2446781115e+00 5.1100000000e-04 0.0000e+00 1.0000e+00
       11  1    4    4    0    0 +1.8510308523e+01 +6.0676620622e+00 +3.4487677360e+00 1.9782366989e+01 5.1100000000e-04 0.0000e+00 -1.0000e+00
       12  1    4    4    0    0 +1.1919434039e+01 +1.1373063567e+01 +1.4215763280e+01 2.1760225374e+01 0.0000000000e+00 0.0000e+00 -1.0000e+00
      -12  1    3    3    0    0 -3.4522451284e+01 -1.4927920912e+01 -2.1655965874e+01 4.3400729525e+01 0.0000000000e+00 0.0000e+00 1.0000e+00
</event>
<event>
 8      3 +3.7482383e-04 9.11880000e+01 7.81616400e-03 1.18400000e-01
      -11 -1    0    0    0    0 +0.0000000000e+00 +0.0000000000e+00 +4.5593999997e+01 4.5594000000e+01 5.1100000000e-04 0.0000e+00 1.0000e+00
       11 -1    0    0    0    0 -0.0000000000e+00 -0.0000000000e+00 -4.5593999997e+01 4.5594000000e+01 5.1100000000e-04 0.0000e+00 -1.0000e+00
       23  2    1    2    0    0 +0.0000000000e+00 +0.0000000000e+00 +0.0000000000e+00 9.1188000000e+01 9.1188000000e+01 2.8697e-14 0.0000e+00
  9990012  2    3    3    0    0 -1.2839358292e+01 -2.1232042476e+01 -3.5608617062e+01 4.7787281595e+01 2.0000048102e+01 1.1452e-01 0.0000e+00
      -11  1    4    4    0    0 -3.5074765581e-01 -6.7949556331e+00 -6.1188073189e+00 9.1506420125e+00 5.1100000000e-04 0.0000e+00 1.0000e+00
       11  1    4    4    0    0 -1.3045950881e+01 -1.7505962846e+01 -2.6177673471e+01 3.4087037979e+01 5.1100000000e-04 0.0000e+00 -1.0000e+00
       12  1    4    4    0    0 +5.5734024433e-01 +3.0688760026e+00 -3.3121362713e+00 4.5496016031e+00 0.0000000000e+00 0.0000e+00 -1.0000e+00
      -12  1    3    3    0    0 +1.2839358292e+01 +2.1232042476e+01 +3.5608617062e+01 4.3400718405e+01 0.0000000000e+00 0.0000e+00 1.0000e+00
</event>
<event>
 8      3 +3.7482383e-04 9.11880000e+01 7.81616400e-03 1.18400000e-01
      -11 -1    0    0    0    0 +0.0000000000e+00 +0.0000000000e+00 +4.5593999997e+01 4.5594000000e+01 5.1100000000e-04 0.0000e+00 1.0000e+00
       11 -1    0    0    0    0 -0.0000000000e+00 -0.0000000000e+00 -4.5593999997e+01 4.5594000000e+01 5.1100000000e-04 0.0000e+00 -1.0000e+00
       23  2    1    2    0    0 +0.0000000000e+00 +0.0000000000e+00 +0.0000000000e+00 9.1188000000e+01 9.1188000000e+01 1.1561e-14 0.0000e+00
  9990012  2    3    3    0    0 -1.2695697665e+01 -1.4758514511e+01 -3.8789546450e+01 4.7787269550e+01 1.9999993188e+01 4.1971e-02 0.0000e+00
      -11  1    4    4    0    0 -9.1643199060e+00 -4.3571516040e+00 -3.0321592343e+01 3.1974497524e+01 5.1100000000e-04 0.0000e+00 1.0000e+00
       11  1    4    4    0    0 -5.4437733446e+00 -6.5115482137e+00 -3.3974060028e+00 9.1420619214e+00 5.1100000000e-04 0.0000e+00 -1.0000e+00
       12  1    4    4    0    0 +1.9123955856e+00 -3.8898146938e+00 -5.0705481041e+00 6.6707101049e+00 0.0000000000e+00 0.0000e+00 -1.0000e+00
      -12  1    3    3    0    0 +1.2695697665e+01 +1.4758514511e+01 +3.8789546450e+01 4.3400730450e+01 0.0000000000e+00 0.0000e+00 1.0000e+00
</event>
<event>
 8      3 +3.7482383e-04 9.11880000e+01 7.81616400e-03 1.18400000e-01
      -11 -1    0    0    0    0 +0.0000000000e+00 +0.0000000000e+00 +4.5593999997e+01 4.5594000000e+01 5.1100000000e-04 0.0000e+00 1.0000e+00
       11 -1    0    0    0    0 -0.0000000000e+00 -0.0000000000e+00 -4.5593999997e+01 4.5594000000e+01 5.1100000000e-04 0.0000e+00 -1.0000e+00
       23  2    1    2    0    0 +0.0000000000e+00 +1.7763568394e-15 +0.0000000000e+00 9.1188000000e+01 9.1188000000e+01 9.3728e-14 0.0000e+00
  9990012  2    3    3    0    0 +2.2268622660e+01 +1.3431670756e+01 -3.4746534361e+01 4.7787274378e+01 2.0000015199e+01 1.5297e-01 0.0000e+00
      -11  1    4    4    0    0 +8.5348252493e+00 +1.6405382073e-01 -2.8155558262e+00 8.9887435476e+00 5.1100000000e-04 0.0000e+00 1.0000e+00
       11  1    4    4    0    0 +1.0057962499e+01 +1.3447752832e+01 -3.0562269800e+01 3.4872008853e+01 5.1100000000e-04 0.0000e+00 -1.0000e+00
       12  1    4    4    0    0 +3.6758349117e+00 -1.8013589708e-01 -1.3687087342e+00 3.9265219774e+00 0.0000000000e+00 0.0000e+00 -1.0000e+00
      -12  1    3    3    0    0 -2.2268622660e+01 -1.3431670756e+01 +3.4746534361e+01 4.3400725622e+01 0.0000000000e+00 0.0000e+00 1.0000e+00
</event>
<event>
 8      3 +3.7482383e-04 9.11880000e+01 7.81616400e-03 1.18400000e-01
      -11 -1    0    0    0    0 +0.0000000000e+00 +0.0000000000e+00 +4.5593999997e+01 4.5594000000e+01 5.1100000000e-04 0.0000e+00 1.0000e+00
       11 -1    0    0    0    0 -0.0000000000e+00 -0.0000000000e+00 -4.5593999997e+01 4.5594000000e+01 5.1100000000e-04 0.0000e+00 -1.0000e+00
       23  2    1    2    0    0 -3.5527136788e-15 +4.4408920985e-16 +3.5527136788e-15 9.1188000000e+01 9.1188000000e+01 5.5398e-14 0.0000e+00
  9990012  2    3    3    0    0 +3.1545951846e+01 -3.2742692197e+00 -2.9626935147e+01 4.7787271861e+01 2.0000003721e+01 1.0822e+00 0.0000e+00
      -11  1    4    4    0    0 +3.3431021978e+00 +1.5796151371e+00 -9.9200507936e+00 1.0586733410e+01 5.1100000000e-04 0.0000e+00 1.0000e+00
       11  1    4    4    0    0 +7.2915007692e-01 -2.4120883116e+00 -5.7725000628e+00 6.2985384887e+00 5.1100000000e-04 0.0000e+00 -1.0000e+00
       12  1    4    4    0    0 +2.7473699572e+01 -2.4417960453e+00 -1.3934384291e+01 3.0901999962e+01 0.0000000000e+00 0.0000e+00 -1.0000e+00
      -12  1    3    3    0    0 -3.1545951846e+01 +3.2742692197e+00 +2.9626935147e+01 4.3400728139e+01 0.0000000000e+00 0.0000e+00 1.0000e+00
</event>
<event>
 8      4 +3.7482383e-04 9.11880000e+01 7.81616400e-03 1.18400000e-01
      -11 -1    0    0    0    0 +0.0000000000e+00 +0.0000000000e+00 +4.5593999997e+01 4.5594000000e+01 5.1100000000e-04 0.0000e+00 -1.0000e+00
       11 -1    0    0    0    0 -0.0000000000e+00 -0.0000000000e+00 -4.5593999997e+01 4.5594000000e+01 5.1100000000e-04 0.0000e+00 1.0000e+00
       23  2    1    2    0    0 -3.5527136788e-15 +0.0000000000e+00 +7.1054273576e-15 9.1188000000e+01 9.1188000000e+01 6.2946e-14 0.0000e+00
 -9990012  2    3    3    0    0 +1.7375613208e+01 +1.0223789575e+01 -3.8434165868e+01 4.7787275195e+01 2.0000018925e+01 3.0539e-02 0.0000e+00
      -11  1    4    4    0    0 +2.1439146861e+01 +7.2063201139e+00 -3.4724742144e+01 4.1441232908e+01 5.1100000000e-04 0.0000e+00 1.0000e+00
       11  1    4    4    0    0 -2.3630082406e+00 +2.3062449829e+00 -2.4974181507e+00 4.1400086409e+00 5.1100000000e-04 0.0000e+00 -1.0000e+00
      -12  1    4    4    0    0 -1.7005254128e+00 +7.1122447794e-01 -1.2120055731e+00 2.2060336459e+00 0.0000000000e+00 0.0000e+00 1.0000e+00
       12  1    3    3    0    0 -1.7375613208e+01 -1.0223789575e+01 +3.8434165868e+01 4.3400724805e+01 0.0000000000e+00 0.0000e+00 -1.0000e+00
</event>
<event>
 8      4 +3.7482383e-04 9.11880000e+01 7.81616400e-03 1.18400000e-01
      -11 -1    0    0    0    0 +0.0000000000e+00 +0.0000000000e+00 +4.5593999997e+01 4.5594000000e+01 5.1100000000e-04 0.0000e+00 1.0000e+00
       11 -1    0    0    0    0 -0.0000000000e+00 -0.0000000000e+00 -4.5593999997e+01 4.5594000000e+01 5.1100000000e-04 0.0000e+00 -1.0000e+00
       23  2    1    2    0    0 -8.8817841970e-16 +0.0000000000e+00 +3.5527136788e-15 9.1188000000e+01 9.1188000000e+01 3.4957e-14 0.0000e+00
 -9990012  2    3    3    0    0 +7.2195035583e+00 +3.4643543297e+01 +2.5126233688e+01 4.7787263334e+01 1.9999964846e+01 8.6696e-04 0.0000e+00
      -11  1    4    4    0    0 +5.4247136870e+00 +2.7871411120e+01 +1.2508503655e+01 3.1027499744e+01 5.1100000000e-04 0.0000e+00 1.0000e+00
       11  1    4    4    0    0 +4.2527136946e+00 +3.3936283842e+00 +1.1013957347e+01 1.2284524577e+01 5.1100000000e-04 0.0000e+00 -1.0000e+00
      -12  1    4    4    0    0 -2.4579238233e+00 +3.3785037922e+00 +1.6037726858e+00 4.4752390130e+00 0.0000000000e+00 0.0000e+00 1.0000e+00
       12  1    3    3    0    0 -7.2195035583e+00 -3.4643543297e+01 -2.5126233688e+01 4.3400736666e+01 0.0000000000e+00 0.0000e+00 -1.0000e+00
</event>
<event>
 8      3 +3.7482383e-04 9.11880000e+01 7.81616400e-03 1.18400000e-01
      -11 -1    0    0    0    0 +0.0000000000e+00 +0.0000000000e+00 +4.5593999997e+01 4.5594000000e+01 5.1100000000e-04 0.0000e+00 -1.0000e+00
       11 -1    0    0    0    0 -0.0000000000e+00 -0.0000000000e+00 -4.5593999997e+01 4.5594000000e+01 5.1100000000e-04 0.0000e+00 1.0000e+00
       23  2    1    2    0    0 +4.4408920985e-16 -3.5527136788e-15 +0.0000000000e+00 9.1188000000e+01 9.1188000000e+01 1.3201e-14 0.0000e+00
  9990012  2    3    3    0    0 -3.1432479013e+00 +2.6217208980e+01 +3.4444173477e+01 4.7787272580e+01 2.0000007002e+01 1.2476e-02 0.0000e+00
      -11  1    4    4    0    0 -1.6464045105e+00 -2.7446727615e-01 -2.8580938430e-02 1.6693703091e+00 5.1100000000e-04 0.0000e+00 1.0000e+00
       11  1    4    4    0    0 +6.6380098398e+00 +8.5482010040e+00 +1.0386029862e+01 1.5000151053e+01 5.1100000000e-04 0.0000e+00 -1.0000e+00
       12  1    4    4    0    0 -8.1348532307e+00 +1.7943475252e+01 +2.4086724553e+01 3.1117751219e+01 0.0000000000e+00 0.0000e+00 -1.0000e+00
      -12  1    3    3    0    0 +3.1432479013e+00 -2.6217208980e+01 -3.4444173477e+01 4.3400727420e+01 0.0000000000e+00 0.0000e+00 1.0000e+00
</event>
<event>
 8      4 +3.7482383e-04 9.11880000e+01 7.81616400e-03 1.18400000e-01
      -11 -1    0    0    0    0 +0.0000000000e+00 +0.0000000000e+00 +4.5593999997e+01 4.5594000000e+01 5.1100000000e-04 0.0000e+00 1.0000e+00
       11 -1    0    0    0    0 -0.0000000000e+00 -0.0000000000e+00 -4.5593999997e+01 4.5594000000e+01 5.1100000000e-04 0.0000e+00 -1.0000e+00
       23  2    1    2    0    0 +0.0000000000e+00 +0.0000000000e+00 +0.0000000000e+00 9.1188000000e+01 9.1188000000e+01 3.9142e-14 0.0000e+00
 -9990012  2    3    3    0    0 -2.1452336494e+00 +9.0908860989e+00 +4.2383688933e+01 4.7787270455e+01 1.9999997311e+01 6.5275e-01 0.0000e+00
      -11  1    4    4    0    0 +5.8857313870e-01 +2.3669108840e+00 +2.2913801409e+01 2.3043241541e+01 5.1100000000e-04 0.0000e+00 1.0000e+00
       11  1    4    4    0    0 -3.7364634913e+00 -1.0474914465e+00 +1.5464219287e+01 1.5943665707e+01 5.1100000000e-04 0.0000e+00 -1.0000e+00
      -12  1    4    4    0    0 +1.0026567032e+00 +7.7714666615e+00 +4.0056682369e+00 8.8003632061e+00 0.0000000000e+00 0.0000e+00 1.0000e+00
       12  1    3    3    0    0 +2.1452336494e+00 -9.0908860989e+00 -4.2383688933e+01 4.3400729545e+01 0.0000000000e+00 0.0000e+00 -1.0000e+00
</event>
<event>
 8      4 +3.7482383e-04 9.11880000e+01 7.81616400e-03 1.18400000e-01
      -11 -1    0    0    0    0 +0.0000000000e+00 +0.0000000000e+00 +4.5593999997e+01 4.5594000000e+01 5.1100000000e-04 0.0000e+00 -1.0000e+00
       11 -1    0    0    0    0 -0.0000000000e+00 -0.0000000000e+00 -4.5593999997e+01 4.5594000000e+01 5.1100000000e-04 0.0000e+00 1.0000e+00
       23  2    1    2    0    0 +3.5527136788e-15 +0.0000000000e+00 +0.0000000000e+00 9.1188000000e+01 9.1188000000e+01 6.0487e-14 0.0000e+00
 -9990012  2    3    3    0    0 -3.0934856305e+01 -2.9246438744e+01 -8.4441662077e+00 4.7787268937e+01 1.9999990393e+01 1.5129e-02 0.0000e+00
      -11  1    4    4    0    0 -2.8922435568e+01 -2.6852586340e+01 -1.0285433669e+01 4.0784296223e+01 5.1100000000e-04 0.0000e+00 1.0000e+00
       11  1    4    4    0    0 -8.9518925581e-01 -1.1977117186e+00 +4.0135759646e+00 4.2830677615e+00 5.1100000000e-04 0.0000e+00 -1.0000e+00
      -12  1    4    4    0    0 -1.1172314808e+00 -1.1961406855e+00 -2.1723085034e+00 2.7199049533e+00 0.0000000000e+00 0.0000e+00 1.0000e+00
       12  1    3    3    0    0 +3.0934856305e+01 +2.9246438744e+01 +8.4441662077e+00 4.3400731063e+01 0.0000000000e+00 0.0000e+00 -1.0000e+00
</event>
<event>
 8      4 +3.7482383e-04 9.11880000e+01 7.81616400e-03 1.18400000e-01
      -11 -1    0    0    0    0 +0.0000000000e+00 +0.0000000000e+00 +4.5593999997e+01 4.5594000000e+01 5.1100000000e-04 0.0000e+00 -1.0000e+00
       11 -1    0    0    0    0 -0.0000000000e+00 -0.0000000000e+00 -4.5593999997e+01 4.5594000000e+01 5.1100000000e-04 0.0000e+00 1.0000e+00
       23  2    1    2    0    0 +3.5527136788e-15 +0.0000000000e+00 +0.0000000000e+00 9.1188000000e+01 9.1188000000e+01 1.2397e-13 0.0000e+00
 -9990012  2    3    3    0    0 -2.6285138986e+01 +2.3257786831e+01 -2.5530141667e+01 4.7787293631e+01 2.0000102979e+01 8.8102e-02 0.0000e+00
      -11  1    4    4    0    0 -9.7392010282e+00 +4.8366868921e+00 -3.3948949950e+00 1.1391702640e+01 5.1100000000e-04 0.0000e+00 -1.0000e+00
       11  1    4    4    0    0 -4.3343142203e+00 -2.1070026103e+00 -5.3579206098e+00 7.2064591362e+00 5.1100000000e-04 0.0000e+00 1.0000e+00
      -12  1    4    4    0    0 -1.2211623738e+01 +2.0528102549e+01 -1.6777326063e+01 2.9189131854e+01 0.0000000000e+00 0.0000e+00 1.0000e+00
       12  1    3    3    0    0 +2.6285138986e+01 -2.3257786831e+01 +2.5530141667e+01 4.3400706369e+01 0.0000000000e+00 0.0000e+00 -1.0000e+00
</event>
<event>
 8      4 +3.7482383e-04 9.11880000e+01 7.81616400e-03 1.18400000e-01
      -11 -1    0    0    0    0 +0.0000000000e+00 +0.0000000000e+00 +4.5593999997e+01 4.5594000000e+01 5.1100000000e-04 0.0000e+00 -1.0000e+00
       11 -1    0    0    0    0 -0.0000000000e+00 -0.0000000000e+00 -4.5593999997e+01 4.5594000000e+01 5.1100000000e-04 0.0000e+00 1.0000e+00
       23  2    1    2    0    0 -1.7763568394e-15 -3.5527136788e-15 +3.5527136788e-15 9.1188000000e+01 9.1188000000e+01 6.8123e-15 0.0000e+00
 -9990012  2    3    3    0    0 +1.0392073887e+01 +2.8791448797e+01 -3.0768173058e+01 4.7787271932e+01 2.0000004047e+01 4.7919e-02 0.0000e+00
      -11  1    4    4    0    0 +8.1031400610e+00 +1.0109397768e+01 -1.9937210218e+01 2.3777156130e+01 5.1100000000e-04 0.0000e+00 1.0000e+00
       11  1    4    4    0    0 -2.9283796378e+00 +2.8606637513e+00 +8.1974762159e-02 4.0945725691e+00 5.1100000000e-04 0.0000e+00 -1.0000e+00
      -12  1    4    4    0    0 +5.2173134641e+00 +1.5821387277e+01 -1.0912937602e+01 1.9915543233e+01 0.0000000000e+00 0.0000e+00 1.0000e+00
       12  1    3    3    0    0 -1.0392073887e+01 -2.8791448797e+01 +3.0768173058e+01 4.3400728068e+01 0.0000000000e+00 0.0000e+00 -1.0000e+00
</event>
<event>
 8      3 +3.7482383e-04 9.11880000e+01 7.81616400e-03 1.18400000e-01
      -11 -1    0    0    0    0 +0.0000000000e+00 +0.0000000000e+00 +4.5593999997e+01 4.5594000000e+01 5.1100000000e-04 0.0000e+00 1.0000e+00
       11 -1    0    0    0    0 -0.0000000000e+00 -0.0000000000e+00 -4.5593999997e+01 4.5594000000e+01 5.1100000000e-04 0.0000e+00 -1.0000e+00
       23  2    1    2    0    0 +2.7755575616e-16 -7.1054273576e-15 +0.0000000000e+00 9.1188000000e+01 9.1188000000e+01 2.4916e-14 0.0000e+00
  9990012  2    3    3    0    0 +2.0621607692e-01 +4.2238871950e+01 +9.9728769847e+00 4.7787273001e+01 2.0000008923e+01 1.7902e-02 0.0000e+00
      -11  1    4    4    0    0 +1.8063365196e+00 +1.6553308410e+01 +1.2631303953e+01 2.0900351929e+01 5.1100000000e-04 0.0000e+00 1.0000e+00
       11  1    4    4    0    0 +2.0426305963e+00 +1.9219243604e+01 -1.6677253390e+00 1.9399303403e+01 5.1100000000e-04 0.0000e+00 -1.0000e+00
       12  1    4    4    0    0 -3.6427510390e+00 +6.4663199350e+00 -9.9070162942e-01 7.4876176687e+00 0.0000000000e+00 0.0000e+00 -1.0000e+00
      -12  1    3    3    0    0 -2.0621607692e-01 -4.2238871950e+01 -9.9728769847e+00 4.3400726999e+01 0.0000000000e+00 0.0000e+00 1.0000e+00
</event>
<event>
 8      3 +3.7482383e-04 9.11880000e+01 7.81616400e-03 1.18400000e-01
      -11 -1    0    0    0    0 +0.0000000000e+00 +0.0000000000e+00 +4.5593999997e+01 4.5594000000e+01 5.1100000000e-04 0.0000e+00 1.0000e+00
       11 -1    0    0    0    0 -0.0000000000e+00 -0.0000000000e+00 -4.5593999997e+01 4.5594000000e+01 5.1100000000e-04 0.0000e+00 -1.0000e+00
       23  2    1    2    0    0 +0.0000000000e+00 +3.5527136788e-15 +0.0000000000e+00 9.1188000000e+01 9.1188000000e+01 7.0016e-14 0.0000e+00
  9990012  2    3    3    0    0 +1.0245669634e+01 -3.1932746419e+01 -2.7549035550e+01 4.7787269593e+01 1.9999993383e+01 4.6637e-02 0.0000e+00
      -11  1    4    4    0    0 +5.3780785177e+00 -1.1500186196e+01 -1.4506461231e+00 1.2778199620e+01 5.1100000000e-04 0.0000e+00 1.0000e+00
       11  1    4    4    0    0 +7.6792724401e+00 -1.7579698578e+01 -2.0002307305e+01 2.7714785316e+01 5.1100000000e-04 0.0000e+00 -1.0000e+00
       12  1    4    4    0    0 -2.8116813237e+00 -2.8528616445e+00 -6.0960821219e+00 7.2942846576e+00 0.0000000000e+00 0.0000e+00 -1.0000e+00
      -12  1    3    3    0    0 -1.0245669634e+01 +3.1932746419e+01 +2.7549035550e+01 4.3400730407e+01 0.0000000000e+00 0.0000e+00 1.0000e+00
</event>
<event>
 8      3 +3.7482383e-04 9.11880000e+01 7.81616400e-03 1.18400000e-01
      -11 -1    0    0    0    0 +0.0000000000e+00 +0.0000000000e+00 +4.5593999997e+01 4.5594000000e+01 5.1100000000e-04 0.0000e+00 1.0000e+00
       11 -1    0    0    0    0 -0.0000000000e+00 -0.0000000000e+00 -4.5593999997e+01 4.5594000000e+01 5.1100000000e-04 0.0000e+00 -1.0000e+00
       23  2    1    2    0    0 +0.0000000000e+00 +3.5527136788e-15 +0.0000000000e+00 9.1188000000e+01 9.1188000000e+01 3.0247e-13 0.0000e+00
  9990012  2    3    3    0    0 -8.7524422776e+00 +2.5781875375e+01 -3.3798116570e+01 4.7787273884e+01 2.0000012948e+01 1.0743e-02 0.0000e+00
      -11  1    4    4    0    0 -2.5043620454e+00 -8.2117225627e-02 -1.6087561524e+00 2.9776952685e+00 5.1100000000e-04 0.0000e+00 1.0000e+00
       11  1    4    4    0    0 -6.8083669660e+00 +2.8028239795e+01 -3.0696347232e+01 4.2121275152e+01 5.1100000000e-04 0.0000e+00 -1.0000e+00
       12  1    4    4    0    0 +5.6028673382e-01 -2.1642471945e+00 -1.4930131858e+00 2.6883034642e+00 0.0000000000e+00 0.0000e+00 -1.0000e+00
      -12  1    3    3    0    0 +8.7524422776e+00 -2.5781875375e+01 +3.3798116570e+01 4.3400726116e+01 0.0000000000e+00 0.0000e+00 1.0000e+00
</event>
<event>
 8      3 +3.7482383e-04 9.11880000e+01 7.81616400e-03 1.18400000e-01
      -11 -1    0    0    0    0 +0.0000000000e+00 +0.0000000000e+00 +4.5593999997e+01 4.5594000000e+01 5.1100000000e-04 0.0000e+00 1.0000e+00
       11 -1    0    0    0    0 -0.0000000000e+00 -0.0000000000e+00 -4.5593999997e+01 4.5594000000e+01 5.1100000000e-04 0.0000e+00 -1.0000e+00
       23  2    1    2    0    0 -8.8817841970e-16 +0.0000000000e+00 +0.0000000000e+00 9.1188000000e+01 9.1188000000e+01 4.0573e-14 0.0000e+00
  9990012  2    3    3    0    0 -4.7158386227e+00 -1.8756896206e+01 -3.8853093584e+01 4.7787272239e+01 2.0000005444e+01 2.2334e-01 0.0000e+00
      -11  1    4    4    0    0 -6.5709950115e+00 -6.0351572491e+00 -8.0044512744e+00 1.1986339680e+01 5.1100000000e-04 0.0000e+00 1.0000e+00
       11  1    4    4    0    0 +5.0716650528e+00 -2.2665199454e+00 -1.8442599816e+01 1.9261058831e+01 5.1100000000e-04 0.0000e+00 -1.0000e+00
       12  1    4    4    0    0 -3.2165086640e+00 -1.0455219011e+01 -1.2406042494e+01 1.6539873727e+01 0.0000000000e+00 0.0000e+00 -1.0000e+00
      -12  1    3    3    0    0 +4.7158386227e+00 +1.8756896206e+01 +3.8853093584e+01 4.3400727761e+01 0.0000000000e+00 0.0000e+00 1.0000e+00
</event>
<event>
 8      3 +3.7482383e-04 9.11880000e+01 7.81616400e-03 1.18400000e-01
      -11 -1    0    0    0    0 +0.0000000000e+00 +0.0000000000e+00 +4.5593999997e+01 4.5594000000e+01 5.1100000000e-04 0.0000e+00 1.0000e+00
       11 -1    0    0    0    0 -0.0000000000e+00 -0.0000000000e+00 -4.5593999997e+01 4.5594000000e+01 5.1100000000e-04 0.0000e+00 -1.0000e+00
       23  2    1    2    0    0 -3.5527136788e-15 +0.0000000000e+00 +0.0000000000e+00 9.1188000000e+01 9.1188000000e+01 1.4063e-14 0.0000e+00
  9990012  2    3    3    0    0 +2.7148370417e+01 -3.0016751489e+00 -3.3728011465e+01 4.7787276188e+01 2.0000023452e+01 1.7954e-02 0.0000e+00
      -11  1    4    4    0    0 +8.7260521359e+00 +5.2658240473e+00 -1.1229935150e+01 1.5165234337e+01 5.1100000000e-04 0.0000e+00 1.0000e+00
       11  1    4    4    0    0 +1.4874016889e+01 -7.6142952221e+00 -2.3539047296e+01 2.8866946808e+01 5.1100000000e-04 0.0000e+00 -1.0000e+00
       12  1    4    4    0    0 +3.5483013913e+00 -6.5320397406e-01 +1.0409709806e+00 3.7550950425e+00 0.0000000000e+00 0.0000e+00 -1.0000e+00
      -12  1    3    3    0    0 -2.7148370417e+01 +3.0016751489e+00 +3.3728011465e+01 4.3400723812e+01 0.0000000000e+00 0.0000e+00 1.0000e+00
</event>
<event>
 8      4 +3.7482383e-04 9.11880000e+01 7.81616400e-03 1.18400000e-01
      -11 -1    0    0    0    0 +0.0000000000e+00 +0.0000000000e+00 +4.5593999997e+01 4.5594000000e+01 5.1100000000e-04 0.0000e+00 1.0000e+00
       11 -1    0    0    0    0 -0.0000000000e+00 -0.0000000000e+00 -4.5593999997e+01 4.5594000000e+01 5.1100000000e-04 0.0000e+00 -1.0000e+00
       23  2    1    2    0    0 +0.0000000000e+00 +0.0000000000e+00 +0.0000000000e+00 9.1188000000e+01 9.1188000000e+01 7.2088e-14 0.0000e+00
 -9990012  2    3    3    0    0 -1.7857305825e+01 -1.0365777991e+01 +3.8174476750e+01 4.7787269593e+01 1.9999993382e+01 4.3788e-03 0.0000e+00
      -11  1    4    4    0    0 -1.2874218568e+01 +1.0278793221e+00 +1.2541393897e+01 1.8002460964e+01 5.1100000000e-04 0.0000e+00 1.0000e+00
       11  1    4    4    0    0 -1.4149893165e+00 -6.0293935759e+00 +4.4033189116e+00 7.5990130516e+00 5.1100000000e-04 0.0000e+00 -1.0000e+00
      -12  1    4    4    0    0 -3.5680979410e+00 -5.3642637376e+00 +2.1229763942e+01 2.2185795577e+01 0.0000000000e+00 0.0000e+00 1.0000e+00
       12  1    3    3    0    0 +1.7857305825e+01 +1.0365777991e+01 -3.8174476750e+01 4.3400730407e+01 0.0000000000e+00 0.0000e+00 -1.0000e+00
</event>
<event>
 8      4 +3.7482383e-04 9.11880000e+01 7.81616400e-03 1.18400000e-01
      -11 -1    0    0    0    0 +0.0000000000e+00 +0.0000000000e+00 +4.5593999997e+01 4.5594000000e+01 5.1100000000e-04 0.0000e+00 1.0000e+00
       11 -1    0    0    0    0 -0.0000000000e+00 -0.0000000000e+00 -4.5593999997e+01 4.5594000000e+01 5.1100000000e-04 0.0000e+00 -1.0000e+00
       23  2    1    2    0    0 +8.8817841970e-16 +0.0000000000e+00 +0.0000000000e+00 9.1188000000e+01 9.1188000000e+01 5.1777e-14 0.0000e+00
 -9990012  2    3    3    0    0 -6.8355428875e+00 -1.3769410524e+01 +4.0586968143e+01 4.7787270792e+01 1.9999998850e+01 3.0312e-02 0.0000e+00
      -11  1    4    4    0    0 -3.6571904777e+00 -2.9034733415e+00 +3.3600989754e+01 3.3923910628e+01 5.1100000000e-04 0.0000e+00 1.0000e+00
       11  1    4    4    0    0 -3.2673664031e+00 -4.4174624691e+00 +3.7113863854e+00 6.6305389706e+00 5.1100000000e-04 0.0000e+00 -1.0000e+00
      -12  1    4    4    0    0 +8.9013993283e-02 -6.4484747137e+00 +3.2745920038e+00 7.2328211934e+00 0.0000000000e+00 0.0000e+00 1.0000e+00
       12  1    3    3    0    0 +6.8355428875e+00 +1.3769410524e+01 -4.0586968143e+01 4.3400729208e+01 0.0000000000e+00 0.0000e+00 -1.0000e+00
</event>
<event>
 8      3 +3.7482383e-04 9.11880000e+01 7.81616400e-03 1.18400000e-01
      -11 -1    0    0    0    0 +0.0000000000e+00 +0.0000000000e+00 +4.5593999997e+01 4.5594000000e+01 5.1100000000e-04 0.0000e+00 1.0000e+00
       11 -1    0    0    0    0 -0.0000000000e+00 -0.0000000000e+00 -4.5593999997e+01 4.5594000000e+01 5.1100000000e-04 0.0000e+00 -1.0000e+00
       23  2    1    2    0    0 +3.5527136788e-15 +0.0000000000e+00 +0.0000000000e+00 9.1188000000e+01 9.1188000000e+01 1.3825e-14 0.0000e+00
  9990012  2    3    3    0    0 +2.0741023103e+01 -1.0371992983e+01 -3.6685899236e+01 4.7787268664e+01 1.9999989145e+01 1.8467e-01 0.0000e+00
      -11  1    4    4    0    0 +1.8662647980e+01 -1.3076880313e+01 -3.1183706782e+01 3.8622827412e+01 5.1100000000e-04 0.0000e+00 1.0000e+00
       11  1    4    4    0    0 -1.5966161221e+00 +2.0742397046e+00 -4.6553422900e+00 5.3407738664e+00 5.1100000000e-04 0.0000e+00 -1.0000e+00
       12  1    4    4    0    0 +3.6749912444e+00 +6.3064762563e-01 -8.4685016411e-01 3.8236673855e+00 0.0000000000e+00 0.0000e+00 -1.0000e+00
      -12  1    3    3    0    0 -2.0741023103e+01 +1.0371992983e+01 +3.6685899236e+01 4.3400731336e+01 0.0000000000e+00 0.0000e+00 1.0000e+00
</event>
<event>
 8      4 +3.7482383e-04 9.11880000e+01 7.81616400e-03 1.18400000e-01
      -11 -1    0    0    0    0 +0.0000000000e+00 +0.0000000000e+00 +4.5593999997e+01 4.5594000000e+01 5.1100000000e-04 0.0000e+00 1.0000e+00
       11 -1    0    0    0    0 -0.0000000000e+00 -0.0000000000e+00 -4.5593999997e+01 4.5594000000e+01 5.1100000000e-04 0.0000e+00 -1.0000e+00
       23  2    1    2    0    0 -7.1054273576e-15 +0.0000000000e+00 +0.0000000000e+00 9.1188000000e+01 9.1188000000e+01 7.7946e-14 0.0000e+00
 -9990012  2    3    3    0    0 -3.8137899409e+01 -1.9032543264e+01 +8.1784082099e+00 4.7787269185e+01 1.9999991521e+01 4.2875e-02 0.0000e+00
      -11  1    4    4    0    0 -3.3135997170e-01 +6.7423762579e-01 +8.2315589367e-01 1.1144423239e+00 5.1100000000e-04 0.0000e+00 1.0000e+00
       11  1    4    4    0    0 -1.5278638380e+01 +1.2129091418e+00 +1.8036691731e+00 1.5432471029e+01 5.1100000000e-04 0.0000e+00 -1.0000e+00
      -12  1    4    4    0    0 -2.2527901058e+01 -2.0919690032e+01 +5.5515831431e+00 3.1240355832e+01 0.0000000000e+00 0.0000e+00 1.0000e+00
       12  1    3    3    0    0 +3.8137899409e+01 +1.9032543264e+01 -8.1784082099e+00 4.3400730815e+01 0.0000000000e+00 0.0000e+00 -1.0000e+00
</event>
<event>
 8      4 +3.7482383e-04 9.11880000e+01 7.81616400e-03 1.18400000e-01
      -11 -1    0    0    0    0 +0.0000000000e+00 +0.0000000000e+00 +4.5593999997e+01 4.5594000000e+01 5.1100000000e-04 0.0000e+00 -1.0000e+00
       11 -1    0    0    0    0 -0.0000000000e+00 -0.0000000000e+00 -4.5593999997e+01 4.5594000000e+01 5.1100000000e-04 0.0000e+00 1.0000e+00
       23  2    1    2    0    0 +0.0000000000e+00 +0.0000000000e+00 +0.0000000000e+00 9.1188000000e+01 9.1188000000e+01 4.2795e-16 0.0000e+00
 -9990012  2    3    3    0    0 -3.7363040392e+01 -8.1063548985e+00 +2.0540534819e+01 4.7787270193e+01 1.9999996120e+01 1.0060e-02 0.0000e+00
      -11  1    4    4    0    0 -2.7558057214e+01 -5.7166395188e+00 +4.9376223825e+00 2.8574579610e+01 5.1100000000e-04 0.0000e+00 1.0000e+00
       11  1    4    4    0    0 -3.5746158165e+00 -3.3355821904e+00 +7.3838664666e+00 8.8558156622e+00 5.1100000000e-04 0.0000e+00 -1.0000e+00
      -12  1    4    4    0    0 -6.2303673614e+00 +9.4586681069e-01 +8.2190459701e+00 1.0356874922e+01 0.0000000000e+00 0.0000e+00 1.0000e+00
       12  1    3    3    0    0 +3.7363040392e+01 +8.1063548985e+00 -2.0540534819e+01 4.3400729807e+01 0.0000000000e+00 0.0000e+00 -1.0000e+00
</event>
<event>
 8      4 +3.7482383e-04 9.11880000e+01 7.81616400e-03 1.18400000e-01
      -11 -1    0    0    0    0 +0.0000000000e+00 +0.0000000000e+00 +4.5593999997e+01 4.5594000000e+01 5.1100000000e-04 0.0000e+00 1.0000e+00
       11 -1    0    0    0    0 -0.0000000000e+00 -0.0000000000e+00 -4.5593999997e+01 4.5594000000e+01 5.1100000000e-04 0.0000e+00 -1.0000e+00
       23  2    1    2    0    0 +1.7763568394e-15 +0.0000000000e+00 +0.0000000000e+00 9.1188000000e+01 9.1188000000e+01 3.4419e-13 0.0000e+00
 -9990012  2    3    3    0    0 -1.4253173932e+01 +2.3152525760e+01 +3.3829438008e+01 4.7787270834e+01 1.9999999040e+01 8.9982e-02 0.0000e+00
      -11  1    4    4    0    0 +1.0689971343e+00 +4.4490721533e-02 -6.0620377189e-01 1.2297225588e+00 5.1100000000e-04 0.0000e+00 1.0000e+00
       11  1    4    4    0    0 -1.3656262942e+01 +8.3603739532e+00 +1.3795333982e+01 2.1135292998e+01 5.1100000000e-04 0.0000e+00 -1.0000e+00
      -12  1    4    4    0    0 -1.6659081245e+00 +1.4747661086e+01 +2.0640307798e+01 2.5422255277e+01 0.0000000000e+00 0.0000e+00 1.0000e+00
       12  1    3    3    0    0 +1.4253173932e+01 -2.3152525760e+01 -3.3829438008e+01 4.3400729166e+01 0.0000000000e+00 0.0000e+00 -1.0000e+00
</event>
<event>
 8      3 +3.7482383e-04 9.11880000e+01 7.81616400e-03 1.18400000e-01
      -11 -1    0    0    0    0 +0.0000000000e+00 +0.0000000000e+00 +4.5593999997e+01 4.5594000000e+01 5.1100000000e-04 0.0000e+00 -1.0000e+00
       11 -1    0    0    0    0 -0.0000000000e+00 -0.0000000000e+00 -4.5593999997e+01 4.5594000000e+01 5.1100000000e-04 0.0000e+00 1.0000e+00
       23  2    1    2    0    0 +0.0000000000e+00 +0.0000000000e+00 +7.1054273576e-15 9.1188000000e+01 9.1188000000e+01 1.9185e-13 0.0000e+00
  9990012  2    3    3    0    0 +5.0817524902e+00 -8.7724255580e+00 +4.2200043305e+01 4.7787270588e+01 1.9999997919e+01 5.4809e-01 0.0000e+00
      -11  1    4    4    0    0 -1.9480616528e+00 +1.6088129459e+00 +2.2497670551e+00 3.3829979842e+00 5.1100000000e-04 0.0000e+00 1.0000e+00
       11  1    4    4    0    0 +2.2296706881e+00 +2.6526759413e+00 +1.8692706438e+01 1.9011191317e+01 5.1100000000e-04 0.0000e+00 -1.0000e+00
       12  1    4    4    0    0 +4.8001434549e+00 -1.3033914445e+01 +2.1257569812e+01 2.5393081287e+01 0.0000000000e+00 0.0000e+00 -1.0000e+00
      -12  1    3    3    0    0 -5.0817524902e+00 +8.7724255580e+00 -4.2200043305e+01 4.3400729412e+01 0.0000000000e+00 0.0000e+00 1.0000e+00
</event>
<event>
 8      4 +3.7482383e-04 9.11880000e+01 7.81616400e-03 1.18400000e-01
      -11 -1    0    0    0    0 +0.0000000000e+00 +0.0000000000e+00 +4.5593999997e+01 4.5594000000e+01 5.1100000000e-04 0.0000e+00 1.0000e+00
       11 -1    0    0    0    0 -0.0000000000e+00 -0.0000000000e+00 -4.5593999997e+01 4.5594000000e+01 5.1100000000e-04 0.0000e+00 -1.0000e+00
       23  2    1    2    0    0 +3.5527136788e-15 -3.5527136788e-15 +4.4408920985e-16 9.1188000000e+01 9.1188000000e+01 5.0260e-14 0.0000e+00
 -9990012  2    3    3    0    0 -2.9443040338e+01 +3.1664094590e+01 +3.7571032556e+00 4.7787270336e+01 1.9999996769e+01 2.6940e-01 0.0000e+00
      -11  1    4    4    0    0 -1.0694998289e+01 +5.7756686567e+00 -3.2904176811e+00 1.2592386017e+01 5.1100000000e-04 0.0000e+00 1.0000e+00
       11  1    4    4    0    0 -1.2595805495e+01 +1.3809935694e+01 -2.1489912441e+00 1.8814537028e+01 5.1100000000e-04 0.0000e+00 -1.0000e+00
      -12  1    4    4    0    0 -6.1522365536e+00 +1.2078490239e+01 +9.1965121808e+00 1.6380347291e+01 0.0000000000e+00 0.0000e+00 1.0000e+00
       12  1    3    3    0    0 +2.9443040338e+01 -3.1664094590e+01 -3.7571032556e+00 4.3400729664e+01 0.0000000000e+00 0.0000e+00 -1.0000e+00
</event>
<event>
 8      4 +3.7482383e-04 9.11880000e+01 7.81616400e-03 1.18400000e-01
      -11 -1    0    0    0    0 +0.0000000000e+00 +0.0000000000e+00 +4.5593999997e+01 4.5594000000e+01 5.1100000000e-04 0.0000e+00 1.0000e+00
       11 -1    0    0    0    0 -0.0000000000e+00 -0.0000000000e+00 -4.5593999997e+01 4.5594000000e+01 5.1100000000e-04 0.0000e+00 -1.0000e+00
       23  2    1    2    0    0 +0.0000000000e+00 +3.5527136788e-15 +0.0000000000e+00 9.1188000000e+01 9.1188000000e+01 8.0450e-14 0.0000e+00
 -9990012  2    3    3    0    0 +2.6083361258e+01 +2.9250787339e+01 +1.8645981668e+01 4.7787275042e+01 2.0000018226e+01 1.3870e-02 0.0000e+00
      -11  1    4    4    0    0 +4.8592714699e+00 -8.0304144976e-01 -1.4413156932e+00 5.1317429765e+00 5.1100000000e-04 0.0000e+00 1.0000e+00
       11  1    4    4    0    0 +1.6516404760e+01 +2.2459378311e+01 +1.1173454572e+01 3.0034336810e+01 5.1100000000e-04 0.0000e+00 -1.0000e+00
      -12  1    4    4    0    0 +4.7076850284e+00 +7.5944504785e+00 +8.9138427890e+00 1.2621195255e+01 0.0000000000e+00 0.0000e+00 1.0000e+00
       12  1    3    3    0    0 -2.6083361258e+01 -2.9250787339e+01 -1.8645981668e+01 4.3400724958e+01 0.0000000000e+00 0.0000e+00 -1.0000e+00
</event>
<event>
 8      3 +3.7482383e-04 9.11880000e+01 7.81616400e-03 1.18400000e-01
      -11 -1    0    0    0    0 +0.0000000000e+00 +0.0000000000e+00 +4.5593999997e+01 4.5594000000e+01 5.1100000000e-04 0.0000e+00 1.0000e+00
       11 -1    0    0    0    0 -0.0000000000e+00 -0.0000000000e+00 -4.5593999997e+01 4.5594000000e+01 5.1100000000e-04 0.0000e+00 -1.0000e+00
       23  2    1    2    0    0 +0.0000000000e+00 +0.0000000000e+00 -4.4408920985e-16 9.1188000000e+01 9.1188000000e+01 9.6551e-15 0.0000e+00
  9990012  2    3    3    0    0 -2.7719625498e+01 -3.3367579558e+01 +1.3603940614e+00 4.7787266419e+01 1.9999978913e+01 4.2419e-01 0.0000e+00
      -11  1    4    4    0    0 -1.0619705200e+01 -3.9719248443e+00 +8.7565075579e-01 1.1371943106e+01 5.1100000000e-04 0.0000e+00 1.0000e+00
       11  1    4    4    0    0 -1.6465232937e+01 -2.6217562495e+01 -3.6370842914e+00 3.1171988407e+01 5.1100000000e-04 0.0000e+00 -1.0000e+00
       12  1    4    4    0    0 -6.3468736114e-01 -3.1780922185e+00 +4.1218275971e+00 5.2433349059e+00 0.0000000000e+00 0.0000e+00 -1.0000e+00
      -12  1    3    3    0    0 +2.7719625498e+01 +3.3367579558e+01 -1.3603940614e+00 4.3400733581e+01 0.0000000000e+00 0.0000e+00 1.0000e+00
</event>
<event>
 8      4 +3.7482383e-04 9.11880000e+01 7.81616400e-03 1.18400000e-01
      -11 -1    0    0    0    0 +0.0000000000e+00 +0.0000000000e+00 +4.5593999997e+01 4.5594000000e+01 5.1100000000e-04 0.0000e+00 1.0000e+00
       11 -1    0    0    0    0 -0.0000000000e+00 -0.0000000000e+00 -4.5593999997e+01 4.5594000000e+01 5.1100000000e-04 0.0000e+00 -1.0000e+00
       23  2    1    2    0    0 -7.1054273576e-15 +0.0000000000e+00 +0.0000000000e+00 9.1188000000e+01 9.1188000000e+01 5.5484e-15 0.0000e+00
 -9990012  2    3    3    0    0 +4.1398278571e+01 +6.7016058665e-01 +1.3013716810e+01 4.7787269487e+01 1.9999992901e+01 1.9702e-01 0.0000e+00
      -11  1    4    4    0    0 +3.6549105195e+01 -1.2876622835e+00 +1.6808869624e+01 4.0249636806e+01 5.1100000000e-04 0.0000e+00 1.0000e+00
       11  1    4    4    0    0 -5.0169194738e-01 +5.7215586211e-01 -1.2245922448e+00 1.4417640472e+00 5.1100000000e-04 0.0000e+00 -1.0000e+00
      -12  1    4    4    0    0 +5.3508653228e+00 +1.3856670080e+00 -2.5705605698e+00 6.0958686340e+00 0.0000000000e+00 0.0000e+00 1.0000e+00
       12  1    3    3    0    0 -4.1398278571e+01 -6.7016058665e-01 -1.3013716810e+01 4.3400730513e+01 0.0000000000e+00 0.0000e+00 -1.0000e+00
</event>
<event>
 8      4 +3.7482383e-04 9.11880000e+01 7.81616400e-03 1.18400000e-01
      -11 -1    0    0    0    0 +0.0000000000e+00 +0.0000000000e+00 +4.5593999997e+01 4.5594000000e+01 5.1100000000e-04 0.0000e+00 1.0000e+00
       11 -1    0    0    0    0 -0.0000000000e+00 -0.0000000000e+00 -4.5593999997e+01 4.5594000000e+01 5.1100000000e-04 0.0000e+00 -1.0000e+00
       23  2    1    2    0    0 -1.7763568394e-15 +0.0000000000e+00 +0.0000000000e+00 9.1188000000e+01 9.1188000000e+01 2.5832e-13 0.0000e+00
 -9990012  2    3    3    0    0 -1.4323420057e+01 +1.7181595703e+00 +4.0933000161e+01 4.7787274930e+01 2.0000017715e+01 8.7642e-02 0.0000e+00
      -11  1    4    4    0    0 -7.1285349579e+00 +3.8046338249e+00 +1.6783450908e+01 1.8627277682e+01 5.1100000000e-04 0.0000e+00 -1.0000e+00
       11  1    4    4    0    0 +1.2395848182e+00 -1.0633353980e+00 -1.4520874680e+00 2.1853628911e+00 5.1100000000e-04 0.0000e+00 1.0000e+00
      -12  1    4    4    0    0 -8.4344699177e+00 -1.0231388566e+00 +2.5601636721e+01 2.6974634357e+01 0.0000000000e+00 0.0000e+00 1.0000e+00
       12  1    3    3    0    0 +1.4323420057e+01 -1.7181595703e+00 -4.0933000161e+01 4.3400725070e+01 0.0000000000e+00 0.0000e+00 -1.0000e+00
</event>
<event>
 8      3 +3.7482383e-04 9.11880000e+01 7.81616400e-03 1.18400000e-01
      -11 -1    0    0    0    0 +0.0000000000e+00 +0.0000000000e+00 +4.5593999997e+01 4.5594000000e+01 5.1100000000e-04 0.0000e+00 1.0000e+00
       11 -1    0    0    0    0 -0.0000000000e+00 -0.0000000000e+00 -4.5593999997e+01 4.5594000000e+01 5.1100000000e-04 0.0000e+00 -1.0000e+00
       23  2    1    2    0    0 +0.0000000000e+00 -1.7763568394e-15 -7.1054273576e-15 9.1188000000e+01 9.1188000000e+01 9.0434e-14 0.0000e+00
  9990012  2    3    3    0    0 +4.2857853872e+00 -1.3786328514e+01 -4.0929148984e+01 4.7787239099e+01 1.9999854346e+01 9.9495e-02 0.0000e+00
      -11  1    4    4    0    0 -5.0950860013e+00 -5.8225680516e+00 -1.0839853589e+01 1.3317831136e+01 5.1100000000e-04 0.0000e+00 1.0000e+00
       11  1    4    4    0    0 -7.0962091176e-02 -1.7362735907e-01 +1.0192767192e+00 1.0363915137e+00 5.1100000000e-04 0.0000e+00 -1.0000e+00
       12  1    4    4    0    0 +9.4518334797e+00 -7.7901331034e+00 -3.1108572114e+01 3.3433016449e+01 0.0000000000e+00 0.0000e+00 -1.0000e+00
      -12  1    3    3    0    0 -4.2857853872e+00 +1.3786328514e+01 +4.0929148984e+01 4.3400760901e+01 0.0000000000e+00 0.0000e+00 1.0000e+00
</event>
<event>
 8      3 +3.7482383e-04 9.11880000e+01 7.81616400e-03 1.18400000e-01
      -11 -1    0    0    0    0 +0.0000000000e+00 +0.0000000000e+00 +4.5593999997e+01 4.5594000000e+01 5.1100000000e-04 0.0000e+00 1.0000e+00
       11 -1    0    0    0    0 -0.0000000000e+00 -0.0000000000e+00 -4.5593999997e+01 4.5594000000e+01 5.1100000000e-04 0.0000e+00 -1.0000e+00
       23  2    1    2    0    0 +0.0000000000e+00 +0.0000000000e+00 +0.0000000000e+00 9.1188000000e+01 9.1188000000e+01 7.9006e-14 0.0000e+00
  9990012  2    3    3    0    0 +1.5680093157e+01 -2.9630772305e+01 -2.7564025234e+01 4.7787268717e+01 1.9999989387e+01 9.8996e-02 0.0000e+00
      -11  1    4    4    0    0 +5.3761147972e+00 -1.9803830959e+01 -9.4976700500e+00 2.2611945241e+01 5.1100000000e-04 0.0000e+00 1.0000e+00
       11  1    4    4    0    0 +1.0298038118e+01 -3.0372553766e+00 -1.1403591210e+01 1.5662579674e+01 5.1100000000e-04 0.0000e+00 -1.0000e+00
       12  1    4    4    0    0 +5.9402418821e-03 -6.7896859700e+00 -6.6627639739e+00 9.5127438013e+00 0.0000000000e+00 0.0000e+00 -1.0000e+00
      -12  1    3    3    0    0 -1.5680093157e+01 +2.9630772305e+01 +2.7564025234e+01 4.3400731283e+01 0.0000000000e+00 0.0000e+00 1.0000e+00
</event>
<event>
 8      3 +3.7482383e-04 9.11880000e+01 7.81616400e-03 1.18400000e-01
      -11 -1    0    0    0    0 +0.0000000000e+00 +0.0000000000e+00 +4.5593999997e+01 4.5594000000e+01 5.1100000000e-04 0.0000e+00 1.0000e+00
       11 -1    0    0    0    0 -0.0000000000e+00 -0.0000000000e+00 -4.5593999997e+01 4.5594000000e+01 5.1100000000e-04 0.0000e+00 -1.0000e+00
       23  2    1    2    0    0 -3.5527136788e-15 +1.7763568394e-15 +0.0000000000e+00 9.1188000000e+01 9.1188000000e+01 1.2703e-14 0.0000e+00
  9990012  2    3    3    0    0 -1.8459942942e+01 +1.1899538139e+01 -3.7433344753e+01 4.7787264975e+01 1.9999972327e+01 1.5116e-01 0.0000e+00
      -11  1    4    4    0    0 +2.7303482477e-01 +2.0570810425e+00 -2.0469913378e+00 2.9148420590e+00 5.1100000000e-04 0.0000e+00 1.0000e+00
       11  1    4    4    0    0 -2.2826361137e+00 -2.4356701447e+00 -1.6968565348e+01 1.7293788680e+01 5.1100000000e-04 0.0000e+00 -1.0000e+00
       12  1    4    4    0    0 -1.6450341653e+01 +1.2278127241e+01 -1.8417788067e+01 2.7578634236e+01 0.0000000000e+00 0.0000e+00 -1.0000e+00
      -12  1    3    3    0    0 +1.8459942942e+01 -1.1899538139e+01 +3.7433344753e+01 4.3400735025e+01 0.0000000000e+00 0.0000e+00 1.0000e+00
</event>
<event>
 8      3 +3.7482383e-04 9.11880000e+01 7.81616400e-03 1.18400000e-01
      -11 -1    0    0    0    0 +0.0000000000e+00 +0.0000000000e+00 +4.5593999997e+01 4.5594000000e+01 5.1100000000e-04 0.0000e+00 -1.0000e+00
       11 -1    0    0    0    0 -0.0000000000e+00 -0.0000000000e+00 -4.5593999997e+01 4.5594000000e+01 5.1100000000e-04 0.0000e+00 1.0000e+00
       23  2    1    2    0    0 -1.7763568394e-15 +0.0000000000e+00 -7.1054273576e-15 9.1188000000e+01 9.1188000000e+01 3.6978e-14 0.0000e+00
  9990012  2    3    3    0    0 +1.2353716814e+01 -1.4943159510e+01 +3.8829251547e+01 4.7787272921e+01 2.0000008555e+01 8.2336e-02 0.0000e+00
      -11  1    4    4    0    0 +6.0050703272e+00 -5.1447600703e+00 +2.7388364695e+00 8.3684318294e+00 5.1100000000e-04 0.0000e+00 1.0000e+00
       11  1    4    4    0    0 +7.4609406578e+00 -8.5979617721e+00 +1.8289773196e+01 2.1543128509e+01 5.1100000000e-04 0.0000e+00 -1.0000e+00
       12  1    4    4    0    0 -1.1122941709e+00 -1.2004376680e+00 +1.7800641882e+01 1.7875712582e+01 0.0000000000e+00 0.0000e+00 -1.0000e+00
      -12  1    3    3    0    0 -1.2353716814e+01 +1.4943159510e+01 -3.8829251547e+01 4.3400727079e+01 0.0000000000e+00 0.0000e+00 1.0000e+00
</event>
<event>
 8      4 +3.7482383e-04 9.11880000e+01 7.81616400e-03 1.18400000e-01
      -11 -1    0    0    0    0 +0.0000000000e+00 +0.0000000000e+00 +4.5593999997e+01 4.5594000000e+01 5.1100000000e-04 0.0000e+00 1.0000e+00
       11 -1    0    0    0    0 -0.0000000000e+00 -0.0000000000e+00 -4.5593999997e+01 4.5594000000e+01 5.1100000000e-04 0.0000e+00 -1.0000e+00
       23  2    1    2    0    0 +0.0000000000e+00 +0.0000000000e+00 -8.8817841970e-16 9.1188000000e+01 9.1188000000e+01 4.3247e-14 0.0000e+00
 -9990012  2    3    3    0    0 -3.0545320130e+01 -2.9934469449e+01 -7.3847318856e+00 4.7787270651e+01 1.9999998206e+01 4.4710e-02 0.0000e+00
      -11  1    4    4    0    0 -3.7904398020e+00 -1.6215961907e+01 -2.7008162253e+00 1.6870662791e+01 5.1100000000e-04 0.0000e+00 1.0000e+00
       11  1    4    4    0    0 -1.3951261024e+01 -4.7737813788e+00 -5.2937807159e-01 1.4754894585e+01 5.1100000000e-04 0.0000e+00 -1.0000e+00
      -12  1    4    4    0    0 -1.2803619304e+01 -8.9447261629e+00 -4.1545375886e+00 1.6161713275e+01 0.0000000000e+00 0.0000e+00 1.0000e+00
       12  1    3    3    0    0 +3.0545320130e+01 +2.9934469449e+01 +7.3847318856e+00 4.3400729349e+01 0.0000000000e+00 0.0000e+00 -1.0000e+00
</event>
<event>
 8      3 +3.7482383e-04 9.11880000e+01 7.81616400e-03 1.18400000e-01
      -11 -1    0    0    0    0 +0.0000000000e+00 +0.0000000000e+00 +4.5593999997e+01 4.5594000000e+01 5.1100000000e-04 0.0000e+00 1.0000e+00
       11 -1    0    0    0    0 -0.0000000000e+00 -0.0000000000e+00 -4.5593999997e+01 4.5594000000e+01 5.1100000000e-04 0.0000e+00 -1.0000e+00
       23  2    1    2    0    0 +0.0000000000e+00 -3.5527136788e-15 +0.0000000000e+00 9.1188000000e+01 9.1188000000e+01 1.8310e-14 0.0000e+00
  9990012  2    3    3    0    0 +3.1592171647e+01 -1.9531250793e+01 -2.2451908886e+01 4.7787270979e+01 1.9999999701e+01 2.4436e-01 0.0000e+00
      -11  1    4    4    0    0 +1.1762331497e+01 -6.6407614777e+00 +1.2966077632e-01 1.3508107470e+01 5.1100000000e-04 0.0000e+00 1.0000e+00
       11  1    4    4    0    0 +1.9189396691e+01 -1.4499889795e+01 -2.1251465258e+01 3.2095241474e+01 5.1100000000e-04 0.0000e+00 -1.0000e+00
       12  1    4    4    0    0 +6.4044345981e-01 +1.6094004791e+00 -1.3301044048e+00 2.1839220350e+00 0.0000000000e+00 0.0000e+00 -1.0000e+00
      -12  1    3    3    0    0 -3.1592171647e+01 +1.9531250793e+01 +2.2451908886e+01 4.3400729021e+01 0.0000000000e+00 0.0000e+00 1.0000e+00
</event>
<event>
 8      4 +3.7482383e-04 9.11880000e+01 7.81616400e-03 1.18400000e-01
      -11 -1    0    0    0    0 +0.0000000000e+00 +0.0000000000e+00 +4.5593999997e+01 4.5594000000e+01 5.1100000000e-04 0.0000e+00 -1.0000e+00
       11 -1    0    0    0    0 -0.0000000000e+00 -0.0000000000e+00 -4.5593999997e+01 4.5594000000e+01 5.1100000000e-04 0.0000e+00 1.0000e+00
       23  2    1    2    0    0 +0.0000000000e+00 +0.0000000000e+00 +0.0000000000e+00 9.1188000000e+01 9.1188000000e+01 3.8603e-14 0.0000e+00
 -9990012  2    3    3    0    0 +2.6414513652e+01 +2.0378774113e+01 -2.7759726532e+01 4.7787269788e+01 1.9999994270e+01 9.1295e-02 0.0000e+00
      -11  1    4    4    0    0 +2.2552252613e+01 +2.3784432334e+01 -2.6325002489e+01 4.2039375301e+01 5.1100000000e-04 0.0000e+00 1.0000e+00
       11  1    4    4    0    0 +1.9233277635e+00 -7.3338851640e-01 -1.3180616763e+00 2.4442453326e+00 5.1100000000e-04 0.0000e+00 -1.0000e+00
      -12  1    4    4    0    0 +1.9389332754e+00 -2.6722697053e+00 -1.1666236692e-01 3.3036491539e+00 0.0000000000e+00 0.0000e+00 1.0000e+00
       12  1    3    3    0    0 -2.6414513652e+01 -2.0378774113e+01 +2.7759726532e+01 4.3400730212e+01 0.0000000000e+00 0.0000e+00 -1.0000e+00
</event>
<event>
 8      4 +3.7482383e-04 9.11880000e+01 7.81616400e-03 1.18400000e-01
      -11 -1    0    0    0    0 +0.0000000000e+00 +0.0000000000e+00 +4.5593999997e+01 4.5594000000e+01 5.1100000000e-04 0.0000e+00 1.0000e+00
       11 -1    0    0    0    0 -0.0000000000e+00 -0.0000000000e+00 -4.5593999997e+01 4.5594000000e+01 5.1100000000e-04 0.0000e+00 -1.0000e+00
       23  2    1    2    0    0 -1.7763568394e-15 +0.0000000000e+00 +0.0000000000e+00 9.1188000000e+01 9.1188000000e+01 4.3872e-14 0.0000e+00
 -9990012  2    3    3    0    0 -9.1489337064e+00 -2.0924718322e+01 +3.6906318907e+01 4.7787271894e+01 2.0000003875e+01 2.8283e-01 0.0000e+00
      -11  1    4    4    0    0 -9.2998372330e-01 -5.0902088662e+00 +3.8241484501e+00 6.4342216045e+00 5.1100000000e-04 0.0000e+00 1.0000e+00
       11  1    4    4    0    0 +3.6839999774e+00 -1.0313513134e+01 +1.0147097987e+01 1.4929970088e+01 5.1100000000e-04 0.0000e+00 -1.0000e+00
      -12  1    4    4    0    0 -1.1902949960e+01 -5.5209963220e+00 +2.2935072470e+01 2.6423080202e+01 0.0000000000e+00 0.0000e+00 1.0000e+00
       12  1    3    3    0    0 +9.1489337064e+00 +2.0924718322e+01 -3.6906318907e+01 4.3400728106e+01 0.0000000000e+00 0.0000e+00 -1.0000e+00
</event>
<event>
 8      3 +3.7482383e-04 9.11880000e+01 7.81616400e-03 1.18400000e-01
      -11 -1    0    0    0    0 +0.0000000000e+00 +0.0000000000e+00 +4.5593999997e+01 4.5594000000e+01 5.1100000000e-04 0.0000e+00 -1.0000e+00
       11 -1    0    0    0    0 -0.0000000000e+00 -0.0000000000e+00 -4.5593999997e+01 4.5594000000e+01 5.1100000000e-04 0.0000e+00 1.0000e+00
       23  2    1    2    0    0 +0.0000000000e+00 +7.1054273576e-15 +0.0000000000e+00 9.1188000000e+01 9.1188000000e+01 9.3345e-14 0.0000e+00
  9990012  2    3    3    0    0 -4.0756173370e+00 +3.5336737130e+01 +2.4866194914e+01 4.7787270776e+01 1.9999998776e+01 1.9557e-01 0.0000e+00
      -11  1    4    4    0    0 -3.3702284413e+00 +3.3572823484e+00 -1.2822865799e+00 4.9268695585e+00 5.1100000000e-04 0.0000e+00 1.0000e+00
       11  1    4    4    0    0 -4.3912103993e+00 +4.9884768518e+00 +4.0493017323e+00 7.7823180898e+00 5.1100000000e-04 0.0000e+00 -1.0000e+00
       12  1    4    4    0    0 +3.6858215035e+00 +2.6990977930e+01 +2.2099179761e+01 3.5078083128e+01 0.0000000000e+00 0.0000e+00 -1.0000e+00
      -12  1    3    3    0    0 +4.0756173370e+00 -3.5336737130e+01 -2.4866194914e+01 4.3400729224e+01 0.0000000000e+00 0.0000e+00 1.0000e+00
</event>
<event>
 8      4 +3.7482383e-04 9.11880000e+01 7.81616400e-03 1.18400000e-01
      -11 -1    0    0    0    0 +0.0000000000e+00 +0.0000000000e+00 +4.5593999997e+01 4.5594000000e+01 5.1100000000e-04 0.0000e+00 -1.0000e+00
       11 -1    0    0    0    0 -0.0000000000e+00 -0.0000000000e+00 -4.5593999997e+01 4.5594000000e+01 5.1100000000e-04 0.0000e+00 1.0000e+00
       23  2    1    2    0    0 +0.0000000000e+00 +0.0000000000e+00 +0.0000000000e+00 9.1188000000e+01 9.1188000000e+01 4.5355e-14 0.0000e+00
 -9990012  2    3    3    0    0 -4.0005386993e+01 +1.4579297573e+01 -8.4045022371e+00 4.7787279222e+01 2.0000037287e+01 2.8919e-01 0.0000e+00
      -11  1    4    4    0    0 -2.4484867055e+01 +2.0802813418e+00 +2.0562307118e+00 2.4658961254e+01 5.1100000000e-04 0.0000e+00 1.0000e+00
       11  1    4    4    0    0 -6.1267936466e+00 +6.5127440186e+00 -7.3178631766e+00 1.1554417197e+01 5.1100000000e-04 0.0000e+00 -1.0000e+00
      -12  1    4    4    0    0 -9.3937262916e+00 +5.9862722123e+00 -3.1428697723e+00 1.1573900771e+01 0.0000000000e+00 0.0000e+00 1.0000e+00
       12  1    3    3    0    0 +4.0005386993e+01 -1.4579297573e+01 +8.4045022371e+00 4.3400720778e+01 0.0000000000e+00 0.0000e+00 -1.0000e+00
</event>
<event>
 8      3 +3.7482383e-04 9.11880000e+01 7.81616400e-03 1.18400000e-01
      -11 -1    0    0    0    0 +0.0000000000e+00 +0.0000000000e+00 +4.5593999997e+01 4.5594000000e+01 5.1100000000e-04 0.0000e+00 -1.0000e+00
       11 -1    0    0    0    0 -0.0000000000e+00 -0.0000000000e+00 -4.5593999997e+01 4.5594000000e+01 5.1100000000e-04 0.0000e+00 1.0000e+00
       23  2    1    2    0    0 +1.7763568394e-15 +0.0000000000e+00 +0.0000000000e+00 9.1188000000e+01 9.1188000000e+01 3.1438e-14 0.0000e+00
  9990012  2    3    3    0    0 +9.3268767638e+00 -3.9233712916e+01 +1.6042083952e+01 4.7787270549e+01 1.9999997740e+01 2.5919e-01 0.0000e+00
      -11  1    4    4    0    0 +2.4110298893e-01 +1.0663263862e+00 +5.9093121897e-01 1.2427319019e+00 5.1100000000e-04 0.0000e+00 1.0000e+00
       11  1    4    4    0    0 +7.5596932760e+00 -1.1061319036e+01 -8.7633430916e-02 1.3398112595e+01 5.1100000000e-04 0.0000e+00 -1.0000e+00
       12  1    4    4    0    0 +1.5260804989e+00 -2.9238720267e+01 +1.5538786164e+01 3.3146426051e+01 0.0000000000e+00 0.0000e+00 -1.0000e+00
      -12  1    3    3    0    0 -9.3268767638e+00 +3.9233712916e+01 -1.6042083952e+01 4.3400729451e+01 0.0000000000e+00 0.0000e+00 1.0000e+00
</event>
<event>
 8      3 +3.7482383e-04 9.11880000e+01 7.81616400e-03 1.18400000e-01
      -11 -1    0    0    0    0 +0.0000000000e+00 +0.0000000000e+00 +4.5593999997e+01 4.5594000000e+01 5.1100000000e-04 0.0000e+00 1.0000e+00
       11 -1    0    0    0    0 -0.0000000000e+00 -0.0000000000e+00 -4.5593999997e+01 4.5594000000e+01 5.1100000000e-04 0.0000e+00 -1.0000e+00
       23  2    1    2    0    0 +0.0000000000e+00 -8.8817841970e-16 -7.1054273576e-15 9.1188000000e+01 9.1188000000e+01 4.1269e-14 0.0000e+00
  9990012  2    3    3    0    0 -2.6557525094e+01 -5.7318427435e+00 -3.3844747102e+01 4.7787273430e+01 2.0000010878e+01 1.4996e-01 0.0000e+00
      -11  1    4    4    0    0 -5.5815298334e+00 +3.3211526337e+00 -2.5496734688e+00 6.9774182300e+00 5.1100000000e-04 0.0000e+00 1.0000e+00
       11  1    4    4    0    0 -1.0318321525e+00 +1.9189597794e+00 -8.4836028388e-02 2.1804315259e+00 5.1100000000e-04 0.0000e+00 -1.0000e+00
       12  1    4    4    0    0 -1.9944163108e+01 -1.0971955157e+01 -3.1210237605e+01 3.8629423674e+01 0.0000000000e+00 0.0000e+00 -1.0000e+00
      -12  1    3    3    0    0 +2.6557525094e+01 +5.7318427435e+00 +3.3844747102e+01 4.3400726570e+01 0.0000000000e+00 0.0000e+00 1.0000e+00
</event>
<event>
 8      4 +3.7482383e-04 9.11880000e+01 7.81616400e-03 1.18400000e-01
      -11 -1    0    0    0    0 +0.0000000000e+00 +0.0000000000e+00 +4.5593999997e+01 4.5594000000e+01 5.1100000000e-04 0.0000e+00 -1.0000e+00
       11 -1    0    0    0    0 -0.0000000000e+00 -0.0000000000e+00 -4.5593999997e+01 4.5594000000e+01 5.1100000000e-04 0.0000e+00 1.0000e+00
       23  2    1    2    0    0 +1.4210854715e-14 +1.7763568394e-15 +0.0000000000e+00 9.1188000000e+01 9.1188000000e+01 4.7481e-15 0.0000e+00
 -9990012  2    3    3    0    0 -3.8669459173e+01 -6.3147573321e+00 -1.8666009571e+01 4.7787272515e+01 2.0000006705e+01 2.5227e-01 0.0000e+00
      -11  1    4    4    0    0 -1.0650393252e+00 -1.2289414657e+00 -1.4701272558e+00 2.1922318079e+00 5.1100000000e-04 0.0000e+00 1.0000e+00
       11  1    4    4    0    0 -1.3353126233e+01 +2.4681464261e+00 -1.4793767113e+01 2.0081167114e+01 5.1100000000e-04 0.0000e+00 -1.0000e+00
      -12  1    4    4    0    0 -2.4251293615e+01 -7.5539622925e+00 -2.4021152023e+00 2.5513873593e+01 0.0000000000e+00 0.0000e+00 1.0000e+00
       12  1    3    3    0    0 +3.8669459173e+01 +6.3147573321e+00 +1.8666009571e+01 4.3400727485e+01 0.0000000000e+00 0.0000e+00 -1.0000e+00
</event>
<event>
 8      4 +3.7482383e-04 9.11880000e+01 7.81616400e-03 1.18400000e-01
      -11 -1    0    0    0    0 +0.0000000000e+00 +0.0000000000e+00 +4.5593999997e+01 4.5594000000e+01 5.1100000000e-04 0.0000e+00 -1.0000e+00
       11 -1    0    0    0    0 -0.0000000000e+00 -0.0000000000e+00 -4.5593999997e+01 4.5594000000e+01 5.1100000000e-04 0.0000e+00 1.0000e+00
       23  2    1    2    0    0 -1.7763568394e-15 +7.1054273576e-15 -4.4408920985e-16 9.1188000000e+01 9.1188000000e+01 2.1018e-13 0.0000e+00
 -9990012  2    3    3    0    0 +1.3050796390e+01 -4.1315285119e+01 +2.5193001459e+00 4.7787274844e+01 2.0000017322e+01 1.1043e+00 0.0000e+00
      -11  1    4    4    0    0 +4.8922753498e+00 -3.1264344934e+01 -4.7290519370e-01 3.1648337426e+01 5.1100000000e-04 0.0000e+00 1.0000e+00
       11  1    4    4    0    0 +4.2495839293e-02 -2.5152182140e+00 +4.3052499508e+00 4.9863118595e+00 5.1100000000e-04 0.0000e+00 -1.0000e+00
      -12  1    4    4    0    0 +8.1160252013e+00 -7.5357219713e+00 -1.3130446113e+00 1.1152625558e+01 0.0000000000e+00 0.0000e+00 1.0000e+00
       12  1    3    3    0    0 -1.3050796390e+01 +4.1315285119e+01 -2.5193001459e+00 4.3400725156e+01 0.0000000000e+00 0.0000e+00 -1.0000e+00
</event>
<event>
 8      4 +3.7482383e-04 9.11880000e+01 7.81616400e-03 1.18400000e-01
      -11 -1    0    0    0    0 +0.0000000000e+00 +0.0000000000e+00 +4.5593999997e+01 4.5594000000e+01 5.1100000000e-04 0.0000e+00 -1.0000e+00
       11 -1    0    0    0    0 -0.0000000000e+00 -0.0000000000e+00 -4.5593999997e+01 4.5594000000e+01 5.1100000000e-04 0.0000e+00 1.0000e+00
       23  2    1    2    0    0 +0.0000000000e+00 +0.0000000000e+00 +7.1054273576e-15 9.1188000000e+01 9.1188000000e+01 3.6489e-14 0.0000e+00
 -9990012  2    3    3    0    0 -1.0674912222e+01 +4.5552364857e+00 -4.1820091128e+01 4.7787263228e+01 1.9999964361e+01 5.8519e-02 0.0000e+00
      -11  1    4    4    0    0 -2.3552379735e+00 +4.3323353079e+00 -3.5667368143e+01 3.6006630301e+01 5.1100000000e-04 0.0000e+00 1.0000e+00
       11  1    4    4    0    0 -5.0759184770e+00 +2.8092218234e+00 -4.3797852492e+00 7.2690573480e+00 5.1100000000e-04 0.0000e+00 -1.0000e+00
      -12  1    4    4    0    0 -3.2437557715e+00 -2.5863206456e+00 -1.7729377364e+00 4.5115755789e+00 0.0000000000e+00 0.0000e+00 1.0000e+00
       12  1    3    3    0    0 +1.0674912222e+01 -4.5552364857e+00 +4.1820091128e+01 4.3400736772e+01 0.0000000000e+00 0.0000e+00 -1.0000e+00
</event>
<event>
 8      3 +3.7482383e-04 9.11880000e+01 7.81616400e-03 1.18400000e-01
      -11 -1    0    0    0    0 +0.0000000000e+00 +0.0000000000e+00 +4.5593999997e+01 4.5594000000e+01 5.1100000000e-04 0.0000e+00 1.0000e+00
       11 -1    0    0    0    0 -0.0000000000e+00 -0.0000000000e+00 -4.5593999997e+01 4.5594000000e+01 5.1100000000e-04 0.0000e+00 -1.0000e+00
       23  2    1    2    0    0 +1.7763568394e-15 +3.5527136788e-15 +0.0000000000e+00 9.1188000000e+01 9.1188000000e+01 4.3953e-14 0.0000e+00
  9990012  2    3    3    0    0 -1.0711015997e+01 -2.7250349873e+01 -3.2036162235e+01 4.7787272787e+01 2.0000007945e+01 6.7436e-01 0.0000e+00
      -11  1    4    4    0    0 -7.7009250373e+00 -1.7482520953e+01 -7.5014339236e+00 2.0523505950e+01 5.1100000000e-04 0.0000e+00 1.0000e+00
       11  1    4    4    0    0 -7.5276703221e-01 -5.1462604149e+00 -5.5990724914e+00 7.6420067710e+00 5.1100000000e-04 0.0000e+00 -1.0000e+00
       12  1    4    4    0    0 -2.2573239277e+00 -4.6215685044e+00 -1.8935655820e+01 1.9621760066e+01 0.0000000000e+00 0.0000e+00 -1.0000e+00
      -12  1    3    3    0    0 +1.0711015997e+01 +2.7250349873e+01 +3.2036162235e+01 4.3400727213e+01 0.0000000000e+00 0.0000e+00 1.0000e+00
</event>
<event>
 8      4 +3.7482383e-04 9.11880000e+01 7.81616400e-03 1.18400000e-01
      -11 -1    0    0    0    0 +0.0000000000e+00 +0.0000000000e+00 +4.5593999997e+01 4.5594000000e+01 5.1100000000e-04 0.0000e+00 1.0000e+00
       11 -1    0    0    0    0 -0.0000000000e+00 -0.0000000000e+00 -4.5593999997e+01 4.5594000000e+01 5.1100000000e-04 0.0000e+00 -1.0000e+00
       23  2    1    2    0    0 -3.5527136788e-15 +3.3306690739e-16 +3.5527136788e-15 9.1188000000e+01 9.1188000000e+01 3.1187e-14 0.0000e+00
 -9990012  2    3    3    0    0 -2.9610073327e+01 +1.6374339487e-01 +3.1730754569e+01 4.7787262220e+01 1.9999959766e+01 1.0819e-01 0.0000e+00
      -11  1    4    4    0    0 -2.8324049149e+01 +5.5927787047e+00 +2.9781760849e+01 4.1478720006e+01 5.1100000000e-04 0.0000e+00 1.0000e+00
       11  1    4    4    0    0 -1.7442236277e+00 -2.8030417775e+00 +1.4049084650e+00 3.5879140634e+00 5.1100000000e-04 0.0000e+00 -1.0000e+00
      -12  1    4    4    0    0 +4.5819945008e-01 -2.6259935323e+00 +5.4408525539e-01 2.7206281505e+00 0.0000000000e+00 0.0000e+00 1.0000e+00
       12  1    3    3    0    0 +2.9610073327e+01 -1.6374339487e-01 -3.1730754569e+01 4.3400737780e+01 0.0000000000e+00 0.0000e+00 -1.0000e+00
</event>
<event>
 8      4 +3.7482383e-04 9.11880000e+01 7.81616400e-03 1.18400000e-01
      -11 -1    0    0    0    0 +0.0000000000e+00 +0.0000000000e+00 +4.5593999997e+01 4.5594000000e+01 5.1100000000e-04 0.0000e+00 1.0000e+00
       11 -1    0    0    0    0 -0.0000000000e+00 -0.0000000000e+00 -4.5593999997e+01 4.5594000000e+01 5.1100000000e-04 0.0000e+00 -1.0000e+00
       23  2    1    2    0    0 +0.0000000000e+00 +0.0000000000e+00 +0.0000000000e+00 9.1188000000e+01 9.1188000000e+01 2.5107e-14 0.0000e+00
 -9990012  2    3    3    0    0 -1.3701980314e+01 +4.0080319938e+01 +9.4576425557e+00 4.7787270587e+01 1.9999997914e+01 9.5442e-02 0.0000e+00
      -11  1    4    4    0    0 -7.2054769266e+00 +1.4272649591e+01 +2.4471767459e+00 1.6174550948e+01 5.1100000000e-04 0.0000e+00 1.0000e+00
       11  1    4    4    0    0 -4.1324172115e+00 +2.6954397685e+01 +3.9093329822e+00 2.7548127181e+01 5.1100000000e-04 0.0000e+00 -1.0000e+00
      -12  1    4    4    0    0 -2.3640861760e+00 -1.1467273375e+00 +3.1011328277e+00 4.0645924579e+00 0.0000000000e+00 0.0000e+00 1.0000e+00
       12  1    3    3    0    0 +1.3701980314e+01 -4.0080319938e+01 -9.4576425557e+00 4.3400729413e+01 0.0000000000e+00 0.0000e+00 -1.0000e+00
</event>
<event>
 8      4 +3.7482383e-04 9.11880000e+01 7.81616400e-03 1.18400000e-01
      -11 -1    0    0    0    0 +0.0000000000e+00 +0.0000000000e+00 +4.5593999997e+01 4.5594000000e+01 5.1100000000e-04 0.0000e+00 1.0000e+00
       11 -1    0    0    0    0 -0.0000000000e+00 -0.0000000000e+00 -4.5593999997e+01 4.5594000000e+01 5.1100000000e-04 0.0000e+00 -1.0000e+00
       23  2    1    2    0    0 +0.0000000000e+00 -3.5527136788e-15 +0.0000000000e+00 9.1188000000e+01 9.1188000000e+01 1.1288e-13 0.0000e+00
 -9990012  2    3    3    0    0 -1.2326228288e+01 +1.7417788012e+01 +3.7792968120e+01 4.7787266338e+01 1.9999978543e+01 5.7039e-01 0.0000e+00
      -11  1    4    4    0    0 +1.0366087648e+00 +1.7393193517e+00 +2.3584714084e+00 3.1084042825e+00 5.1100000000e-04 0.0000e+00 1.0000e+00
       11  1    4    4    0    0 +2.9297757183e+00 +8.7821821663e+00 +1.5230326839e+01 1.7823388153e+01 5.1100000000e-04 0.0000e+00 -1.0000e+00
      -12  1    4    4    0    0 -1.6292612771e+01 +6.8962864943e+00 +2.0204169873e+01 2.6855473903e+01 0.0000000000e+00 0.0000e+00 1.0000e+00
       12  1    3    3    0    0 +1.2326228288e+01 -1.7417788012e+01 -3.7792968120e+01 4.3400733662e+01 0.0000000000e+00 0.0000e+00 -1.0000e+00
</event>
<event>
 8      4 +3.7482383e-04 9.11880000e+01 7.81616400e-03 1.18400000e-01
      -11 -1    0    0    0    0 +0.0000000000e+00 +0.0000000000e+00 +4.5593999997e+01 4.5594000000e+01 5.1100000000e-04 0.0000e+00 1.0000e+00
       11 -1    0    0    0    0 -0.0000000000e+00 -0.0000000000e+00 -4.5593999997e+01 4.5594000000e+01 5.1100000000e-04 0.0000e+00 -1.0000e+00
       23  2    1    2    0    0 +4.4408920985e-16 +0.0000000000e+00 +0.0000000000e+00 9.1188000000e+01 9.1188000000e+01 8.0263e-14 0.0000e+00
 -9990012  2    3    3    0    0 -2.2097512921e+00 +2.3140837860e+01 +3.6650280898e+01 4.7787257293e+01 1.9999937302e+01 9.5834e-02 0.0000e+00
      -11  1    4    4    0    0 -2.8108354841e+00 -8.7849484013e-01 +1.1577075456e+00 3.1643066105e+00 5.1100000000e-04 0.0000e+00 1.0000e+00
       11  1    4    4    0    0 -5.1955095948e+00 +5.1883067271e+00 +9.5136651469e+00 1.2017556800e+01 5.1100000000e-04 0.0000e+00 -1.0000e+00
      -12  1    4    4    0    0 +5.7965937868e+00 +1.8831025973e+01 +2.5978908205e+01 3.2605393883e+01 0.0000000000e+00 0.0000e+00 1.0000e+00
       12  1    3    3    0    0 +2.2097512921e+00 -2.3140837860e+01 -3.6650280898e+01 4.3400742707e+01 0.0000000000e+00 0.0000e+00 -1.0000e+00
</event>
<event>
 8      3 +3.7482383e-04 9.11880000e+01 7.81616400e-03 1.18400000e-01
      -11 -1    0    0    0    0 +0.0000000000e+00 +0.0000000000e+00 +4.5593999997e+01 4.5594000000e+01 5.1100000000e-04 0.0000e+00 -1.0000e+00
       11 -1    0    0    0    0 -0.0000000000e+00 -0.0000000000e+00 -4.5593999997e+01 4.5594000000e+01 5.1100000000e-04 0.0000e+00 1.0000e+00
       23  2    1    2    0    0 +0.0000000000e+00 -4.4408920985e-16 +0.0000000000e+00 9.1188000000e+01 9.1188000000e+01 1.2560e-14 0.0000e+00
  9990012  2    3    3    0    0 +2.2991156472e+01 -3.3657172638e+00 +3.6656535759e+01 4.7787274862e+01 2.0000017408e+01 1.6723e+00 0.0000e+00
      -11  1    4    4    0    0 +4.2663277480e-01 +3.5706720561e+00 +9.3860386984e-01 3.7165430097e+00 5.1100000000e-04 0.0000e+00 1.0000e+00
       11  1    4    4    0    0 +1.6270960364e+01 -1.5831905664e+00 +2.9511914009e+01 3.3737274820e+01 5.1100000000e-04 0.0000e+00 -1.0000e+00
       12  1    4    4    0    0 +6.2935633331e+00 -5.3531987536e+00 +6.2060178803e+00 1.0333457033e+01 0.0000000000e+00 0.0000e+00 -1.0000e+00
      -12  1    3    3    0    0 -2.2991156472e+01 +3.3657172638e+00 -3.6656535759e+01 4.3400725138e+01 0.0000000000e+00 0.0000e+00 1.0000e+00
</event>
<event>
 8      4 +3.7482383e-04 9.11880000e+01 7.81616400e-03 1.18400000e-01
      -11 -1    0    0    0    0 +0.0000000000e+00 +0.0000000000e+00 +4.5593999997e+01 4.5594000000e+01 5.1100000000e-04 0.0000e+00 1.0000e+00
       11 -1    0    0    0    0 -0.0000000000e+00 -0.0000000000e+00 -4.5593999997e+01 4.5594000000e+01 5.1100000000e-04 0.0000e+00 -1.0000e+00
       23  2    1    2    0    0 +1.7763568394e-15 -1.7763568394e-15 +0.0000000000e+00 9.1188000000e+01 9.1188000000e+01 3.7011e-14 0.0000e+00
 -9990012  2    3    3    0    0 +1.2926799360e+01 -9.4090961163e+00 +4.0348357660e+01 4.7787271927e+01 2.0000004024e+01 2.5034e-01 0.0000e+00
      -11  1    4    4    0    0 +1.3878783872e+00 -3.9603355814e+00 +1.1364057615e+01 1.2114135135e+01 5.1100000000e-04 0.0000e+00 1.0000e+00
       11  1    4    4    0    0 +2.0097226439e+00 -1.0003338898e+01 +1.5220619348e+01 1.8324110560e+01 5.1100000000e-04 0.0000e+00 -1.0000e+00
      -12  1    4    4    0    0 +9.5291983292e+00 +4.5545783636e+00 +1.3763680696e+01 1.7349026232e+01 0.0000000000e+00 0.0000e+00 1.0000e+00
       12  1    3    3    0    0 -1.2926799360e+01 +9.4090961163e+00 -4.0348357660e+01 4.3400728073e+01 0.0000000000e+00 0.0000e+00 -1.0000e+00
</event>
<event>
 8      4 +3.7482383e-04 9.11880000e+01 7.81616400e-03 1.18400000e-01
      -11 -1    0    0    0    0 +0.0000000000e+00 +0.0000000000e+00 +4.5593999997e+01 4.5594000000e+01 5.1100000000e-04 0.0000e+00 1.0000e+00
       11 -1    0    0    0    0 -0.0000000000e+00 -0.0000000000e+00 -4.5593999997e+01 4.5594000000e+01 5.1100000000e-04 0.0000e+00 -1.0000e+00
       23  2    1    2    0    0 +0.0000000000e+00 +0.0000000000e+00 +0.0000000000e+00 9.1188000000e+01 9.1188000000e+01 2.7233e-13 0.0000e+00
 -9990012  2    3    3    0    0 -1.4037035638e+01 -4.1043201756e+01 -1.4282601182e+00 4.7787277577e+01 2.0000029783e+01 5.8236e-01 0.0000e+00
      -11  1    4    4    0    0 -1.0299945454e+01 -3.2753590223e+01 -2.2927845382e+00 3.4411384890e+01 5.1100000000e-04 0.0000e+00 1.0000e+00
       11  1    4    4    0    0 -7.0742253015e+00 -6.1917900440e+00 +7.7542539438e-01 9.4331443521e+00 5.1100000000e-04 0.0000e+00 -1.0000e+00
      -12  1    4    4    0    0 +3.3371351174e+00 -2.0978214892e+00 +8.9099025642e-02 3.9427483344e+00 0.0000000000e+00 0.0000e+00 1.0000e+00
       12  1    3    3    0    0 +1.4037035638e+01 +4.1043201756e+01 +1.4282601182e+00 4.3400722423e+01 0.0000000000e+00 0.0000e+00 -1.0000e+00
</event>
<event>
 8      3 +3.7482383e-04 9.11880000e+01 7.81616400e-03 1.18400000e-01
      -11 -1    0    0    0    0 +0.0000000000e+00 +0.0000000000e+00 +4.5593999997e+01 4.5594000000e+01 5.1100000000e-04 0.0000e+00 1.0000e+00
       11 -1    0    0    0    0 -0.0000000000e+00 -0.0000000000e+00 -4.5593999997e+01 4.5594000000e+01 5.1100000000e-04 0.0000e+00 -1.0000e+00
       23  2    1    2    0    0 +0.0000000000e+00 +0.0000000000e+00 -3.5527136788e-15 9.1188000000e+01 9.1188000000e+01 1.4757e-14 0.0000e+00
  9990012  2    3    3    0    0 +3.0627465666e+01 -2.3431453720e+01 -1.9913572468e+01 4.7787250639e+01 1.9999906965e+01 1.5893e-01 0.0000e+00
      -11  1    4    4    0    0 +2.0519299685e+01 -1.1385976537e+01 -5.7366991234e+00 2.4157645546e+01 5.1100000000e-04 0.0000e+00 1.0000e+00
       11  1    4    4    0    0 +1.6169518594e+00 -3.2937360437e+00 -1.0142090025e+01 1.0785417042e+01 5.1100000000e-04 0.0000e+00 -1.0000e+00
       12  1    4    4    0    0 +8.4912141224e+00 -8.7517411397e+00 -4.0347833203e+00 1.2844188051e+01 0.0000000000e+00 0.0000e+00 -1.0000e+00
      -12  1    3    3    0    0 -3.0627465666e+01 +2.3431453720e+01 +1.9913572468e+01 4.3400749361e+01 0.0000000000e+00 0.0000e+00 1.0000e+00
</event>
<event>
 8      4 +3.7482383e-04 9.11880000e+01 7.81616400e-03 1.18400000e-01
      -11 -1    0    0    0    0 +0.0000000000e+00 +0.0000000000e+00 +4.5593999997e+01 4.5594000000e+01 5.1100000000e-04 0.0000e+00 -1.0000e+00
       11 -1    0    0    0    0 -0.0000000000e+00 -0.0000000000e+00 -4.5593999997e+01 4.5594000000e+01 5.1100000000e-04 0.0000e+00 1.0000e+00
       23  2    1    2    0    0 +0.0000000000e+00 +0.0000000000e+00 +1.1102230246e-16 9.1188000000e+01 9.1188000000e+01 1.8691e-15 0.0000e+00
 -9990012  2    3    3    0    0 +4.1038625332e+01 -1.4096440749e+01 -8.6257990990e-01 4.7787280479e+01 2.0000043014e+01 1.1939e-01 0.0000e+00
      -11  1    4    4    0    0 +3.3613317046e+01 -7.1635979036e+00 +1.4279513335e+00 3.4397838057e+01 5.1100000000e-04 0.0000e+00 -1.0000e+00
       11  1    4    4    0    0 +1.8812691397e+00 -5.2761972101e+00 -4.5106325591e+00 7.1918868818e+00 5.1100000000e-04 0.0000e+00 1.0000e+00
      -12  1    4    4    0    0 +5.5440391459e+00 -1.6566456350e+00 +2.2201013157e+00 6.1975555393e+00 0.0000000000e+00 0.0000e+00 1.0000e+00
       12  1    3    3    0    0 -4.1038625332e+01 +1.4096440749e+01 +8.6257990990e-01 4.3400719521e+01 0.0000000000e+00 0.0000e+00 -1.0000e+00
</event>
<event>
 8      3 +3.7482383e-04 9.11880000e+01 7.81616400e-03 1.18400000e-01
      -11 -1    0    0    0    0 +0.0000000000e+00 +0.0000000000e+00 +4.5593999997e+01 4.5594000000e+01 5.1100000000e-04 0.0000e+00 -1.0000e+00
       11 -1    0    0    0    0 -0.0000000000e+00 -0.0000000000e+00 -4.5593999997e+01 4.5594000000e+01 5.1100000000e-04 0.0000e+00 1.0000e+00
       23  2    1    2    0    0 +0.0000000000e+00 +3.5527136788e-15 +0.0000000000e+00 9.1188000000e+01 9.1188000000e+01 3.1379e-15 0.0000e+00
  9990012  2    3    3    0    0 +3.3312971263e+01 -2.2341364936e+01 +1.6575099726e+01 4.7787256083e+01 1.9999931785e+01 2.5335e-01 0.0000e+00
      -11  1    4    4    0    0 +1.0262748366e+00 -5.3513196187e+00 +3.4699701597e+00 6.4599191073e+00 5.1100000000e-04 0.0000e+00 1.0000e+00
       11  1    4    4    0    0 +1.9109212664e+01 -6.2878685180e+00 +1.3703218569e+01 2.4340860678e+01 5.1100000000e-04 0.0000e+00 -1.0000e+00
       12  1    4    4    0    0 +1.3177483762e+01 -1.0702176800e+01 -5.9808900190e-01 1.6986476298e+01 0.0000000000e+00 0.0000e+00 -1.0000e+00
      -12  1    3    3    0    0 -3.3312971263e+01 +2.2341364936e+01 -1.6575099726e+01 4.3400743917e+01 0.0000000000e+00 0.0000e+00 1.0000e+00
</event>
<event>
 8      3 +3.7482383e-04 9.11880000e+01 7.81616400e-03 1.18400000e-01
      -11 -1    0    0    0    0 +0.0000000000e+00 +0.0000000000e+00 +4.5593999997e+01 4.5594000000e+01 5.1100000000e-04 0.0000e+00 1.0000e+00
       11 -1    0    0    0    0 -0.0000000000e+00 -0.0000000000e+00 -4.5593999997e+01 4.5594000000e+01 5.1100000000e-04 0.0000e+00 -1.0000e+00
       23  2    1    2    0    0 +0.0000000000e+00 -7.1054273576e-15 +0.0000000000e+00 9.1188000000e+01 9.1188000000e+01 5.0096e-15 0.0000e+00
  9990012  2    3    3    0    0 -9.2129911058e+00 +4.2149860394e+01 +4.7046619805e+00 4.7787265206e+01 1.9999973380e+01 1.3203e+00 0.0000e+00
      -11  1    4    4    0    0 -1.8561037952e+00 +1.3338680891e+01 -4.4024736262e+00 1.4168532158e+01 5.1100000000e-04 0.0000e+00 1.0000e+00
       11  1    4    4    0    0 -1.0395090905e+01 +1.6108283146e+01 +6.8841389938e+00 2.0369734185e+01 5.1100000000e-04 0.0000e+00 -1.0000e+00
       12  1    4    4    0    0 +3.0382035943e+00 +1.2702896357e+01 +2.2229966128e+00 1.3248998863e+01 0.0000000000e+00 0.0000e+00 -1.0000e+00
      -12  1    3    3    0    0 +9.2129911058e+00 -4.2149860394e+01 -4.7046619805e+00 4.3400734794e+01 0.0000000000e+00 0.0000e+00 1.0000e+00
</event>
<event>
 8      3 +3.7482383e-04 9.11880000e+01 7.81616400e-03 1.18400000e-01
      -11 -1    0    0    0    0 +0.0000000000e+00 +0.0000000000e+00 +4.5593999997e+01 4.5594000000e+01 5.1100000000e-04 0.0000e+00 -1.0000e+00
       11 -1    0    0    0    0 -0.0000000000e+00 -0.0000000000e+00 -4.5593999997e+01 4.5594000000e+01 5.1100000000e-04 0.0000e+00 1.0000e+00
       23  2    1    2    0    0 +0.0000000000e+00 +0.0000000000e+00 +0.0000000000e+00 9.1188000000e+01 9.1188000000e+01 3.0993e-14 0.0000e+00
  9990012  2    3    3    0    0 +8.5796774876e+00 +2.4082166179e+01 +3.5072240787e+01 4.7787266510e+01 1.9999979325e+01 7.3416e-01 0.0000e+00
      -11  1    4    4    0    0 +1.0215534234e+01 +8.4535433621e+00 +1.5553576037e+01 2.0438523990e+01 5.1100000000e-04 0.0000e+00 1.0000e+00
       11  1    4    4    0    0 +3.4724525061e+00 +1.0894791848e+01 +8.2449015817e+00 1.4097262790e+01 5.1100000000e-04 0.0000e+00 -1.0000e+00
       12  1    4    4    0    0 -5.1083092528e+00 +4.7338309687e+00 +1.1273763168e+01 1.3251479730e+01 0.0000000000e+00 0.0000e+00 -1.0000e+00
      -12  1    3    3    0    0 -8.5796774876e+00 -2.4082166179e+01 -3.5072240787e+01 4.3400733490e+01 0.0000000000e+00 0.0000e+00 1.0000e+00
</event>
<event>
 8      4 +3.7482383e-04 9.11880000e+01 7.81616400e-03 1.18400000e-01
      -11 -1    0    0    0    0 +0.0000000000e+00 +0.0000000000e+00 +4.5593999997e+01 4.5594000000e+01 5.1100000000e-04 0.0000e+00 -1.0000e+00
       11 -1    0    0    0    0 -0.0000000000e+00 -0.0000000000e+00 -4.5593999997e+01 4.5594000000e+01 5.1100000000e-04 0.0000e+00 1.0000e+00
       23  2    1    2    0    0 +3.5527136788e-15 +0.0000000000e+00 +3.5527136788e-15 9.1188000000e+01 9.1188000000e+01 1.0492e-13 0.0000e+00
 -9990012  2    3    3    0    0 -1.9923997596e+01 -3.0157463722e+01 -2.4024676081e+01 4.7787270062e+01 1.9999995522e+01 3.4121e-01 0.0000e+00
      -11  1    4    4    0    0 -6.3068735495e-01 -5.8031522720e+00 -8.7240096641e+00 1.0496794164e+01 5.1100000000e-04 0.0000e+00 1.0000e+00
       11  1    4    4    0    0 -1.1119984496e+01 -1.5282343944e+01 -1.6445344872e+00 1.8971256826e+01 5.1100000000e-04 0.0000e+00 -1.0000e+00
      -12  1    4    4    0    0 -8.1733257454e+00 -9.0719675061e+00 -1.3656131929e+01 1.8319219073e+01 0.0000000000e+00 0.0000e+00 1.0000e+00
       12  1    3    3    0    0 +1.9923997596e+01 +3.0157463722e+01 +2.4024676081e+01 4.3400729938e+01 0.0000000000e+00 0.0000e+00 -1.0000e+00
</event>
<event>
 8      4 +3.7482383e-04 9.11880000e+01 7.81616400e-03 1.18400000e-01
      -11 -1    0    0    0    0 +0.0000000000e+00 +0.0000000000e+00 +4.5593999997e+01 4.5594000000e+01 5.1100000000e-04 0.0000e+00 -1.0000e+00
       11 -1    0    0    0    0 -0.0000000000e+00 -0.0000000000e+00 -4.5593999997e+01 4.5594000000e+01 5.1100000000e-04 0.0000e+00 1.0000e+00
       23  2    1    2    0    0 +0.0000000000e+00 +0.0000000000e+00 +0.0000000000e+00 9.1188000000e+01 9.1188000000e+01 1.6364e-13 0.0000e+00
 -9990012  2    3    3    0    0 +1.4614766118e+01 -1.4001057793e+01 -3.8392718468e+01 4.7787287571e+01 2.0000075351e+01 7.0836e-02 0.0000e+00
      -11  1    4    4    0    0 -2.6747801515e+00 +2.1083337391e+00 -7.6186418342e+00 8.3452515644e+00 5.1100000000e-04 0.0000e+00 1.0000e+00
       11  1    4    4    0    0 +4.1170853386e+00 -6.1399104839e-01 -3.6223610665e+00 5.5180500768e+00 5.1100000000e-04 0.0000e+00 -1.0000e+00
      -12  1    4    4    0    0 +1.3172460931e+01 -1.5495400484e+01 -2.7151715567e+01 3.3923985930e+01 0.0000000000e+00 0.0000e+00 1.0000e+00
       12  1    3    3    0    0 -1.4614766118e+01 +1.4001057793e+01 +3.8392718468e+01 4.3400712429e+01 0.0000000000e+00 0.0000e+00 -1.0000e+00
</event>
<event>
 8      4 +3.7482383e-04 9.11880000e+01 7.81616400e-03 1.18400000e-01
      -11 -1    0    0    0    0 +0.0000000000e+00 +0.0000000000e+00 +4.5593999997e+01 4.5594000000e+01 5.1100000000e-04 0.0000e+00 1.0000e+00
       11 -1    0    0    0    0 -0.0000000000e+00 -0.0000000000e+00 -4.5593999997e+01 4.5594000000e+01 5.1100000000e-04 0.0000e+00 -1.0000e+00
       23  2    1    2    0    0 +0.0000000000e+00 +1.7763568394e-15 +0.0000000000e+00 9.1188000000e+01 9.1188000000e+01 3.3030e-14 0.0000e+00
 -9990012  2    3    3    0    0 -3.4182458454e+01 +9.3442979564e+00 +2.5057285654e+01 4.7787263432e+01 1.9999965293e+01 2.2406e-01 0.0000e+00
      -11  1    4    4    0    0 -2.1487100942e+01 +3.5569636175e+00 +2.0961440771e+01 3.0227958855e+01 5.1100000000e-04 0.0000e+00 1.0000e+00
       11  1    4    4    0    0 +2.4931343851e-01 -1.9684572073e+00 +4.3480749631e-01 2.0312653169e+00 5.1100000000e-04 0.0000e+00 -1.0000e+00
      -12  1    4    4    0    0 -1.2944670950e+01 +7.7557915463e+00 +3.6610373868e+00 1.5528039260e+01 0.0000000000e+00 0.0000e+00 1.0000e+00
       12  1    3    3    0    0 +3.4182458454e+01 -9.3442979564e+00 -2.5057285654e+01 4.3400736568e+01 0.0000000000e+00 0.0000e+00 -1.0000e+00
</event>
<event>
 8      3 +3.7482383e-04 9.11880000e+01 7.81616400e-03 1.18400000e-01
      -11 -1    0    0    0    0 +0.0000000000e+00 +0.0000000000e+00 +4.5593999997e+01 4.5594000000e+01 5.1100000000e-04 0.0000e+00 1.0000e+00
       11 -1    0    0    0    0 -0.0000000000e+00 -0.0000000000e+00 -4.5593999997e+01 4.5594000000e+01 5.1100000000e-04 0.0000e+00 -1.0000e+00
       23  2    1    2    0    0 +3.5527136788e-15 +8.8817841970e-16 +0.0000000000e+00 9.1188000000e+01 9.1188000000e+01 1.0111e-13 0.0000e+00
  9990012  2    3    3    0    0 +2.4274608763e+01 -7.0810693211e+00 -3.5273583685e+01 4.7787264070e+01 1.9999968199e+01 2.0523e-01 0.0000e+00
      -11  1    4    4    0    0 +1.5303321001e+01 -6.1621608881e+00 -9.7749672794e+00 1.9175866240e+01 5.1100000000e-04 0.0000e+00 1.0000e+00
       11  1    4    4    0    0 +3.0750449192e+00 +2.7508090383e+00 -1.7674136943e+01 1.8149324190e+01 5.1100000000e-04 0.0000e+00 -1.0000e+00
       12  1    4    4    0    0 +5.8962428427e+00 -3.6697174713e+00 -7.8244794624e+00 1.0462073639e+01 0.0000000000e+00 0.0000e+00 -1.0000e+00
      -12  1    3    3    0    0 -2.4274608763e+01 +7.0810693211e+00 +3.5273583685e+01 4.3400735930e+01 0.0000000000e+00 0.0000e+00 1.0000e+00
</event>
<event>
 8      4 +3.7482383e-04 9.11880000e+01 7.81616400e-03 1.18400000e-01
      -11 -1    0    0    0    0 +0.0000000000e+00 +0.0000000000e+00 +4.5593999997e+01 4.5594000000e+01 5.1100000000e-04 0.0000e+00 1.0000e+00
       11 -1    0    0    0    0 -0.0000000000e+00 -0.0000000000e+00 -4.5593999997e+01 4.5594000000e+01 5.1100000000e-04 0.0000e+00 -1.0000e+00
       23  2    1    2    0    0 +0.0000000000e+00 -7.1054273576e-15 -1.7763568394e-15 9.1188000000e+01 9.1188000000e+01 2.6856e-13 0.0000e+00
 -9990012  2    3    3    0    0 +1.7638104877e+01 -3.6667749847e+01 -1.5099555165e+01 4.7787272026e+01 2.0000004477e+01 2.9055e-01 0.0000e+00
      -11  1    4    4    0    0 +5.2542607728e+00 -5.5146259261e+00 -4.9847158278e-02 7.6171412206e+00 5.1100000000e-04 0.0000e+00 1.0000e+00
       11  1    4    4    0    0 +4.2152760535e+00 -9.4115021652e-01 +1.7373881862e+00 4.6554091021e+00 5.1100000000e-04 0.0000e+00 -1.0000e+00
      -12  1    4    4    0    0 +8.1685680506e+00 -3.0211973704e+01 -1.6787096193e+01 3.5514721704e+01 0.0000000000e+00 0.0000e+00 1.0000e+00
       12  1    3    3    0    0 -1.7638104877e+01 +3.6667749847e+01 +1.5099555165e+01 4.3400727974e+01 0.0000000000e+00 0.0000e+00 -1.0000e+00
</event>
<event>
 8      4 +3.7482383e-04 9.11880000e+01 7.81616400e-03 1.18400000e-01
      -11 -1    0    0    0    0 +0.0000000000e+00 +0.0000000000e+00 +4.5593999997e+01 4.5594000000e+01 5.1100000000e-04 0.0000e+00 1.0000e+00
       11 -1    0    0    0    0 -0.0000000000e+00 -0.0000000000e+00 -4.5593999997e+01 4.5594000000e+01 5.1100000000e-04 0.0000e+00 -1.0000e+00
       23  2    1    2    0    0 +0.0000000000e+00 +1.7763568394e-15 +0.0000000000e+00 9.1188000000e+01 9.1188000000e+01 3.4835e-13 0.0000e+00
 -9990012  2    3    3    0    0 -3.0451251737e+01 -7.0231832954e+00 +3.0116765325e+01 4.7787269711e+01 1.9999993922e+01 5.6574e-02 0.0000e+00
      -11  1    4    4    0    0 -1.5001908363e+00 +4.8454826551e+00 +6.0040748326e+00 7.8599102770e+00 5.1100000000e-04 0.0000e+00 1.0000e+00
       11  1    4    4    0    0 -2.1414277794e+01 -6.8607070630e+00 +1.4668751906e+01 2.6847958537e+01 5.1100000000e-04 0.0000e+00 -1.0000e+00
      -12  1    4    4    0    0 -7.5367831063e+00 -5.0079588876e+00 +9.4439385869e+00 1.3079400898e+01 0.0000000000e+00 0.0000e+00 1.0000e+00
       12  1    3    3    0    0 +3.0451251737e+01 +7.0231832954e+00 -3.0116765325e+01 4.3400730289e+01 0.0000000000e+00 0.0000e+00 -1.0000e+00
</event>
<event>
 8      4 +3.7482383e-04 9.11880000e+01 7.81616400e-03 1.18400000e-01
      -11 -1    0    0    0    0 +0.0000000000e+00 +0.0000000000e+00 +4.5593999997e+01 4.5594000000e+01 5.1100000000e-04 0.0000e+00 1.0000e+00
       11 -1    0    0    0    0 -0.0000000000e+00 -0.0000000000e+00 -4.5593999997e+01 4.5594000000e+01 5.1100000000e-04 0.0000e+00 -1.0000e+00
       23  2    1    2    0    0 +0.0000000000e+00 +0.0000000000e+00 +0.0000000000e+00 9.1188000000e+01 9.1188000000e+01 9.6332e-15 0.0000e+00
 -9990012  2    3    3    0    0 -1.6549259198e+01 +1.8589962719e+01 +3.5555000366e+01 4.7787277139e+01 2.0000027786e+01 2.6870e-01 0.0000e+00
      -11  1    4    4    0    0 -1.0798465582e+01 +2.7880498202e+00 +1.5008134560e+01 1.8698240130e+01 5.1100000000e-04 0.0000e+00 1.0000e+00
       11  1    4    4    0    0 +2.4877970288e+00 +9.9832026762e-02 +4.6486721651e+00 5.2734479849e+00 5.1100000000e-04 0.0000e+00 -1.0000e+00
      -12  1    4    4    0    0 -8.2385906446e+00 +1.5702080872e+01 +1.5898193641e+01 2.3815589024e+01 0.0000000000e+00 0.0000e+00 1.0000e+00
       12  1    3    3    0    0 +1.6549259198e+01 -1.8589962719e+01 -3.5555000366e+01 4.3400722861e+01 0.0000000000e+00 0.0000e+00 -1.0000e+00
</event>
<event>
 8      3 +3.7482383e-04 9.11880000e+01 7.81616400e-03 1.18400000e-01
      -11 -1    0    0    0    0 +0.0000000000e+00 +0.0000000000e+00 +4.5593999997e+01 4.5594000000e+01 5.1100000000e-04 0.0000e+00 1.0000e+00
       11 -1    0    0    0    0 -0.0000000000e+00 -0.0000000000e+00 -4.5593999997e+01 4.5594000000e+01 5.1100000000e-04 0.0000e+00 -1.0000e+00
       23  2    1    2    0    0 +7.1054273576e-15 +0.0000000000e+00 -8.8817841970e-16 9.1188000000e+01 9.1188000000e+01 2.2408e-14 0.0000e+00
  9990012  2    3    3    0    0 +3.6723033678e+01 +2.2689172102e+01 +4.4992330123e+00 4.7787276148e+01 2.0000023271e+01 1.2695e-01 0.0000e+00
      -11  1    4    4    0    0 +1.0948669233e+01 +2.9728069389e+00 -5.1973585882e+00 1.2478921252e+01 5.1100000000e-04 0.0000e+00 1.0000e+00
       11  1    4    4    0    0 +3.7612467288e+00 +4.5640366388e+00 +5.8327188980e+00 8.3065045236e+00 5.1100000000e-04 0.0000e+00 -1.0000e+00
       12  1    4    4    0    0 +2.2013117716e+01 +1.5152328524e+01 +3.8638727025e+00 2.7001850373e+01 0.0000000000e+00 0.0000e+00 -1.0000e+00
      -12  1    3    3    0    0 -3.6723033678e+01 -2.2689172102e+01 -4.4992330123e+00 4.3400723852e+01 0.0000000000e+00 0.0000e+00 1.0000e+00
</event>
<event>
 8      4 +3.7482383e-04 9.11880000e+01 7.81616400e-03 1.18400000e-01
      -11 -1    0    0    0    0 +0.0000000000e+00 +0.0000000000e+00 +4.5593999997e+01 4.5594000000e+01 5.1100000000e-04 0.0000e+00 1.0000e+00
       11 -1    0    0    0    0 -0.0000000000e+00 -0.0000000000e+00 -4.5593999997e+01 4.5594000000e+01 5.1100000000e-04 0.0000e+00 -1.0000e+00
       23  2    1    2    0    0 +3.5527136788e-15 +4.4408920985e-16 +0.0000000000e+00 9.1188000000e+01 9.1188000000e+01 3.8017e-14 0.0000e+00
 -9990012  2    3    3    0    0 -2.8842364405e+01 +1.6991938302e+00 +3.2386016816e+01 4.7787270405e+01 1.9999997087e+01 2.3337e-01 0.0000e+00
      -11  1    4    4    0    0 -9.3909694324e+00 -5.9414560167e+00 +1.9459980771e+01 2.2409418965e+01 5.1100000000e-04 0.0000e+00 1.0000e+00
       11  1    4    4    0    0 -1.1283627268e+01 +1.4183378853e+00 +5.0802938933e+00 1.2455573571e+01 5.1100000000e-04 0.0000e+00 -1.0000e+00
      -12  1    4    4    0    0 -8.1677677045e+00 +6.2223119616e+00 +7.8457421511e+00 1.2922277869e+01 0.0000000000e+00 0.0000e+00 1.0000e+00
       12  1    3    3    0    0 +2.8842364405e+01 -1.6991938302e+00 -3.2386016816e+01 4.3400729595e+01 0.0000000000e+00 0.0000e+00 -1.0000e+00
</event>
<event>
 8      4 +3.7482383e-04 9.11880000e+01 7.81616400e-03 1.18400000e-01
      -11 -1    0    0    0    0 +0.0000000000e+00 +0.0000000000e+00 +4.5593999997e+01 4.5594000000e+01 5.1100000000e-04 0.0000e+00 -1.0000e+00
       11 -1    0    0    0    0 -0.0000000000e+00 -0.0000000000e+00 -4.5593999997e+01 4.5594000000e+01 5.1100000000e-04 0.0000e+00 1.0000e+00
       23  2    1    2    0    0 +1.7763568394e-15 -3.5527136788e-15 +0.0000000000e+00 9.1188000000e+01 9.1188000000e+01 3.4430e-14 0.0000e+00
 -9990012  2    3    3    0    0 -1.2046337128e+01 +1.8158273275e+01 +3.7533798252e+01 4.7787272613e+01 2.0000007150e+01 1.1300e-01 0.0000e+00
      -11  1    4    4    0    0 -1.0486718118e+01 +6.6266381498e+00 +1.3903003723e+01 1.8632689093e+01 5.1100000000e-04 0.0000e+00 1.0000e+00
       11  1    4    4    0    0 -5.3895073028e+00 +6.3647394412e-01 +9.0742079165e+00 1.0573227399e+01 5.1100000000e-04 0.0000e+00 -1.0000e+00
      -12  1    4    4    0    0 +3.8298882922e+00 +1.0895161181e+01 +1.4556586613e+01 1.8581356121e+01 0.0000000000e+00 0.0000e+00 1.0000e+00
       12  1    3    3    0    0 +1.2046337128e+01 -1.8158273275e+01 -3.7533798252e+01 4.3400727387e+01 0.0000000000e+00 0.0000e+00 -1.0000e+00
</event>
<event>
 8      3 +3.7482383e-04 9.11880000e+01 7.81616400e-03 1.18400000e-01
      -11 -1    0    0    0    0 +0.0000000000e+00 +0.0000000000e+00 +4.5593999997e+01 4.5594000000e+01 5.1100000000e-04 0.0000e+00 1.0000e+00
       11 -1    0    0    0    0 -0.0000000000e+00 -0.0000000000e+00 -4.5593999997e+01 4.5594000000e+01 5.1100000000e-04 0.0000e+00 -1.0000e+00
       23  2    1    2    0    0 +0.0000000000e+00 +1.1102230246e-15 +0.0000000000e+00 9.1188000000e+01 9.1188000000e+01 2.2187e-14 0.0000e+00
  9990012  2    3    3    0    0 +1.0053842786e+01 +1.5437035020e+00 -4.2191969412e+01 4.7787250489e+01 1.9999906280e+01 2.8781e-01 0.0000e+00
      -11  1    4    4    0    0 +5.4540040392e+00 -6.1520522602e+00 -1.5075593407e+01 1.7171704164e+01 5.1100000000e-04 0.0000e+00 1.0000e+00
       11  1    4    4    0    0 +2.2189660462e+00 +7.4356620485e+00 -7.2961385430e+00 1.0651127561e+01 5.1100000000e-04 0.0000e+00 -1.0000e+00
       12  1    4    4    0    0 +2.3808727006e+00 +2.6009371365e-01 -1.9820237462e+01 1.9964418765e+01 0.0000000000e+00 0.0000e+00 -1.0000e+00
      -12  1    3    3    0    0 -1.0053842786e+01 -1.5437035020e+00 +4.2191969412e+01 4.3400749511e+01 0.0000000000e+00 0.0000e+00 1.0000e+00
</event>
<event>
 8      3 +3.7482383e-04 9.11880000e+01 7.81616400e-03 1.18400000e-01
      -11 -1    0    0    0    0 +0.0000000000e+00 +0.0000000000e+00 +4.5593999997e+01 4.5594000000e+01 5.1100000000e-04 0.0000e+00 -1.0000e+00
       11 -1    0    0    0    0 -0.0000000000e+00 -0.0000000000e+00 -4.5593999997e+01 4.5594000000e+01 5.1100000000e-04 0.0000e+00 1.0000e+00
       23  2    1    2    0    0 +0.0000000000e+00 -3.5527136788e-15 +0.0000000000e+00 9.1188000000e+01 9.1188000000e+01 7.6948e-14 0.0000e+00
  9990012  2    3    3    0    0 +3.6643009302e+01 +2.1429535609e+01 -9.0381695379e+00 4.7787266876e+01 1.9999980992e+01 3.0913e-01 0.0000e+00
      -11  1    4    4    0    0 +2.8899125177e+00 +4.5680160324e+00 +3.0675781885e+00 6.2151750608e+00 5.1100000000e-04 0.0000e+00 1.0000e+00
       11  1    4    4    0    0 +3.2386517261e+01 +1.2183128505e+01 -1.2220597347e+01 3.6696840739e+01 5.1100000000e-04 0.0000e+00 -1.0000e+00
       12  1    4    4    0    0 +1.3665795236e+00 +4.6783910721e+00 +1.1484962026e-01 4.8752510759e+00 0.0000000000e+00 0.0000e+00 -1.0000e+00
      -12  1    3    3    0    0 -3.6643009302e+01 -2.1429535609e+01 +9.0381695379e+00 4.3400733124e+01 0.0000000000e+00 0.0000e+00 1.0000e+00
</event>
<event>
 8      3 +3.7482383e-04 9.11880000e+01 7.81616400e-03 1.18400000e-01
      -11 -1    0    0    0    0 +0.0000000000e+00 +0.0000000000e+00 +4.5593999997e+01 4.5594000000e+01 5.1100000000e-04 0.0000e+00 -1.0000e+00
       11 -1    0    0    0    0 -0.0000000000e+00 -0.0000000000e+00 -4.5593999997e+01 4.5594000000e+01 5.1100000000e-04 0.0000e+00 1.0000e+00
       23  2    1    2    0    0 +0.0000000000e+00 -1.1102230246e-16 +0.0000000000e+00 9.1188000000e+01 9.1188000000e+01 1.1217e-13 0.0000e+00
  9990012  2    3    3    0    0 -3.5969853454e+01 +6.1007379131e-01 +2.4277987922e+01 4.7787271376e+01 2.0000001514e+01 3.2302e-01 0.0000e+00
      -11  1    4    4    0    0 -1.3000019928e+01 +2.7820845864e+00 -6.4122296444e-01 1.3309833956e+01 5.1100000000e-04 0.0000e+00 1.0000e+00
       11  1    4    4    0    0 -9.4334285324e+00 -2.4117843674e+00 +1.4158344405e+01 1.7183276587e+01 5.1100000000e-04 0.0000e+00 -1.0000e+00
       12  1    4    4    0    0 -1.3536404993e+01 +2.3977357235e-01 +1.0760866481e+01 1.7294160833e+01 0.0000000000e+00 0.0000e+00 -1.0000e+00
      -12  1    3    3    0    0 +3.5969853454e+01 -6.1007379131e-01 -2.4277987922e+01 4.3400728624e+01 0.0000000000e+00 0.0000e+00 1.0000e+00
</event>
<event>
 8      4 +3.7482383e-04 9.11880000e+01 7.81616400e-03 1.18400000e-01
      -11 -1    0    0    0    0 +0.0000000000e+00 +0.0000000000e+00 +4.5593999997e+01 4.5594000000e+01 5.1100000000e-04 0.0000e+00 1.0000e+00
       11 -1    0    0    0    0 -0.0000000000e+00 -0.0000000000e+00 -4.5593999997e+01 4.5594000000e+01 5.1100000000e-04 0.0000e+00 -1.0000e+00
       23  2    1    2    0    0 +3.5527136788e-15 +0.0000000000e+00 -3.5527136788e-15 9.1188000000e+01 9.1188000000e+01 7.7681e-15 0.0000e+00
 -9990012  2    3    3    0    0 -2.5891883025e+01 +3.3192109013e+01 +1.0560187929e+01 4.7787271016e+01 1.9999999868e+01 4.3218e-02 0.0000e+00
      -11  1    4    4    0    0 -1.1535059974e+01 +1.8662764725e+01 +9.2182846866e-01 2.1959193149e+01 5.1100000000e-04 0.0000e+00 1.0000e+00
       11  1    4    4    0    0 -1.7632523744e+00 +2.9173401781e+00 -2.9995955116e+00 4.5406504098e+00 5.1100000000e-04 0.0000e+00 -1.0000e+00
      -12  1    4    4    0    0 -1.2593570677e+01 +1.1612004109e+01 +1.2637954972e+01 2.1287427456e+01 0.0000000000e+00 0.0000e+00 1.0000e+00
       12  1    3    3    0    0 +2.5891883025e+01 -3.3192109013e+01 -1.0560187929e+01 4.3400728984e+01 0.0000000000e+00 0.0000e+00 -1.0000e+00
</event>
<event>
 8      3 +3.7482383e-04 9.11880000e+01 7.81616400e-03 1.18400000e-01
      -11 -1    0    0    0    0 +0.0000000000e+00 +0.0000000000e+00 +4.5593999997e+01 4.5594000000e+01 5.1100000000e-04 0.0000e+00 1.0000e+00
       11 -1    0    0    0    0 -0.0000000000e+00 -0.0000000000e+00 -4.5593999997e+01 4.5594000000e+01 5.1100000000e-04 0.0000e+00 -1.0000e+00
       23  2    1    2    0    0 +0.0000000000e+00 +0.0000000000e+00 +3.5527136788e-15 9.1188000000e+01 9.1188000000e+01 7.5117e-14 0.0000e+00
  9990012  2    3    3    0    0 +3.4143713308e+01 +1.4642830861e+01 +2.2436975851e+01 4.7787267985e+01 1.9999986050e+01 2.0693e-01 0.0000e+00
      -11  1    4    4    0    0 +1.4035520755e+01 +1.3526333450e+01 +8.8282718595e+00 2.1398502839e+01 5.1100000000e-04 0.0000e+00 1.0000e+00
       11  1    4    4    0    0 +1.0776307672e+01 +1.4720463554e+00 +1.3113474755e+01 1.7036987642e+01 5.1100000000e-04 0.0000e+00 -1.0000e+00
       12  1    4    4    0    0 +9.3318848812e+00 -3.5554894393e-01 +4.9522923729e-01 9.3517775040e+00 0.0000000000e+00 0.0000e+00 -1.0000e+00
      -12  1    3    3    0    0 -3.4143713308e+01 -1.4642830861e+01 -2.2436975851e+01 4.3400732015e+01 0.0000000000e+00 0.0000e+00 1.0000e+00
</event>
<event>
 8      4 +3.7482383e-04 9.11880000e+01 7.81616400e-03 1.18400000e-01
      -11 -1    0    0    0    0 +0.0000000000e+00 +0.0000000000e+00 +4.5593999997e+01 4.5594000000e+01 5.1100000000e-04 0.0000e+00 1.0000e+00
       11 -1    0    0    0    0 -0.0000000000e+00 -0.0000000000e+00 -4.5593999997e+01 4.5594000000e+01 5.1100000000e-04 0.0000e+00 -1.0000e+00
       23  2    1    2    0    0 +1.7763568394e-15 +0.0000000000e+00 -3.5527136788e-15 9.1188000000e+01 9.1188000000e+01 2.6987e-14 0.0000e+00
 -9990012  2    3    3    0    0 +9.3718701521e+00 -3.2801707082e+01 +2.6829826889e+01 4.7787267880e+01 1.9999985573e+01 2.8844e-02 0.0000e+00
      -11  1    4    4    0    0 +5.1346915782e+00 -3.1848147628e+00 +3.7316832591e+00 7.1016591642e+00 5.1100000000e-04 0.0000e+00 1.0000e+00
       11  1    4    4    0    0 +4.9265843740e+00 -6.2121336260e+00 +1.2909934979e+01 1.5150190071e+01 5.1100000000e-04 0.0000e+00 -1.0000e+00
      -12  1    4    4    0    0 -6.8940580015e-01 -2.3404758693e+01 +1.0188208651e+01 2.5535418645e+01 0.0000000000e+00 0.0000e+00 1.0000e+00
       12  1    3    3    0    0 -9.3718701521e+00 +3.2801707082e+01 -2.6829826889e+01 4.3400732120e+01 0.0000000000e+00 0.0000e+00 -1.0000e+00
</event>
<event>
 8      3 +3.7482383e-04 9.11880000e+01 7.81616400e-03 1.18400000e-01
      -11 -1    0    0    0    0 +0.0000000000e+00 +0.0000000000e+00 +4.5593999997e+01 4.5594000000e+01 5.1100000000e-04 0.0000e+00 -1.0000e+00
       11 -1    0    0    0    0 -0.0000000000e+00 -0.0000000000e+00 -4.5593999997e+01 4.5594000000e+01 5.1100000000e-04 0.0000e+00 1.0000e+00
       23  2    1    2    0    0 +0.0000000000e+00 +0.0000000000e+00 +0.0000000000e+00 9.1188000000e+01 9.1188000000e+01 9.9979e-14 0.0000e+00
  9990012  2    3    3    0    0 -1.3421443220e+01 +1.0823738947e+00 +4.1259141200e+01 4.7787269546e+01 1.9999993170e+01 1.9746e-01 0.0000e+00
      -11  1    4    4    0    0 +1.4920446167e+00 -3.5845490290e-01 +2.4861666834e+00 2.9215941016e+00 5.1100000000e-04 0.0000e+00 1.0000e+00
       11  1    4    4    0    0 -1.7731878791e+01 +1.9589226429e+00 +2.4494210186e+01 3.0302198539e+01 5.1100000000e-04 0.0000e+00 -1.0000e+00
       12  1    4    4    0    0 +2.8183909537e+00 -5.1809384531e-01 +1.4278764330e+01 1.4563476906e+01 0.0000000000e+00 0.0000e+00 -1.0000e+00
      -12  1    3    3    0    0 +1.3421443220e+01 -1.0823738947e+00 -4.1259141200e+01 4.3400730454e+01 0.0000000000e+00 0.0000e+00 1.0000e+00
</event>
<event>
 8      3 +3.7482383e-04 9.11880000e+01 7.81616400e-03 1.18400000e-01
      -11 -1    0    0    0    0 +0.0000000000e+00 +0.0000000000e+00 +4.5593999997e+01 4.5594000000e+01 5.1100000000e-04 0.0000e+00 -1.0000e+00
       11 -1    0    0    0    0 -0.0000000000e+00 -0.0000000000e+00 -4.5593999997e+01 4.5594000000e+01 5.1100000000e-04 0.0000e+00 1.0000e+00
       23  2    1    2    0    0 +0.0000000000e+00 +0.0000000000e+00 +0.0000000000e+00 9.1188000000e+01 9.1188000000e+01 2.0554e-13 0.0000e+00
  9990012  2    3    3    0    0 +5.2296838422e+00 -3.8155477662e+01 +2.0010817921e+01 4.7787275322e+01 2.0000019502e+01 2.7927e-01 0.0000e+00
      -11  1    4    4    0    0 +3.9332530947e+00 -1.2106402100e+00 -2.5964323955e-01 4.1235354367e+00 5.1100000000e-04 0.0000e+00 1.0000e+00
       11  1    4    4    0    0 +1.6666383045e+00 -2.8192003432e+01 +2.0504630035e+01 3.4899951201e+01 5.1100000000e-04 0.0000e+00 -1.0000e+00
       12  1    4    4    0    0 -3.7020755706e-01 -8.7528340208e+00 -2.3416887472e-01 8.7637886837e+00 0.0000000000e+00 0.0000e+00 -1.0000e+00
      -12  1    3    3    0    0 -5.2296838422e+00 +3.8155477662e+01 -2.0010817921e+01 4.3400724678e+01 0.0000000000e+00 0.0000e+00 1.0000e+00
</event>
<event>
 8      3 +3.7482383e-04 9.11880000e+01 7.81616400e-03 1.18400000e-01
      -11 -1    0    0    0    0 +0.0000000000e+00 +0.0000000000e+00 +4.5593999997e+01 4.5594000000e+01 5.1100000000e-04 0.0000e+00 1.0000e+00
       11 -1    0    0    0    0 -0.0000000000e+00 -0.0000000000e+00 -4.5593999997e+01 4.5594000000e+01 5.1100000000e-04 0.0000e+00 -1.0000e+00
       23  2    1    2    0    0 -7.1054273576e-15 +0.0000000000e+00 +0.0000000000e+00 9.1188000000e+01 9.1188000000e+01 3.6765e-13 0.0000e+00
  9990012  2    3    3    0    0 +4.2539366112e+01 -8.4855182193e+00 -1.4214526307e+00 4.7787283229e+01 2.0000055553e+01 1.1900e-01 0.0000e+00
      -11  1    4    4    0    0 +1.3094553311e+00 +4.3170813612e-01 -4.3660343474e+00 4.5785697945e+00 5.1100000000e-04 0.0000e+00 1.0000e+00
       11  1    4    4    0    0 +5.8371990174e+00 -2.3987499848e+00 +3.5000343301e+00 7.2164488796e+00 5.1100000000e-04 0.0000e+00 -1.0000e+00
       12  1    4    4    0    0 +3.5392711764e+01 -6.5184763706e+00 -5.5545261344e-01 3.5992264555e+01 0.0000000000e+00 0.0000e+00 -1.0000e+00
      -12  1    3    3    0    0 -4.2539366112e+01 +8.4855182193e+00 +1.4214526307e+00 4.3400716771e+01 0.0000000000e+00 0.0000e+00 1.0000e+00
</event>
<event>
 8      4 +3.7482383e-04 9.11880000e+01 7.81616400e-03 1.18400000e-01
      -11 -1    0    0    0    0 +0.0000000000e+00 +0.0000000000e+00 +4.5593999997e+01 4.5594000000e+01 5.1100000000e-04 0.0000e+00 -1.0000e+00
       11 -1    0    0    0    0 -0.0000000000e+00 -0.0000000000e+00 -4.5593999997e+01 4.5594000000e+01 5.1100000000e-04 0.0000e+00 1.0000e+00
       23  2    1    2    0    0 -7.1054273576e-15 +0.0000000000e+00 +3.5527136788e-15 9.1188000000e+01 9.1188000000e+01 2.4902e-15 0.0000e+00
 -9990012  2    3    3    0    0 +2.7281027337e+01 +1.7074426245e+01 -2.9117572578e+01 4.7787268243e+01 1.9999987228e+01 4.7092e-01 0.0000e+00
      -11  1    4    4    0    0 +3.0344798318e+00 +1.1152935571e+01 -6.1903689096e+00 1.3111701156e+01 5.1100000000e-04 0.0000e+00 1.0000e+00
       11  1    4    4    0    0 +5.5573858084e+00 +2.5769840144e+00 -9.9280174910e+00 1.1665801095e+01 5.1100000000e-04 0.0000e+00 -1.0000e+00
      -12  1    4    4    0    0 +1.8689161697e+01 +3.3445066601e+00 -1.2999186177e+01 2.3009765992e+01 0.0000000000e+00 0.0000e+00 1.0000e+00
       12  1    3    3    0    0 -2.7281027337e+01 -1.7074426245e+01 +2.9117572578e+01 4.3400731757e+01 0.0000000000e+00 0.0000e+00 -1.0000e+00
</event>
<event>
 8      3 +3.7482383e-04 9.11880000e+01 7.81616400e-03 1.18400000e-01
      -11 -1    0    0    0    0 +0.0000000000e+00 +0.0000000000e+00 +4.5593999997e+01 4.5594000000e+01 5.1100000000e-04 0.0000e+00 -1.0000e+00
       11 -1    0    0    0    0 -0.0000000000e+00 -0.0000000000e+00 -4.5593999997e+01 4.5594000000e+01 5.1100000000e-04 0.0000e+00 1.0000e+00
       23  2    1    2    0    0 -3.5527136788e-15 -7.1054273576e-15 +3.5527136788e-15 9.1188000000e+01 9.1188000000e+01 1.8891e-13 0.0000e+00
  9990012  2    3    3    0    0 -1.8504978496e+01 -3.1178281645e+01 +2.3855892421e+01 4.7787273293e+01 2.0000010252e+01 4.6423e-01 0.0000e+00
      -11  1    4    4    0    0 -1.2766085581e+01 -2.6987277461e+01 +9.6598358131e+00 3.1378312797e+01 5.1100000000e-04 0.0000e+00 1.0000e+00
       11  1    4    4    0    0 +1.5859168094e-01 +5.8931683525e-01 +7.4060339293e-01 9.5965582388e-01 5.1100000000e-04 0.0000e+00 -1.0000e+00
       12  1    4    4    0    0 -5.8974845963e+00 -4.7803210192e+00 +1.3455453215e+01 1.5449304672e+01 0.0000000000e+00 0.0000e+00 -1.0000e+00
      -12  1    3    3    0    0 +1.8504978496e+01 +3.1178281645e+01 -2.3855892421e+01 4.3400726707e+01 0.0000000000e+00 0.0000e+00 1.0000e+00
</event>
<event>
 8      3 +3.7482383e-04 9.11880000e+01 7.81616400e-03 1.18400000e-01
      -11 -1    0    0    0    0 +0.0000000000e+00 +0.0000000000e+00 +4.5593999997e+01 4.5594000000e+01 5.1100000000e-04 0.0000e+00 1.0000e+00
       11 -1    0    0    0    0 -0.0000000000e+00 -0.0000000000e+00 -4.5593999997e+01 4.5594000000e+01 5.1100000000e-04 0.0000e+00 -1.0000e+00
       23  2    1    2    0    0 +0.0000000000e+00 -1.7763568394e-15 +0.0000000000e+00 9.1188000000e+01 9.1188000000e+01 2.4579e-13 0.0000e+00
  9990012  2    3    3    0    0 -2.1687330938e+01 +1.4323489600e+01 -3.4758033802e+01 4.7787267387e+01 1.9999983325e+01 2.8907e-01 0.0000e+00
      -11  1    4    4    0    0 -3.1507011064e+00 +7.6912675197e+00 -3.0847217164e+00 8.8655525406e+00 5.1100000000e-04 0.0000e+00 1.0000e+00
       11  1    4    4    0    0 -4.0981114537e+00 +3.8095357601e-01 -6.9112399110e-01 4.1734033769e+00 5.1100000000e-04 0.0000e+00 -1.0000e+00
       12  1    4    4    0    0 -1.4438518378e+01 +6.2512685039e+00 -3.0982188095e+01 3.4748311470e+01 0.0000000000e+00 0.0000e+00 -1.0000e+00
      -12  1    3    3    0    0 +2.1687330938e+01 -1.4323489600e+01 +3.4758033802e+01 4.3400732613e+01 0.0000000000e+00 0.0000e+00 1.0000e+00
</event>
<event>
 8      4 +3.7482383e-04 9.11880000e+01 7.81616400e-03 1.18400000e-01
      -11 -1    0    0    0    0 +0.0000000000e+00 +0.0000000000e+00 +4.5593999997e+01 4.5594000000e+01 5.1100000000e-04 0.0000e+00 1.0000e+00
       11 -1    0    0    0    0 -0.0000000000e+00 -0.0000000000e+00 -4.5593999997e+01 4.5594000000e+01 5.1100000000e-04 0.0000e+00 -1.0000e+00
       23  2    1    2    0    0 +0.0000000000e+00 +0.0000000000e+00 +7.1054273576e-15 9.1188000000e+01 9.1188000000e+01 1.8113e-14 0.0000e+00
 -9990012  2    3    3    0    0 -1.2762564100e+01 -1.4049772735e+01 +3.9030038016e+01 4.7787273925e+01 2.0000013134e+01 2.3204e-02 0.0000e+00
      -11  1    4    4    0    0 -8.9001826539e+00 -1.0959996166e+01 +3.6268829969e+01 3.8919953685e+01 5.1100000000e-04 0.0000e+00 1.0000e+00
       11  1    4    4    0    0 +1.8809444392e+00 -1.5592284949e+00 +1.1997964678e+00 2.7218848815e+00 5.1100000000e-04 0.0000e+00 -1.0000e+00
      -12  1    4    4    0    0 -5.7433258852e+00 -1.5305480737e+00 +1.5614115786e+00 6.1454353586e+00 0.0000000000e+00 0.0000e+00 1.0000e+00
       12  1    3    3    0    0 +1.2762564100e+01 +1.4049772735e+01 -3.9030038016e+01 4.3400726075e+01 0.0000000000e+00 0.0000e+00 -1.0000e+00
</event>
<event>
 8      4 +3.7482383e-04 9.11880000e+01 7.81616400e-03 1.18400000e-01
      -11 -1    0    0    0    0 +0.0000000000e+00 +0.0000000000e+00 +4.5593999997e+01 4.5594000000e+01 5.1100000000e-04 0.0000e+00 -1.0000e+00
       11 -1    0    0    0    0 -0.0000000000e+00 -0.0000000000e+00 -4.5593999997e+01 4.5594000000e+01 5.1100000000e-04 0.0000e+00 1.0000e+00
       23  2    1    2    0    0 -7.1054273576e-15 -7.2164496601e-16 -3.5527136788e-15 9.1188000000e+01 9.1188000000e+01 5.9425e-15 0.0000e+00
 -9990012  2    3    3    0    0 -3.0992932197e+01 -3.7970098312e-01 -3.0379553112e+01 4.7787271132e+01 2.0000000399e+01 3.9240e-02 0.0000e+00
      -11  1    4    4    0    0 -1.2961995382e+00 +9.4811552633e-01 +1.0671486596e+00 1.9281760336e+00 5.1100000000e-04 0.0000e+00 1.0000e+00
       11  1    4    4    0    0 -7.9621507473e+00 -6.1293370025e+00 -4.7906669814e+00 1.1131716265e+01 5.1100000000e-04 0.0000e+00 -1.0000e+00
      -12  1    4    4    0    0 -2.1734581912e+01 +4.8015204930e+00 -2.6656034790e+01 3.4727378833e+01 0.0000000000e+00 0.0000e+00 1.0000e+00
       12  1    3    3    0    0 +3.0992932197e+01 +3.7970098312e-01 +3.0379553112e+01 4.3400728868e+01 0.0000000000e+00 0.0000e+00 -1.0000e+00
</event>
<event>
 8      4 +3.7482383e-04 9.11880000e+01 7.81616400e-03 1.18400000e-01
      -11 -1    0    0    0    0 +0.0000000000e+00 +0.0000000000e+00 +4.5593999997e+01 4.5594000000e+01 5.1100000000e-04 0.0000e+00 1.0000e+00
       11 -1    0    0    0    0 -0.0000000000e+00 -0.0000000000e+00 -4.5593999997e+01 4.5594000000e+01 5.1100000000e-04 0.0000e+00 -1.0000e+00
       23  2    1    2    0    0 +7.1054273576e-15 +0.0000000000e+00 +0.0000000000e+00 9.1188000000e+01 9.1188000000e+01 8.5976e-14 0.0000e+00
 -9990012  2    3    3    0    0 +3.4983899532e+01 +1.6558128001e+01 +1.9636150687e+01 4.7787271398e+01 2.0000001611e+01 1.8049e-02 0.0000e+00
      -11  1    4    4    0    0 +1.5399905197e+01 +1.4450706518e+01 +4.1583580874e+00 2.1523752953e+01 5.1100000000e-04 0.0000e+00 1.0000e+00
       11  1    4    4    0    0 +1.9876363671e+01 +8.5251032804e-01 +1.4151482795e+01 2.4414362006e+01 5.1100000000e-04 0.0000e+00 -1.0000e+00
      -12  1    4    4    0    0 -2.9236933517e-01 +1.2549111549e+00 +1.3263098054e+00 1.8491564387e+00 0.0000000000e+00 0.0000e+00 1.0000e+00
       12  1    3    3    0    0 -3.4983899532e+01 -1.6558128001e+01 -1.9636150687e+01 4.3400728602e+01 0.0000000000e+00 0.0000e+00 -1.0000e+00
</event>
<event>
 8      3 +3.7482383e-04 9.11880000e+01 7.81616400e-03 1.18400000e-01
      -11 -1    0    0    0    0 +0.0000000000e+00 +0.0000000000e+00 +4.5593999997e+01 4.5594000000e+01 5.1100000000e-04 0.0000e+00 1.0000e+00
       11 -1    0    0    0    0 -0.0000000000e+00 -0.0000000000e+00 -4.5593999997e+01 4.5594000000e+01 5.1100000000e-04 0.0000e+00 -1.0000e+00
       23  2    1    2    0    0 +1.7763568394e-15 -3.5527136788e-15 +0.0000000000e+00 9.1188000000e+01 9.1188000000e+01 1.4480e-15 0.0000e+00
  9990012  2    3    3    0    0 +6.8905613042e+00 +3.0333943282e+01 -3.0265409541e+01 4.7787274605e+01 2.0000016234e+01 6.3265e-02 0.0000e+00
      -11  1    4    4    0    0 +5.4060831999e+00 +7.6562789170e+00 -3.9766658849e+00 1.0181267811e+01 5.1100000000e-04 0.0000e+00 1.0000e+00
       11  1    4    4    0    0 +6.5532424119e-01 -1.4513007996e+00 -5.5647736088e+00 5.7881283201e+00 5.1100000000e-04 0.0000e+00 -1.0000e+00
       12  1    4    4    0    0 +8.2915386310e-01 +2.4128965165e+01 -2.0723970047e+01 3.1817878474e+01 0.0000000000e+00 0.0000e+00 -1.0000e+00
      -12  1    3    3    0    0 -6.8905613042e+00 -3.0333943282e+01 +3.0265409541e+01 4.3400725395e+01 0.0000000000e+00 0.0000e+00 1.0000e+00
</event>
<event>
 8      3 +3.7482383e-04 9.11880000e+01 7.81616400e-03 1.18400000e-01
      -11 -1    0    0    0    0 +0.0000000000e+00 +0.0000000000e+00 +4.5593999997e+01 4.5594000000e+01 5.1100000000e-04 0.0000e+00 1.0000e+00
       11 -1    0    0    0    0 -0.0000000000e+00 -0.0000000000e+00 -4.5593999997e+01 4.5594000000e+01 5.1100000000e-04 0.0000e+00 -1.0000e+00
       23  2    1    2    0    0 +0.0000000000e+00 -1.7763568394e-15 +8.8817841970e-16 9.1188000000e+01 9.1188000000e+01 1.9594e-14 0.0000e+00
  9990012  2    3    3    0    0 +4.1905444753e+01 +8.5848488027e+00 +7.3387658858e+00 4.7787269434e+01 1.9999992659e+01 9.7226e-02 0.0000e+00
      -11  1    4    4    0    0 +7.4730124610e+00 +2.1219983976e-01 +1.8859238080e+00 7.7102304041e+00 5.1100000000e-04 0.0000e+00 1.0000e+00
       11  1    4    4    0    0 +2.8412456442e+01 +1.3749869320e+01 +3.3927243863e+00 3.1746451241e+01 5.1100000000e-04 0.0000e+00 -1.0000e+00
       12  1    4    4    0    0 +6.0199758497e+00 -5.3772203575e+00 +2.0601176915e+00 8.3305877889e+00 0.0000000000e+00 0.0000e+00 -1.0000e+00
      -12  1    3    3    0    0 -4.1905444753e+01 -8.5848488027e+00 -7.3387658858e+00 4.3400730566e+01 0.0000000000e+00 0.0000e+00 1.0000e+00
</event>
<event>
 8      4 +3.7482383e-04 9.11880000e+01 7.81616400e-03 1.18400000e-01
      -11 -1    0    0    0    0 +0.0000000000e+00 +0.0000000000e+00 +4.5593999997e+01 4.5594000000e+01 5.1100000000e-04 0.0000e+00 -1.0000e+00
       11 -1    0    0    0    0 -0.0000000000e+00 -0.0000000000e+00 -4.5593999997e+01 4.5594000000e+01 5.1100000000e-04 0.0000e+00 1.0000e+00
       23  2    1    2    0    0 +0.0000000000e+00 +0.0000000000e+00 -7.1054273576e-15 9.1188000000e+01 9.1188000000e+01 3.5141e-13 0.0000e+00
 -9990012  2    3    3    0    0 -2.0397804351e+01 +1.5304911367e+01 -3.5118571442e+01 4.7787253527e+01 1.9999920132e+01 4.6458e-01 0.0000e+00
      -11  1    4    4    0    0 -1.4255666061e+01 +1.3546143949e+01 -2.3163178670e+01 3.0385109464e+01 5.1100000000e-04 0.0000e+00 1.0000e+00
       11  1    4    4    0    0 -5.5671548003e+00 -3.2781851764e+00 -1.0128046172e+01 1.2013202326e+01 5.1100000000e-04 0.0000e+00 -1.0000e+00
      -12  1    4    4    0    0 -5.7498348944e-01 +5.0369525945e+00 -1.8273465998e+00 5.3889417373e+00 0.0000000000e+00 0.0000e+00 1.0000e+00
       12  1    3    3    0    0 +2.0397804351e+01 -1.5304911367e+01 +3.5118571442e+01 4.3400746473e+01 0.0000000000e+00 0.0000e+00 -1.0000e+00
</event>
<event>
 8      3 +3.7482383e-04 9.11880000e+01 7.81616400e-03 1.18400000e-01
      -11 -1    0    0    0    0 +0.0000000000e+00 +0.0000000000e+00 +4.5593999997e+01 4.5594000000e+01 5.1100000000e-04 0.0000e+00 -1.0000e+00
       11 -1    0    0    0    0 -0.0000000000e+00 -0.0000000000e+00 -4.5593999997e+01 4.5594000000e+01 5.1100000000e-04 0.0000e+00 1.0000e+00
       23  2    1    2    0    0 +0.0000000000e+00 +7.1054273576e-15 +0.0000000000e+00 9.1188000000e+01 9.1188000000e+01 7.3039e-15 0.0000e+00
  9990012  2    3    3    0    0 -1.3622858673e+01 -4.0045446970e+01 +9.7161348389e+00 4.7787269849e+01 1.9999994549e+01 6.8122e-02 0.0000e+00
      -11  1    4    4    0    0 +1.5493731399e+00 -2.0209428888e+00 +3.8435943184e+00 4.6106382240e+00 5.1100000000e-04 0.0000e+00 1.0000e+00
       11  1    4    4    0    0 -7.0957192458e+00 -6.8077516148e+00 -1.8839944468e+00 1.0012200008e+01 5.1100000000e-04 0.0000e+00 -1.0000e+00
       12  1    4    4    0    0 -8.0765125674e+00 -3.1216752466e+01 +7.7565349673e+00 3.3164431617e+01 0.0000000000e+00 0.0000e+00 -1.0000e+00
      -12  1    3    3    0    0 +1.3622858673e+01 +4.0045446970e+01 -9.7161348389e+00 4.3400730151e+01 0.0000000000e+00 0.0000e+00 1.0000e+00
</event>
<event>
 8      4 +3.7482383e-04 9.11880000e+01 7.81616400e-03 1.18400000e-01
      -11 -1    0    0    0    0 +0.0000000000e+00 +0.0000000000e+00 +4.5593999997e+01 4.5594000000e+01 5.1100000000e-04 0.0000e+00 1.0000e+00
       11 -1    0    0    0    0 -0.0000000000e+00 -0.0000000000e+00 -4.5593999997e+01 4.5594000000e+01 5.1100000000e-04 0.0000e+00 -1.0000e+00
       23  2    1    2    0    0 -3.5527136788e-15 -3.5527136788e-15 +0.0000000000e+00 9.1188000000e+01 9.1188000000e+01 2.1057e-13 0.0000e+00
 -9990012  2    3    3    0    0 -2.8325879915e+01 -2.0375860272e+01 +2.5808763821e+01 4.7787269076e+01 1.9999991024e+01 1.6118e-01 0.0000e+00
      -11  1    4    4    0    0 -2.3715166579e+01 -1.0922698394e+01 +9.2942302293e+00 2.7714566240e+01 5.1100000000e-04 0.0000e+00 1.0000e+00
       11  1    4    4    0    0 +2.3581451504e-01 -9.9161176610e-01 +4.4240565751e+00 4.5399536584e+00 5.1100000000e-04 0.0000e+00 -1.0000e+00
      -12  1    4    4    0    0 -4.8465278515e+00 -8.4615501121e+00 +1.2090477016e+01 1.5532749177e+01 0.0000000000e+00 0.0000e+00 1.0000e+00
       12  1    3    3    0    0 +2.8325879915e+01 +2.0375860272e+01 -2.5808763821e+01 4.3400730924e+01 0.0000000000e+00 0.0000e+00 -1.0000e+00
</event>
<event>
 8      4 +3.7482383e-04 9.11880000e+01 7.81616400e-03 1.18400000e-01
      -11 -1    0    0    0    0 +0.0000000000e+00 +0.0000000000e+00 +4.5593999997e+01 4.5594000000e+01 5.1100000000e-04 0.0000e+00 -1.0000e+00
       11 -1    0    0    0    0 -0.0000000000e+00 -0.0000000000e+00 -4.5593999997e+01 4.5594000000e+01 5.1100000000e-04 0.0000e+00 1.0000e+00
       23  2    1    2    0    0 +0.0000000000e+00 -3.5527136788e-15 +0.0000000000e+00 9.1188000000e+01 9.1188000000e+01 8.8341e-14 0.0000e+00
 -9990012  2    3    3    0    0 +2.9268334815e+01 +3.0800769929e+01 -8.8487488780e+00 4.7787271806e+01 2.0000003473e+01 4.7466e-01 0.0000e+00
      -11  1    4    4    0    0 +7.0064563812e+00 +2.6019719100e+00 +3.4774187305e+00 8.2433688581e+00 5.1100000000e-04 0.0000e+00 1.0000e+00
       11  1    4    4    0    0 +1.5942948504e+01 +1.2644085275e+01 -3.7492811973e+00 2.0690761445e+01 5.1100000000e-04 0.0000e+00 -1.0000e+00
      -12  1    4    4    0    0 +6.3189299295e+00 +1.5554712744e+01 -8.5768864111e+00 1.8853141503e+01 0.0000000000e+00 0.0000e+00 1.0000e+00
       12  1    3    3    0    0 -2.9268334815e+01 -3.0800769929e+01 +8.8487488780e+00 4.3400728194e+01 0.0000000000e+00 0.0000e+00 -1.0000e+00
</event>
<event>
 8      3 +3.7482383e-04 9.11880000e+01 7.81616400e-03 1.18400000e-01
      -11 -1    0    0    0    0 +0.0000000000e+00 +0.0000000000e+00 +4.5593999997e+01 4.5594000000e+01 5.1100000000e-04 0.0000e+00 -1.0000e+00
       11 -1    0    0    0    0 -0.0000000000e+00 -0.0000000000e+00 -4.5593999997e+01 4.5594000000e+01 5.1100000000e-04 0.0000e+00 1.0000e+00
       23  2    1    2    0    0 +1.7763568394e-15 +0.0000000000e+00 +0.0000000000e+00 9.1188000000e+01 9.1188000000e+01 3.2315e-15 0.0000e+00
  9990012  2    3    3    0    0 -1.3001709925e+01 +3.7064416895e+01 -1.8460976201e+01 4.7787273013e+01 2.0000008975e+01 9.7297e-02 0.0000e+00
      -11  1    4    4    0    0 -6.8372642031e+00 +1.7142463195e+01 -1.5105646094e+01 2.3849376729e+01 5.1100000000e-04 0.0000e+00 1.0000e+00
       11  1    4    4    0    0 -6.6572350694e+00 +5.1816100543e+00 -3.6368041731e+00 9.1866319388e+00 5.1100000000e-04 0.0000e+00 -1.0000e+00
       12  1    4    4    0    0 +4.9278934723e-01 +1.4740343645e+01 +2.8147406648e-01 1.4751264345e+01 0.0000000000e+00 0.0000e+00 -1.0000e+00
      -12  1    3    3    0    0 +1.3001709925e+01 -3.7064416895e+01 +1.8460976201e+01 4.3400726987e+01 0.0000000000e+00 0.0000e+00 1.0000e+00
</event>
<event>
 8      3 +3.7482383e-04 9.11880000e+01 7.81616400e-03 1.18400000e-01
      -11 -1    0    0    0    0 +0.0000000000e+00 +0.0000000000e+00 +4.5593999997e+01 4.5594000000e+01 5.1100000000e-04 0.0000e+00 -1.0000e+00
       11 -1    0    0    0    0 -0.0000000000e+00 -0.0000000000e+00 -4.5593999997e+01 4.5594000000e+01 5.1100000000e-04 0.0000e+00 1.0000e+00
       23  2    1    2    0    0 +8.8817841970e-16 +0.0000000000e+00 +0.0000000000e+00 9.1188000000e+01 9.1188000000e+01 2.8612e-14 0.0000e+00
  9990012  2    3    3    0    0 -6.7351445213e+00 -3.9973388279e+01 +1.5504488895e+01 4.7787272839e+01 2.0000008180e+01 1.5719e-01 0.0000e+00
      -11  1    4    4    0    0 +1.7145845946e+00 -2.1545442910e+00 +2.2591750331e+00 3.5617037392e+00 5.1100000000e-04 0.0000e+00 1.0000e+00
       11  1    4    4    0    0 -8.9368321322e+00 -7.8196138663e+00 +6.2435198485e+00 1.3416216677e+01 5.1100000000e-04 0.0000e+00 -1.0000e+00
       12  1    4    4    0    0 +4.8710301626e-01 -2.9999230122e+01 +7.0017940136e+00 3.0809352422e+01 0.0000000000e+00 0.0000e+00 -1.0000e+00
      -12  1    3    3    0    0 +6.7351445213e+00 +3.9973388279e+01 -1.5504488895e+01 4.3400727161e+01 0.0000000000e+00 0.0000e+00 1.0000e+00
</event>
<event>
 8      4 +3.7482383e-04 9.11880000e+01 7.81616400e-03 1.18400000e-01
      -11 -1    0    0    0    0 +0.0000000000e+00 +0.0000000000e+00 +4.5593999997e+01 4.5594000000e+01 5.1100000000e-04 0.0000e+00 1.0000e+00
       11 -1    0    0    0    0 -0.0000000000e+00 -0.0000000000e+00 -4.5593999997e+01 4.5594000000e+01 5.1100000000e-04 0.0000e+00 -1.0000e+00
       23  2    1    2    0    0 +0.0000000000e+00 +2.2204460493e-16 +7.1054273576e-15 9.1188000000e+01 9.1188000000e+01 3.5804e-14 0.0000e+00
 -9990012  2    3    3    0    0 -1.6416088377e+01 -1.9841030913e+00 +4.0127280146e+01 4.7787271497e+01 2.0000002065e+01 1.6850e-01 0.0000e+00
      -11  1    4    4    0    0 -2.2921759397e+00 -9.7740951074e-01 +3.9292686853e+00 4.6528005065e+00 5.1100000000e-04 0.0000e+00 1.0000e+00
       11  1    4    4    0    0 -1.6745287252e+01 +2.2698669997e+00 +1.8980080617e+01 2.5412603209e+01 5.1100000000e-04 0.0000e+00 -1.0000e+00
      -12  1    4    4    0    0 +2.6213748153e+00 -3.2765605803e+00 +1.7217930843e+01 1.7721867782e+01 0.0000000000e+00 0.0000e+00 1.0000e+00
       12  1    3    3    0    0 +1.6416088377e+01 +1.9841030913e+00 -4.0127280146e+01 4.3400728503e+01 0.0000000000e+00 0.0000e+00 -1.0000e+00
</event>
<event>
 8      4 +3.7482383e-04 9.11880000e+01 7.81616400e-03 1.18400000e-01
      -11 -1    0    0    0    0 +0.0000000000e+00 +0.0000000000e+00 +4.5593999997e+01 4.5594000000e+01 5.1100000000e-04 0.0000e+00 1.0000e+00
       11 -1    0    0    0    0 -0.0000000000e+00 -0.0000000000e+00 -4.5593999997e+01 4.5594000000e+01 5.1100000000e-04 0.0000e+00 -1.0000e+00
       23  2    1    2    0    0 +6.6613381478e-16 +0.0000000000e+00 -3.5527136788e-15 9.1188000000e+01 9.1188000000e+01 3.9908e-14 0.0000e+00
 -9990012  2    3    3    0    0 -6.0478498264e-01 +2.9917430507e+01 +3.1435727571e+01 4.7787269811e+01 1.9999994377e+01 2.4012e-02 0.0000e+00
      -11  1    4    4    0    0 +8.6169278746e+00 +1.7778616869e+01 +2.0110075061e+01 2.8191235926e+01 5.1100000000e-04 0.0000e+00 1.0000e+00
       11  1    4    4    0    0 -3.9008146801e+00 +8.8461421562e+00 +7.7369057918e+00 1.2382661172e+01 5.1100000000e-04 0.0000e+00 -1.0000e+00
      -12  1    4    4    0    0 -5.3208981771e+00 +3.2926714817e+00 +3.5887467177e+00 7.2133727134e+00 0.0000000000e+00 0.0000e+00 1.0000e+00
       12  1    3    3    0    0 +6.0478498264e-01 -2.9917430507e+01 -3.1435727571e+01 4.3400730189e+01 0.0000000000e+00 0.0000e+00 -1.0000e+00
</event>
<event>
 8      4 +3.7482383e-04 9.11880000e+01 7.81616400e-03 1.18400000e-01
      -11 -1    0    0    0    0 +0.0000000000e+00 +0.0000000000e+00 +4.5593999997e+01 4.5594000000e+01 5.1100000000e-04 0.0000e+00 1.0000e+00
       11 -1    0    0    0    0 -0.0000000000e+00 -0.0000000000e+00 -4.5593999997e+01 4.5594000000e+01 5.1100000000e-04 0.0000e+00 -1.0000e+00
       23  2    1    2    0    0 +0.0000000000e+00 +0.0000000000e+00 +0.0000000000e+00 9.1188000000e+01 9.1188000000e+01 1.9804e-14 0.0000e+00
 -9990012  2    3    3    0    0 +3.7147700965e+00 -2.6123491465e+01 +3.4458477730e+01 4.7787274077e+01 2.0000013825e+01 2.2135e-01 0.0000e+00
      -11  1    4    4    0    0 +2.7853381738e+00 -1.6409292326e+00 +2.3345601455e+00 3.9875968732e+00 5.1100000000e-04 0.0000e+00 1.0000e+00
       11  1    4    4    0    0 -3.0126451714e+00 -6.4671018131e-01 -5.8435071826e-01 3.1361969024e+00 5.1100000000e-04 0.0000e+00 -1.0000e+00
      -12  1    4    4    0    0 +3.9420770942e+00 -2.3835852051e+01 +3.2708268303e+01 4.0663480301e+01 0.0000000000e+00 0.0000e+00 1.0000e+00
       12  1    3    3    0    0 -3.7147700965e+00 +2.6123491465e+01 -3.4458477730e+01 4.3400725923e+01 0.0000000000e+00 0.0000e+00 -1.0000e+00
</event>
<event>
 8      3 +3.7482383e-04 9.11880000e+01 7.81616400e-03 1.18400000e-01
      -11 -1    0    0    0    0 +0.0000000000e+00 +0.0000000000e+00 +4.5593999997e+01 4.5594000000e+01 5.1100000000e-04 0.0000e+00 1.0000e+00
       11 -1    0    0    0    0 -0.0000000000e+00 -0.0000000000e+00 -4.5593999997e+01 4.5594000000e+01 5.1100000000e-04 0.0000e+00 -1.0000e+00
       23  2    1    2    0    0 +0.0000000000e+00 +8.8817841970e-16 -1.7763568394e-15 9.1188000000e+01 9.1188000000e+01 1.2065e-13 0.0000e+00
  9990012  2    3    3    0    0 -4.1936815044e+01 -1.4905703920e+00 -1.1077224697e+01 4.7787272320e+01 2.0000005815e+01 2.1069e-01 0.0000e+00
      -11  1    4    4    0    0 -3.9288461113e+00 +5.2579239835e+00 -1.1278892939e+00 6.6598596759e+00 5.1100000000e-04 0.0000e+00 1.0000e+00
       11  1    4    4    0    0 -6.7144403393e+00 -4.6718987281e+00 -4.3653909861e+00 9.2718383031e+00 5.1100000000e-04 0.0000e+00 -1.0000e+00
       12  1    4    4    0    0 -3.1293528594e+01 -2.0765956474e+00 -5.5839444175e+00 3.1855574341e+01 0.0000000000e+00 0.0000e+00 -1.0000e+00
      -12  1    3    3    0    0 +4.1936815044e+01 +1.4905703920e+00 +1.1077224697e+01 4.3400727680e+01 0.0000000000e+00 0.0000e+00 1.0000e+00
</event>
<event>
 8      3 +3.7482383e-04 9.11880000e+01 7.81616400e-03 1.18400000e-01
      -11 -1    0    0    0    0 +0.0000000000e+00 +0.0000000000e+00 +4.5593999997e+01 4.5594000000e+01 5.1100000000e-04 0.0000e+00 1.0000e+00
       11 -1    0    0    0    0 -0.0000000000e+00 -0.0000000000e+00 -4.5593999997e+01 4.5594000000e+01 5.1100000000e-04 0.0000e+00 -1.0000e+00
       23  2    1    2    0    0 +0.0000000000e+00 +0.0000000000e+00 +0.0000000000e+00 9.1188000000e+01 9.1188000000e+01 3.0590e-14 0.0000e+00
  9990012  2    3    3    0    0 -3.2494464791e+01 +2.2140177360e+01 -1.8372412506e+01 4.7787271471e+01 2.0000001944e+01 2.4600e-02 0.0000e+00
      -11  1    4    4    0    0 -1.5881012503e+00 -2.2036680732e+00 -4.0803126567e-02 2.7165941387e+00 5.1100000000e-04 0.0000e+00 -1.0000e+00
       11  1    4    4    0    0 -1.0084116874e+01 +6.1510159966e+00 -1.1722110935e+01 1.6641282881e+01 5.1100000000e-04 0.0000e+00 1.0000e+00
       12  1    4    4    0    0 -2.0822246667e+01 +1.8192829436e+01 -6.6094984453e+00 2.8429394451e+01 0.0000000000e+00 0.0000e+00 -1.0000e+00
      -12  1    3    3    0    0 +3.2494464791e+01 -2.2140177360e+01 +1.8372412506e+01 4.3400728529e+01 0.0000000000e+00 0.0000e+00 1.0000e+00
</event>
<event>
 8      4 +3.7482383e-04 9.11880000e+01 7.81616400e-03 1.18400000e-01
      -11 -1    0    0    0    0 +0.0000000000e+00 +0.0000000000e+00 +4.5593999997e+01 4.5594000000e+01 5.1100000000e-04 0.0000e+00 -1.0000e+00
       11 -1    0    0    0    0 -0.0000000000e+00 -0.0000000000e+00 -4.5593999997e+01 4.5594000000e+01 5.1100000000e-04 0.0000e+00 1.0000e+00
       23  2    1    2    0    0 -3.5527136788e-15 +3.5527136788e-15 +0.0000000000e+00 9.1188000000e+01 9.1188000000e+01 7.2631e-14 0.0000e+00
 -9990012  2    3    3    0    0 +3.0455628807e+01 -2.9337325103e+01 -9.7672844336e+00 4.7787264806e+01 1.9999971555e+01 3.7753e-01 0.0000e+00
      -11  1    4    4    0    0 +1.4041945427e+01 -7.0189770133e+00 -2.1663260752e+00 1.5847247036e+01 5.1100000000e-04 0.0000e+00 1.0000e+00
       11  1    4    4    0    0 +1.2099599130e+01 -1.2575740230e+01 +2.0406408935e+00 1.7570252046e+01 5.1100000000e-04 0.0000e+00 -1.0000e+00
      -12  1    4    4    0    0 +4.3140842495e+00 -9.7426078594e+00 -9.6415992519e+00 1.4369765724e+01 0.0000000000e+00 0.0000e+00 1.0000e+00
       12  1    3    3    0    0 -3.0455628807e+01 +2.9337325103e+01 +9.7672844336e+00 4.3400735194e+01 0.0000000000e+00 0.0000e+00 -1.0000e+00
</event>
<event>
 8      4 +3.7482383e-04 9.11880000e+01 7.81616400e-03 1.18400000e-01
      -11 -1    0    0    0    0 +0.0000000000e+00 +0.0000000000e+00 +4.5593999997e+01 4.5594000000e+01 5.1100000000e-04 0.0000e+00 1.0000e+00
       11 -1    0    0    0    0 -0.0000000000e+00 -0.0000000000e+00 -4.5593999997e+01 4.5594000000e+01 5.1100000000e-04 0.0000e+00 -1.0000e+00
       23  2    1    2    0    0 +7.1054273576e-15 +3.5527136788e-15 -8.8817841970e-16 9.1188000000e+01 9.1188000000e+01 1.9422e-16 0.0000e+00
 -9990012  2    3    3    0    0 +3.6263522562e+01 +2.3265091100e+01 -5.2264244704e+00 4.7787273678e+01 2.0000012009e+01 6.0874e-02 0.0000e+00
      -11  1    4    4    0    0 +5.3938015924e+00 +6.0372753230e+00 +5.2812414501e+00 9.6660902365e+00 5.1100000000e-04 0.0000e+00 1.0000e+00
       11  1    4    4    0    0 +7.7796958850e+00 +4.9173166739e-01 -1.9923001196e-01 7.7977664081e+00 5.1100000000e-04 0.0000e+00 -1.0000e+00
      -12  1    4    4    0    0 +2.3090025084e+01 +1.6736084110e+01 -1.0308435909e+01 3.0323417034e+01 0.0000000000e+00 0.0000e+00 1.0000e+00
       12  1    3    3    0    0 -3.6263522562e+01 -2.3265091100e+01 +5.2264244704e+00 4.3400726322e+01 0.0000000000e+00 0.0000e+00 -1.0000e+00
</event>
<event>
 8      4 +3.7482383e-04 9.11880000e+01 7.81616400e-03 1.18400000e-01
      -11 -1    0    0    0    0 +0.0000000000e+00 +0.0000000000e+00 +4.5593999997e+01 4.5594000000e+01 5.1100000000e-04 0.0000e+00 -1.0000e+00
       11 -1    0    0    0    0 -0.0000000000e+00 -0.0000000000e+00 -4.5593999997e+01 4.5594000000e+01 5.1100000000e-04 0.0000e+00 1.0000e+00
       23  2    1    2    0    0 +0.0000000000e+00 +0.0000000000e+00 +3.5527136788e-15 9.1188000000e+01 9.1188000000e+01 3.1914e-14 0.0000e+00
 -9990012  2    3    3    0    0 +1.6860956407e+01 +2.4223237444e+01 -3.1820849897e+01 4.7787267616e+01 1.9999984370e+01 1.1974e-01 0.0000e+00
      -11  1    4    4    0    0 +3.6685053516e+00 +7.4890619687e+00 -3.5863932578e+00 9.0777859385e+00 5.1100000000e-04 0.0000e+00 1.0000e+00
       11  1    4    4    0    0 +2.3196226556e+00 +9.6443690590e-01 +1.7974872358e+00 3.0889720675e+00 5.1100000000e-04 0.0000e+00 -1.0000e+00
      -12  1    4    4    0    0 +1.0872828400e+01 +1.5769738570e+01 -3.0031943875e+01 3.5620509610e+01 0.0000000000e+00 0.0000e+00 1.0000e+00
       12  1    3    3    0    0 -1.6860956407e+01 -2.4223237444e+01 +3.1820849897e+01 4.3400732384e+01 0.0000000000e+00 0.0000e+00 -1.0000e+00
</event>
<event>
 8      3 +3.7482383e-04 9.11880000e+01 7.81616400e-03 1.18400000e-01
      -11 -1    0    0    0    0 +0.0000000000e+00 +0.0000000000e+00 +4.5593999997e+01 4.5594000000e+01 5.1100000000e-04 0.0000e+00 -1.0000e+00
       11 -1    0    0    0    0 -0.0000000000e+00 -0.0000000000e+00 -4.5593999997e+01 4.5594000000e+01 5.1100000000e-04 0.0000e+00 1.0000e+00
       23  2    1    2    0    0 +4.4408920985e-16 +3.5527136788e-15 +7.1054273576e-15 9.1188000000e+01 9.1188000000e+01 3.8134e-14 0.0000e+00
  9990012  2    3    3    0    0 +2.6162749219e+00 +1.6055900859e+01 +4.0236611167e+01 4.7787288887e+01 2.0000081351e+01 2.5747e-02 0.0000e+00
      -11  1    4    4    0    0 -2.6380355429e+00 -2.8710706755e+00 +1.2523187498e+01 1.3116116182e+01 5.1100000000e-04 0.0000e+00 1.0000e+00
       11  1    4    4    0    0 +9.5294209327e-01 -3.8110113752e-01 +1.0192375151e+00 1.4464377219e+00 5.1100000000e-04 0.0000e+00 -1.0000e+00
       12  1    4    4    0    0 +4.3013683715e+00 +1.9308072673e+01 +2.6694186155e+01 3.3224734983e+01 0.0000000000e+00 0.0000e+00 -1.0000e+00
      -12  1    3    3    0    0 -2.6162749219e+00 -1.6055900859e+01 -4.0236611167e+01 4.3400711113e+01 0.0000000000e+00 0.0000e+00 1.0000e+00
</event>
<event>
 8      4 +3.7482383e-04 9.11880000e+01 7.81616400e-03 1.18400000e-01
      -11 -1    0    0    0    0 +0.0000000000e+00 +0.0000000000e+00 +4.5593999997e+01 4.5594000000e+01 5.1100000000e-04 0.0000e+00 -1.0000e+00
       11 -1    0    0    0    0 -0.0000000000e+00 -0.0000000000e+00 -4.5593999997e+01 4.5594000000e+01 5.1100000000e-04 0.0000e+00 1.0000e+00
       23  2    1    2    0    0 +0.0000000000e+00 +7.1054273576e-15 -1.7763568394e-15 9.1188000000e+01 9.1188000000e+01 4.5470e-14 0.0000e+00
 -9990012  2    3    3    0    0 +5.5646186727e+00 +4.1251698945e+01 -1.2286403217e+01 4.7787270158e+01 1.9999995958e+01 4.2823e-02 0.0000e+00
      -11  1    4    4    0    0 +2.4773450772e+00 +1.4991173281e+01 -2.8293453268e+00 1.5455669193e+01 5.1100000000e-04 0.0000e+00 1.0000e+00
       11  1    4    4    0    0 -2.1655602753e+00 +1.0671297615e+01 +3.4497602205e+00 1.1422219133e+01 5.1100000000e-04 0.0000e+00 -1.0000e+00
      -12  1    4    4    0    0 +5.2528338708e+00 +1.5589228050e+01 -1.2906818110e+01 2.0909381832e+01 0.0000000000e+00 0.0000e+00 1.0000e+00
       12  1    3    3    0    0 -5.5646186727e+00 -4.1251698945e+01 +1.2286403217e+01 4.3400729842e+01 0.0000000000e+00 0.0000e+00 -1.0000e+00
</event>
<event>
 8      4 +3.7482383e-04 9.11880000e+01 7.81616400e-03 1.18400000e-01
      -11 -1    0    0    0    0 +0.0000000000e+00 +0.0000000000e+00 +4.5593999997e+01 4.5594000000e+01 5.1100000000e-04 0.0000e+00 -1.0000e+00
       11 -1    0    0    0    0 -0.0000000000e+00 -0.0000000000e+00 -4.5593999997e+01 4.5594000000e+01 5.1100000000e-04 0.0000e+00 1.0000e+00
       23  2    1    2    0    0 +0.0000000000e+00 +0.0000000000e+00 -1.7763568394e-15 9.1188000000e+01 9.1188000000e+01 8.8493e-14 0.0000e+00
 -9990012  2    3    3    0    0 +2.5017294605e+01 -3.2621341039e+01 -1.3914249161e+01 4.7787271317e+01 2.0000001242e+01 1.7373e-02 0.0000e+00
      -11  1    4    4    0    0 +1.4655801746e+01 -2.1377640230e+01 -1.8326675632e+01 3.1743709088e+01 5.1100000000e-04 0.0000e+00 1.0000e+00
       11  1    4    4    0    0 +3.0501246290e+00 -3.1106902008e+00 +2.2204314614e+00 4.8897821949e+00 5.1100000000e-04 0.0000e+00 -1.0000e+00
      -12  1    4    4    0    0 +7.3113682291e+00 -8.1330106080e+00 +2.1919950096e+00 1.1153780034e+01 0.0000000000e+00 0.0000e+00 1.0000e+00
       12  1    3    3    0    0 -2.5017294605e+01 +3.2621341039e+01 +1.3914249161e+01 4.3400728683e+01 0.0000000000e+00 0.0000e+00 -1.0000e+00
</event>
<event>
 8      3 +3.7482383e-04 9.11880000e+01 7.81616400e-03 1.18400000e-01
      -11 -1    0    0    0    0 +0.0000000000e+00 +0.0000000000e+00 +4.5593999997e+01 4.5594000000e+01 5.1100000000e-04 0.0000e+00 1.0000e+00
       11 -1    0    0    0    0 -0.0000000000e+00 -0.0000000000e+00 -4.5593999997e+01 4.5594000000e+01 5.1100000000e-04 0.0000e+00 -1.0000e+00
       23  2    1    2    0    0 -1.7763568394e-15 +0.0000000000e+00 +0.0000000000e+00 9.1188000000e+01 9.1188000000e+01 6.7246e-14 0.0000e+00
  9990012  2    3    3    0    0 +8.3374508028e+00 +7.8123012515e+00 -4.1869775613e+01 4.7787271359e+01 2.0000001432e+01 3.6742e-01 0.0000e+00
      -11  1    4    4    0    0 +9.9552354822e+00 +3.7830324019e-01 -1.9239146573e+01 2.1665516102e+01 5.1100000000e-04 0.0000e+00 1.0000e+00
       11  1    4    4    0    0 +1.4188878998e+00 +9.7978176018e-01 +5.9611135075e-01 1.8244353026e+00 5.1100000000e-04 0.0000e+00 -1.0000e+00
       12  1    4    4    0    0 -3.0366725792e+00 +6.4542162511e+00 -2.3226740390e+01 2.4297319954e+01 0.0000000000e+00 0.0000e+00 -1.0000e+00
      -12  1    3    3    0    0 -8.3374508028e+00 -7.8123012515e+00 +4.1869775613e+01 4.3400728641e+01 0.0000000000e+00 0.0000e+00 1.0000e+00
</event>
<event>
 8      4 +3.7482383e-04 9.11880000e+01 7.81616400e-03 1.18400000e-01
      -11 -1    0    0    0    0 +0.0000000000e+00 +0.0000000000e+00 +4.5593999997e+01 4.5594000000e+01 5.1100000000e-04 0.0000e+00 1.0000e+00
       11 -1    0    0    0    0 -0.0000000000e+00 -0.0000000000e+00 -4.5593999997e+01 4.5594000000e+01 5.1100000000e-04 0.0000e+00 -1.0000e+00
       23  2    1    2    0    0 +3.5527136788e-15 -7.1054273576e-15 +2.2204460493e-16 9.1188000000e+01 9.1188000000e+01 4.5561e-14 0.0000e+00
 -9990012  2    3    3    0    0 +2.5031145756e+01 -3.5411338078e+01 -1.7614197799e+00 4.7787265882e+01 1.9999976463e+01 4.5083e-02 0.0000e+00
      -11  1    4    4    0    0 +2.9044711102e+00 +6.6812380999e-01 +1.1815603952e+00 3.2059986095e+00 5.1100000000e-04 0.0000e+00 1.0000e+00
       11  1    4    4    0    0 +5.1723755659e+00 -6.2221673315e+00 +4.7669298828e+00 9.3910838599e+00 5.1100000000e-04 0.0000e+00 -1.0000e+00
      -12  1    4    4    0    0 +1.6954299080e+01 -2.9857294557e+01 -7.7099100579e+00 3.5190183413e+01 0.0000000000e+00 0.0000e+00 1.0000e+00
       12  1    3    3    0    0 -2.5031145756e+01 +3.5411338078e+01 +1.7614197799e+00 4.3400734118e+01 0.0000000000e+00 0.0000e+00 -1.0000e+00
</event>
<event>
 8      3 +3.7482383e-04 9.11880000e+01 7.81616400e-03 1.18400000e-01
      -11 -1    0    0    0    0 +0.0000000000e+00 +0.0000000000e+00 +4.5593999997e+01 4.5594000000e+01 5.1100000000e-04 0.0000e+00 1.0000e+00
       11 -1    0    0    0    0 -0.0000000000e+00 -0.0000000000e+00 -4.5593999997e+01 4.5594000000e+01 5.1100000000e-04 0.0000e+00 -1.0000e+00
       23  2    1    2    0    0 +0.0000000000e+00 +0.0000000000e+00 +3.5527136788e-15 9.1188000000e+01 9.1188000000e+01 1.1568e-13 0.0000e+00
  9990012  2    3    3    0    0 -3.6924114275e+01 -1.5684726289e+01 -1.6559664302e+01 4.7787270334e+01 1.9999996760e+01 1.9342e-02 0.0000e+00
      -11  1    4    4    0    0 -4.5957546726e+00 -2.2933256724e+00 +6.4483162086e-01 5.1764960862e+00 5.1100000000e-04 0.0000e+00 1.0000e+00
       11  1    4    4    0    0 -2.8978743281e+01 -5.1290163802e+00 -1.6320161520e+01 3.3651479068e+01 5.1100000000e-04 0.0000e+00 -1.0000e+00
       12  1    4    4    0    0 -3.3496163218e+00 -8.2623842367e+00 -8.8433440218e-01 8.9592951795e+00 0.0000000000e+00 0.0000e+00 -1.0000e+00
      -12  1    3    3    0    0 +3.6924114275e+01 +1.5684726289e+01 +1.6559664302e+01 4.3400729666e+01 0.0000000000e+00 0.0000e+00 1.0000e+00
</event>
<event>
 8      3 +3.7482383e-04 9.11880000e+01 7.81616400e-03 1.18400000e-01
      -11 -1    0    0    0    0 +0.0000000000e+00 +0.0000000000e+00 +4.5593999997e+01 4.5594000000e+01 5.1100000000e-04 0.0000e+00 1.0000e+00
       11 -1    0    0    0    0 -0.0000000000e+00 -0.0000000000e+00 -4.5593999997e+01 4.5594000000e+01 5.1100000000e-04 0.0000e+00 -1.0000e+00
       23  2    1    2    0    0 +0.0000000000e+00 +0.0000000000e+00 -7.1054273576e-15 9.1188000000e+01 9.1188000000e+01 3.6532e-14 0.0000e+00
  9990012  2    3    3    0    0 +1.1457600725e+01 +2.0655809571e+01 -3.6409943888e+01 4.7787273079e+01 2.0000009275e+01 6.7091e-02 0.0000e+00
      -11  1    4    4    0    0 +2.3771644264e+00 +1.3547261231e+01 -1.5826432578e+01 2.0967955694e+01 5.1100000000e-04 0.0000e+00 1.0000e+00
       11  1    4    4    0    0 +8.0405729358e+00 -1.0583175928e+00 -1.4386294955e+01 1.6514730759e+01 5.1100000000e-04 0.0000e+00 -1.0000e+00
       12  1    4    4    0    0 +1.0398633628e+00 +8.1668659321e+00 -6.1972163546e+00 1.0304586625e+01 0.0000000000e+00 0.0000e+00 -1.0000e+00
      -12  1    3    3    0    0 -1.1457600725e+01 -2.0655809571e+01 +3.6409943888e+01 4.3400726921e+01 0.0000000000e+00 0.0000e+00 1.0000e+00
</event>
<event>
 8      4 +3.7482383e-04 9.11880000e+01 7.81616400e-03 1.18400000e-01
      -11 -1    0    0    0    0 +0.0000000000e+00 +0.0000000000e+00 +4.5593999997e+01 4.5594000000e+01 5.1100000000e-04 0.0000e+00 1.0000e+00
       11 -1    0    0    0    0 -0.0000000000e+00 -0.0000000000e+00 -4.5593999997e+01 4.5594000000e+01 5.1100000000e-04 0.0000e+00 -1.0000e+00
       23  2    1    2    0    0 -1.7763568394e-15 +0.0000000000e+00 +0.0000000000e+00 9.1188000000e+01 9.1188000000e+01 1.6465e-13 0.0000e+00
 -9990012  2    3    3    0    0 -1.1999196093e+01 -3.5009854956e+01 +2.2670531438e+01 4.7787266751e+01 1.9999980423e+01 8.1497e-02 0.0000e+00
      -11  1    4    4    0    0 -5.1856904439e+00 -1.8120056782e+00 +3.4461197209e-01 5.5039538180e+00 5.1100000000e-04 0.0000e+00 -1.0000e+00
       11  1    4    4    0    0 +2.5104181008e+00 -8.5006014895e+00 +9.2949425447e+00 1.2843612494e+01 5.1100000000e-04 0.0000e+00 1.0000e+00
      -12  1    4    4    0    0 -9.3239237498e+00 -2.4697247788e+01 +1.3030976921e+01 2.9439700439e+01 0.0000000000e+00 0.0000e+00 1.0000e+00
       12  1    3    3    0    0 +1.1999196093e+01 +3.5009854956e+01 -2.2670531438e+01 4.3400733249e+01 0.0000000000e+00 0.0000e+00 -1.0000e+00
</event>
<event>
 8      4 +3.7482383e-04 9.11880000e+01 7.81616400e-03 1.18400000e-01
      -11 -1    0    0    0    0 +0.0000000000e+00 +0.0000000000e+00 +4.5593999997e+01 4.5594000000e+01 5.1100000000e-04 0.0000e+00 1.0000e+00
       11 -1    0    0    0    0 -0.0000000000e+00 -0.0000000000e+00 -4.5593999997e+01 4.5594000000e+01 5.1100000000e-04 0.0000e+00 -1.0000e+00
       23  2    1    2    0    0 +0.0000000000e+00 +7.1054273576e-15 +3.5527136788e-15 9.1188000000e+01 9.1188000000e+01 4.7546e-14 0.0000e+00
 -9990012  2    3    3    0    0 +1.6571104682e+01 -3.3503594327e+01 +2.2057450120e+01 4.7787269027e+01 1.9999990802e+01 3.3040e-02 0.0000e+00
      -11  1    4    4    0    0 +9.0008126187e+00 -1.4250737152e+01 +9.9022595072e+00 1.9548730925e+01 5.1100000000e-04 0.0000e+00 1.0000e+00
       11  1    4    4    0    0 +8.8595900077e+00 -6.3672224770e+00 +1.0572013723e+01 1.5192147037e+01 5.1100000000e-04 0.0000e+00 -1.0000e+00
      -12  1    4    4    0    0 -1.2892979441e+00 -1.2885634698e+01 +1.5831768894e+00 1.3046391065e+01 0.0000000000e+00 0.0000e+00 1.0000e+00
       12  1    3    3    0    0 -1.6571104682e+01 +3.3503594327e+01 -2.2057450120e+01 4.3400730973e+01 0.0000000000e+00 0.0000e+00 -1.0000e+00
</event>
<event>
 8      3 +3.7482383e-04 9.11880000e+01 7.81616400e-03 1.18400000e-01
      -11 -1    0    0    0    0 +0.0000000000e+00 +0.0000000000e+00 +4.5593999997e+01 4.5594000000e+01 5.1100000000e-04 0.0000e+00 1.0000e+00
       11 -1    0    0    0    0 -0.0000000000e+00 -0.0000000000e+00 -4.5593999997e+01 4.5594000000e+01 5.1100000000e-04 0.0000e+00 -1.0000e+00
       23  2    1    2    0    0 +0.0000000000e+00 +0.0000000000e+00 +4.4408920985e-16 9.1188000000e+01 9.1188000000e+01 3.9181e-13 0.0000e+00
  9990012  2    3    3    0    0 -3.7572611360e+01 +2.1589087925e+01 +2.4153392262e+00 4.7787266073e+01 1.9999977332e+01 1.6239e-01 0.0000e+00
      -11  1    4    4    0    0 -7.4618007717e+00 +5.2854859533e+00 -4.0801991973e+00 1.0013134288e+01 5.1100000000e-04 0.0000e+00 1.0000e+00
       11  1    4    4    0    0 -2.2731531941e+01 +6.7466155385e+00 -6.9337353555e-01 2.3721722803e+01 5.1100000000e-04 0.0000e+00 -1.0000e+00
       12  1    4    4    0    0 -7.3792786470e+00 +9.5569864334e+00 +7.1889119590e+00 1.4052408982e+01 0.0000000000e+00 0.0000e+00 -1.0000e+00
      -12  1    3    3    0    0 +3.7572611360e+01 -2.1589087925e+01 -2.4153392262e+00 4.3400733927e+01 0.0000000000e+00 0.0000e+00 1.0000e+00
</event>
<event>
 8      4 +3.7482383e-04 9.11880000e+01 7.81616400e-03 1.18400000e-01
      -11 -1    0    0    0    0 +0.0000000000e+00 +0.0000000000e+00 +4.5593999997e+01 4.5594000000e+01 5.1100000000e-04 0.0000e+00 1.0000e+00
       11 -1    0    0    0    0 -0.0000000000e+00 -0.0000000000e+00 -4.5593999997e+01 4.5594000000e+01 5.1100000000e-04 0.0000e+00 -1.0000e+00
       23  2    1    2    0    0 -7.1054273576e-15 -3.5527136788e-15 -1.7763568394e-15 9.1188000000e+01 9.1188000000e+01 2.0419e-13 0.0000e+00
 -9990012  2    3    3    0    0 +3.9080935562e+01 +1.6211169206e+01 +9.6696392012e+00 4.7787268973e+01 1.9999990554e+01 1.2112e-01 0.0000e+00
      -11  1    4    4    0    0 +2.2781302081e+01 +1.5567339748e+00 +4.4866456595e+00 2.3271036391e+01 5.1100000000e-04 0.0000e+00 1.0000e+00
       11  1    4    4    0    0 +1.2670271301e+00 +4.3367509471e+00 -1.9722007269e+00 4.9297406112e+00 5.1100000000e-04 0.0000e+00 -1.0000e+00
      -12  1    4    4    0    0 +1.5032606351e+01 +1.0317684284e+01 +7.1551942686e+00 1.9586491970e+01 0.0000000000e+00 0.0000e+00 1.0000e+00
       12  1    3    3    0    0 -3.9080935562e+01 -1.6211169206e+01 -9.6696392012e+00 4.3400731027e+01 0.0000000000e+00 0.0000e+00 -1.0000e+00
</event>
<event>
 8      3 +3.7482383e-04 9.11880000e+01 7.81616400e-03 1.18400000e-01
      -11 -1    0    0    0    0 +0.0000000000e+00 +0.0000000000e+00 +4.5593999997e+01 4.5594000000e+01 5.1100000000e-04 0.0000e+00 1.0000e+00
       11 -1    0    0    0    0 -0.0000000000e+00 -0.0000000000e+00 -4.5593999997e+01 4.5594000000e+01 5.1100000000e-04 0.0000e+00 -1.0000e+00
       23  2    1    2    0    0 -8.8817841970e-16 +0.0000000000e+00 +3.5527136788e-15 9.1188000000e+01 9.1188000000e+01 1.2440e-14 0.0000e+00
  9990012  2    3    3    0    0 +5.9537141989e+00 +3.6428812086e+01 -2.2827999846e+01 4.7787278350e+01 2.0000033309e+01 1.8519e-01 0.0000e+00
      -11  1    4    4    0    0 +6.9636407295e+00 +1.3136329170e+01 +4.0013853996e-01 1.4873316623e+01 5.1100000000e-04 0.0000e+00 -1.0000e+00
       11  1    4    4    0    0 -4.3671277706e-01 +1.4792907831e+01 -1.4881865890e+01 2.0987872040e+01 5.1100000000e-04 0.0000e+00 1.0000e+00
       12  1    4    4    0    0 -5.7321375356e-01 +8.4995750861e+00 -8.3462724961e+00 1.1926089687e+01 0.0000000000e+00 0.0000e+00 -1.0000e+00
      -12  1    3    3    0    0 -5.9537141989e+00 -3.6428812086e+01 +2.2827999846e+01 4.3400721650e+01 0.0000000000e+00 0.0000e+00 1.0000e+00
</event>
<event>
 8      4 +3.7482383e-04 9.11880000e+01 7.81616400e-03 1.18400000e-01
      -11 -1    0    0    0    0 +0.0000000000e+00 +0.0000000000e+00 +4.5593999997e+01 4.5594000000e+01 5.1100000000e-04 0.0000e+00 1.0000e+00
       11 -1    0    0    0    0 -0.0000000000e+00 -0.0000000000e+00 -4.5593999997e+01 4.5594000000e+01 5.1100000000e-04 0.0000e+00 -1.0000e+00
       23  2    1    2    0    0 +8.8817841970e-16 +0.0000000000e+00 +0.0000000000e+00 9.1188000000e+01 9.1188000000e+01 5.0891e-14 0.0000e+00
 -9990012  2    3    3    0    0 +6.8483537232e+00 +2.4379900628e+01 +3.5246896620e+01 4.7787271611e+01 2.0000002585e+01 2.6443e-01 0.0000e+00
      -11  1    4    4    0    0 +4.3538933135e+00 +1.4077845776e+00 +3.2116576836e+00 5.5904373478e+00 5.1100000000e-04 0.0000e+00 -1.0000e+00
       11  1    4    4    0    0 +7.6295420657e+00 +7.7427553627e+00 +1.7064908972e+01 2.0232925919e+01 5.1100000000e-04 0.0000e+00 1.0000e+00
      -12  1    4    4    0    0 -5.1350816560e+00 +1.5229360687e+01 +1.4970329964e+01 2.1963908345e+01 0.0000000000e+00 0.0000e+00 1.0000e+00
       12  1    3    3    0    0 -6.8483537232e+00 -2.4379900628e+01 -3.5246896620e+01 4.3400728389e+01 0.0000000000e+00 0.0000e+00 -1.0000e+00
</event>
<event>
 8      4 +3.7482383e-04 9.11880000e+01 7.81616400e-03 1.18400000e-01
      -11 -1    0    0    0    0 +0.0000000000e+00 +0.0000000000e+00 +4.5593999997e+01 4.5594000000e+01 5.1100000000e-04 0.0000e+00 1.0000e+00
       11 -1    0    0    0    0 -0.0000000000e+00 -0.0000000000e+00 -4.5593999997e+01 4.5594000000e+01 5.1100000000e-04 0.0000e+00 -1.0000e+00
       23  2    1    2    0    0 +0.0000000000e+00 -1.3045120539e-15 +0.0000000000e+00 9.1188000000e+01 9.1188000000e+01 5.3587e-14 0.0000e+00
 -9990012  2    3    3    0    0 -2.1735397135e+01 +1.7421019656e-01 +3.7565485300e+01 4.7787268167e+01 1.9999986882e+01 1.4953e-01 0.0000e+00
      -11  1    4    4    0    0 -7.3985296505e+00 -7.4564421529e+00 +2.0982214776e+01 2.3464656566e+01 5.1100000000e-04 0.0000e+00 1.0000e+00
       11  1    4    4    0    0 -2.8998828266e-01 +2.9829381585e+00 +2.8031988199e+00 4.1036492475e+00 5.1100000000e-04 0.0000e+00 -1.0000e+00
      -12  1    4    4    0    0 -1.4046879202e+01 +4.6477141910e+00 +1.3780071703e+01 2.0218962354e+01 0.0000000000e+00 0.0000e+00 1.0000e+00
       12  1    3    3    0    0 +2.1735397135e+01 -1.7421019656e-01 -3.7565485300e+01 4.3400731833e+01 0.0000000000e+00 0.0000e+00 -1.0000e+00
</event>
<event>
 8      4 +3.7482383e-04 9.11880000e+01 7.81616400e-03 1.18400000e-01
      -11 -1    0    0    0    0 +0.0000000000e+00 +0.0000000000e+00 +4.5593999997e+01 4.5594000000e+01 5.1100000000e-04 0.0000e+00 -1.0000e+00
       11 -1    0    0    0    0 -0.0000000000e+00 -0.0000000000e+00 -4.5593999997e+01 4.5594000000e+01 5.1100000000e-04 0.0000e+00 1.0000e+00
       23  2    1    2    0    0 +1.7763568394e-15 -7.1054273576e-15 -3.5527136788e-15 9.1188000000e+01 9.1188000000e+01 4.8037e-14 0.0000e+00
 -9990012  2    3    3    0    0 +9.8213156345e+00 -3.5882968827e+01 -2.2351231391e+01 4.7787271466e+01 2.0000001922e+01 3.8957e-01 0.0000e+00
      -11  1    4    4    0    0 -1.6449454108e+00 -4.3688961748e+00 -6.8973409222e+00 8.3286500256e+00 5.1100000000e-04 0.0000e+00 1.0000e+00
       11  1    4    4    0    0 -2.6236694890e+00 -1.2334220785e+00 -9.9822482465e-01 3.0661742731e+00 5.1100000000e-04 0.0000e+00 -1.0000e+00
      -12  1    4    4    0    0 +1.4089930534e+01 -3.0280650573e+01 -1.4455665644e+01 3.6392447167e+01 0.0000000000e+00 0.0000e+00 1.0000e+00
       12  1    3    3    0    0 -9.8213156345e+00 +3.5882968827e+01 +2.2351231391e+01 4.3400728534e+01 0.0000000000e+00 0.0000e+00 -1.0000e+00
</event>
<event>
 8      4 +3.7482383e-04 9.11880000e+01 7.81616400e-03 1.18400000e-01
      -11 -1    0    0    0    0 +0.0000000000e+00 +0.0000000000e+00 +4.5593999997e+01 4.5594000000e+01 5.1100000000e-04 0.0000e+00 -1.0000e+00
       11 -1    0    0    0    0 -0.0000000000e+00 -0.0000000000e+00 -4.5593999997e+01 4.5594000000e+01 5.1100000000e-04 0.0000e+00 1.0000e+00
       23  2    1    2    0    0 +0.0000000000e+00 +0.0000000000e+00 +0.0000000000e+00 9.1188000000e+01 9.1188000000e+01 1.1937e-13 0.0000e+00
 -9990012  2    3    3    0    0 -1.6904453177e+01 +3.9448376793e+01 -6.4566607398e+00 4.7787269169e+01 1.9999991448e+01 1.0727e-01 0.0000e+00
      -11  1    4    4    0    0 -8.7801750264e+00 +2.1725024175e+01 -3.8712640023e+00 2.3749838613e+01 5.1100000000e-04 0.0000e+00 1.0000e+00
       11  1    4    4    0    0 -1.1942297296e+01 +1.1561788498e+01 -1.2707137900e+00 1.6670576828e+01 5.1100000000e-04 0.0000e+00 -1.0000e+00
      -12  1    4    4    0    0 +3.8180191457e+00 +6.1615641200e+00 -1.3146829475e+00 7.3668537283e+00 0.0000000000e+00 0.0000e+00 1.0000e+00
       12  1    3    3    0    0 +1.6904453177e+01 -3.9448376793e+01 +6.4566607398e+00 4.3400730831e+01 0.0000000000e+00 0.0000e+00 -1.0000e+00
</event>
<event>
 8      4 +3.7482383e-04 9.11880000e+01 7.81616400e-03 1.18400000e-01
      -11 -1    0    0    0    0 +0.0000000000e+00 +0.0000000000e+00 +4.5593999997e+01 4.5594000000e+01 5.1100000000e-04 0.0000e+00 1.0000e+00
       11 -1    0    0    0    0 -0.0000000000e+00 -0.0000000000e+00 -4.5593999997e+01 4.5594000000e+01 5.1100000000e-04 0.0000e+00 -1.0000e+00
       23  2    1    2    0    0 +3.5527136788e-15 +3.5527136788e-15 -3.5527136788e-15 9.1188000000e+01 9.1188000000e+01 3.8600e-14 0.0000e+00
 -9990012  2    3    3    0    0 -3.1963974768e+01 -2.1236977190e+01 +2.0271122638e+01 4.7787270788e+01 1.9999998832e+01 2.0291e-01 0.0000e+00
      -11  1    4    4    0    0 -6.4575634080e+00 -1.2798454419e+01 +1.0865444645e+01 1.7987730493e+01 5.1100000000e-04 0.0000e+00 1.0000e+00
       11  1    4    4    0    0 -1.0842798762e+01 -5.4497229419e+00 +2.1121554107e-02 1.2135329065e+01 5.1100000000e-04 0.0000e+00 -1.0000e+00
      -12  1    4    4    0    0 -1.4663612598e+01 -2.9887998287e+00 +9.3845564389e+00 1.7664211230e+01 0.0000000000e+00 0.0000e+00 1.0000e+00
       12  1    3    3    0    0 +3.1963974768e+01 +2.1236977190e+01 -2.0271122638e+01 4.3400729212e+01 0.0000000000e+00 0.0000e+00 -1.0000e+00
</event>
<event>
 8      4 +3.7482383e-04 9.11880000e+01 7.81616400e-03 1.18400000e-01
      -11 -1    0    0    0    0 +0.0000000000e+00 +0.0000000000e+00 +4.5593999997e+01 4.5594000000e+01 5.1100000000e-04 0.0000e+00 -1.0000e+00
       11 -1    0    0    0    0 -0.0000000000e+00 -0.0000000000e+00 -4.5593999997e+01 4.5594000000e+01 5.1100000000e-04 0.0000e+00 1.0000e+00
       23  2    1    2    0    0 +0.0000000000e+00 +0.0000000000e+00 +0.0000000000e+00 9.1188000000e+01 9.1188000000e+01 1.6406e-13 0.0000e+00
 -9990012  2    3    3    0    0 +9.3937091841e+00 +3.6254184947e+01 -2.1932112181e+01 4.7787248358e+01 1.9999896561e+01 1.9028e-03 0.0000e+00
      -11  1    4    4    0    0 +4.5385577494e+00 +2.0607796811e+01 -1.7003086515e+01 2.7099534076e+01 5.1100000000e-04 0.0000e+00 1.0000e+00
       11  1    4    4    0    0 +5.3406868391e+00 +1.5845168550e+00 -3.4198856019e+00 6.5367612293e+00 5.1100000000e-04 0.0000e+00 -1.0000e+00
      -12  1    4    4    0    0 -4.8553540447e-01 +1.4061871281e+01 -1.5091400644e+00 1.4150953052e+01 0.0000000000e+00 0.0000e+00 1.0000e+00
       12  1    3    3    0    0 -9.3937091841e+00 -3.6254184947e+01 +2.1932112181e+01 4.3400751642e+01 0.0000000000e+00 0.0000e+00 -1.0000e+00
</event>
<event>
 8      4 +3.7482383e-04 9.11880000e+01 7.81616400e-03 1.18400000e-01
      -11 -1    0    0    0    0 +0.0000000000e+00 +0.0000000000e+00 +4.5593999997e+01 4.5594000000e+01 5.1100000000e-04 0.0000e+00 1.0000e+00
       11 -1    0    0    0    0 -0.0000000000e+00 -0.0000000000e+00 -4.5593999997e+01 4.5594000000e+01 5.1100000000e-04 0.0000e+00 -1.0000e+00
       23  2    1    2    0    0 +0.0000000000e+00 -1.7763568394e-15 +0.0000000000e+00 9.1188000000e+01 9.1188000000e+01 1.0208e-13 0.0000e+00
 -9990012  2    3    3    0    0 +2.1826180053e+01 +1.3431029704e+01 +3.5026391778e+01 4.7787276324e+01 2.0000024071e+01 8.4600e-01 0.0000e+00
      -11  1    4    4    0    0 +1.7902042475e+01 +1.5775711942e+01 +2.2736339159e+01 3.2959025026e+01 5.1100000000e-04 0.0000e+00 1.0000e+00
       11  1    4    4    0    0 +5.5438264142e+00 -2.7632998164e+00 +7.3470852988e+00 9.6098647147e+00 5.1100000000e-04 0.0000e+00 -1.0000e+00
      -12  1    4    4    0    0 -1.6196888361e+00 +4.1861757858e-01 +4.9429673206e+00 5.2183865836e+00 0.0000000000e+00 0.0000e+00 1.0000e+00
       12  1    3    3    0    0 -2.1826180053e+01 -1.3431029704e+01 -3.5026391778e+01 4.3400723676e+01 0.0000000000e+00 0.0000e+00 -1.0000e+00
</event>
<event>
 8      4 +3.7482383e-04 9.11880000e+01 7.81616400e-03 1.18400000e-01
      -11 -1    0    0    0    0 +0.0000000000e+00 +0.0000000000e+00 +4.5593999997e+01 4.5594000000e+01 5.1100000000e-04 0.0000e+00 1.0000e+00
       11 -1    0    0    0    0 -0.0000000000e+00 -0.0000000000e+00 -4.5593999997e+01 4.5594000000e+01 5.1100000000e-04 0.0000e+00 -1.0000e+00
       23  2    1    2    0    0 +0.0000000000e+00 +3.5527136788e-15 +0.0000000000e+00 9.1188000000e+01 9.1188000000e+01 1.1655e-13 0.0000e+00
 -9990012  2    3    3    0    0 +3.2201761925e+01 +2.8976663390e+01 -2.6500148561e+00 4.7787273381e+01 2.0000010653e+01 7.4006e-02 0.0000e+00
      -11  1    4    4    0    0 +2.5703650916e+01 +2.7536227223e+01 -2.1146554012e+00 3.7727884221e+01 5.1100000000e-04 0.0000e+00 1.0000e+00
       11  1    4    4    0    0 -5.1916091508e-01 -6.9098312561e-01 +2.0964618419e+00 2.2676283318e+00 5.1100000000e-04 0.0000e+00 -1.0000e+00
      -12  1    4    4    0    0 +7.0172719244e+00 +2.1314192931e+00 -2.6318212967e+00 7.7917608281e+00 0.0000000000e+00 0.0000e+00 1.0000e+00
       12  1    3    3    0    0 -3.2201761925e+01 -2.8976663390e+01 +2.6500148561e+00 4.3400726619e+01 0.0000000000e+00 0.0000e+00 -1.0000e+00
</event>
<event>
 8      4 +3.7482383e-04 9.11880000e+01 7.81616400e-03 1.18400000e-01
      -11 -1    0    0    0    0 +0.0000000000e+00 +0.0000000000e+00 +4.5593999997e+01 4.5594000000e+01 5.1100000000e-04 0.0000e+00 -1.0000e+00
       11 -1    0    0    0    0 -0.0000000000e+00 -0.0000000000e+00 -4.5593999997e+01 4.5594000000e+01 5.1100000000e-04 0.0000e+00 1.0000e+00
       23  2    1    2    0    0 +0.0000000000e+00 +1.7763568394e-15 -3.5527136788e-15 9.1188000000e+01 9.1188000000e+01 1.0132e-14 0.0000e+00
 -9990012  2    3    3    0    0 +3.4300660439e+01 +1.0437916031e+01 -2.4456890788e+01 4.7787252258e+01 1.9999914343e+01 9.0166e-02 0.0000e+00
      -11  1    4    4    0    0 +1.2848086547e+01 +3.2671290520e+00 -3.7568942431e+00 1.3779031707e+01 5.1100000000e-04 0.0000e+00 -1.0000e+00
       11  1    4    4    0    0 +2.7585744490e+00 -4.2310575028e+00 -4.5740876745e+00 6.8142394218e+00 5.1100000000e-04 0.0000e+00 1.0000e+00
      -12  1    4    4    0    0 +1.8693999442e+01 +1.1401844482e+01 -1.6125908870e+01 2.7193981129e+01 0.0000000000e+00 0.0000e+00 1.0000e+00
       12  1    3    3    0    0 -3.4300660439e+01 -1.0437916031e+01 +2.4456890788e+01 4.3400747742e+01 0.0000000000e+00 0.0000e+00 -1.0000e+00
</event>
<event>
 8      3 +3.7482383e-04 9.11880000e+01 7.81616400e-03 1.18400000e-01
      -11 -1    0    0    0    0 +0.0000000000e+00 +0.0000000000e+00 +4.5593999997e+01 4.5594000000e+01 5.1100000000e-04 0.0000e+00 -1.0000e+00
       11 -1    0    0    0    0 -0.0000000000e+00 -0.0000000000e+00 -4.5593999997e+01 4.5594000000e+01 5.1100000000e-04 0.0000e+00 1.0000e+00
       23  2    1    2    0    0 +0.0000000000e+00 +0.0000000000e+00 -8.6042284408e-16 9.1188000000e+01 9.1188000000e+01 5.4441e-14 0.0000e+00
  9990012  2    3    3    0    0 +1.0972628546e+01 -4.1990039019e+01 -2.4608965111e-01 4.7787279797e+01 2.0000039905e+01 4.4943e-01 0.0000e+00
      -11  1    4    4    0    0 -2.1356244436e+00 -2.1611410756e+00 +1.9004978018e+00 3.5837570604e+00 5.1100000000e-04 0.0000e+00 1.0000e+00
       11  1    4    4    0    0 +5.5548383542e+00 -1.1162432034e+01 -6.7899566530e+00 1.4197169777e+01 5.1100000000e-04 0.0000e+00 -1.0000e+00
       12  1    4    4    0    0 +7.5534146355e+00 -2.8666465910e+01 +4.6433692001e+00 3.0006352959e+01 0.0000000000e+00 0.0000e+00 -1.0000e+00
      -12  1    3    3    0    0 -1.0972628546e+01 +4.1990039019e+01 +2.4608965111e-01 4.3400720203e+01 0.0000000000e+00 0.0000e+00 1.0000e+00
</event>
<event>
 8      3 +3.7482383e-04 9.11880000e+01 7.81616400e-03 1.18400000e-01
      -11 -1    0    0    0    0 +0.0000000000e+00 +0.0000000000e+00 +4.5593999997e+01 4.5594000000e+01 5.1100000000e-04 0.0000e+00 -1.0000e+00
       11 -1    0    0    0    0 -0.0000000000e+00 -0.0000000000e+00 -4.5593999997e+01 4.5594000000e+01 5.1100000000e-04 0.0000e+00 1.0000e+00
       23  2    1    2    0    0 +0.0000000000e+00 +1.7763568394e-15 +0.0000000000e+00 9.1188000000e+01 9.1188000000e+01 3.5784e-14 0.0000e+00
  9990012  2    3    3    0    0 +2.5054060502e+01 +1.4269022346e+01 +3.2439364194e+01 4.7787270793e+01 1.9999998856e+01 1.2646e-01 0.0000e+00
      -11  1    4    4    0    0 +1.9510937622e+00 +4.0102522726e+00 -1.7762918414e+00 4.8004273899e+00 5.1100000000e-04 0.0000e+00 1.0000e+00
       11  1    4    4    0    0 +1.7524084878e+01 +5.1458366423e+00 +2.1719917192e+01 2.8378301370e+01 5.1100000000e-04 0.0000e+00 -1.0000e+00
       12  1    4    4    0    0 +5.5788818616e+00 +5.1129334307e+00 +1.2495738844e+01 1.4608542034e+01 0.0000000000e+00 0.0000e+00 -1.0000e+00
      -12  1    3    3    0    0 -2.5054060502e+01 -1.4269022346e+01 -3.2439364194e+01 4.3400729207e+01 0.0000000000e+00 0.0000e+00 1.0000e+00
</event>
<event>
 8      3 +3.7482383e-04 9.11880000e+01 7.81616400e-03 1.18400000e-01
      -11 -1    0    0    0    0 +0.0000000000e+00 +0.0000000000e+00 +4.5593999997e+01 4.5594000000e+01 5.1100000000e-04 0.0000e+00 -1.0000e+00
       11 -1    0    0    0    0 -0.0000000000e+00 -0.0000000000e+00 -4.5593999997e+01 4.5594000000e+01 5.1100000000e-04 0.0000e+00 1.0000e+00
       23  2    1    2    0    0 +7.1054273576e-15 +0.0000000000e+00 +0.0000000000e+00 9.1188000000e+01 9.1188000000e+01 2.7321e-15 0.0000e+00
  9990012  2    3    3    0    0 -2.6649302510e+01 -4.2830312910e+00 +3.3986668182e+01 4.7787270796e+01 1.9999998868e+01 1.5865e-01 0.0000e+00
      -11  1    4    4    0    0 -7.2076341760e+00 +3.2682936422e+00 +9.4195542028e-02 7.9145819099e+00 5.1100000000e-04 0.0000e+00 1.0000e+00
       11  1    4    4    0    0 -2.2176781341e+00 -5.1442397207e-01 +2.5050833037e+00 3.3849920161e+00 5.1100000000e-04 0.0000e+00 -1.0000e+00
       12  1    4    4    0    0 -1.7223990200e+01 -7.0369009611e+00 +3.1387389336e+01 3.6487696870e+01 0.0000000000e+00 0.0000e+00 -1.0000e+00
      -12  1    3    3    0    0 +2.6649302510e+01 +4.2830312910e+00 -3.3986668182e+01 4.3400729204e+01 0.0000000000e+00 0.0000e+00 1.0000e+00
</event>
<event>
 8      3 +3.7482383e-04 9.11880000e+01 7.81616400e-03 1.18400000e-01
      -11 -1    0    0    0    0 +0.0000000000e+00 +0.0000000000e+00 +4.5593999997e+01 4.5594000000e+01 5.1100000000e-04 0.0000e+00 -1.0000e+00
       11 -1    0    0    0    0 -0.0000000000e+00 -0.0000000000e+00 -4.5593999997e+01 4.5594000000e+01 5.1100000000e-04 0.0000e+00 1.0000e+00
       23  2    1    2    0    0 -3.5527136788e-15 +0.0000000000e+00 +3.5527136788e-15 9.1188000000e+01 9.1188000000e+01 6.3884e-14 0.0000e+00
  9990012  2    3    3    0    0 -2.7928267553e+01 -1.5968655420e+01 +2.9131383268e+01 4.7787267569e+01 1.9999984154e+01 3.8843e-01 0.0000e+00
      -11  1    4    4    0    0 -3.0215024694e+00 -8.0539724159e+00 +5.3538324617e+00 1.0132101023e+01 5.1100000000e-04 0.0000e+00 1.0000e+00
       11  1    4    4    0    0 -1.6802945233e+01 -1.1040369232e+01 +1.9357262676e+01 2.7909359359e+01 5.1100000000e-04 0.0000e+00 -1.0000e+00
       12  1    4    4    0    0 -8.1038198505e+00 +3.1256862281e+00 +4.4202881308e+00 9.7458071870e+00 0.0000000000e+00 0.0000e+00 -1.0000e+00
      -12  1    3    3    0    0 +2.7928267553e+01 +1.5968655420e+01 -2.9131383268e+01 4.3400732431e+01 0.0000000000e+00 0.0000e+00 1.0000e+00
</event>
<event>
 8      3 +3.7482383e-04 9.11880000e+01 7.81616400e-03 1.18400000e-01
      -11 -1    0    0    0    0 +0.0000000000e+00 +0.0000000000e+00 +4.5593999997e+01 4.5594000000e+01 5.1100000000e-04 0.0000e+00 -1.0000e+00
       11 -1    0    0    0    0 -0.0000000000e+00 -0.0000000000e+00 -4.5593999997e+01 4.5594000000e+01 5.1100000000e-04 0.0000e+00 1.0000e+00
       23  2    1    2    0    0 +0.0000000000e+00 +7.1054273576e-15 -3.5527136788e-15 9.1188000000e+01 9.1188000000e+01 1.0435e-13 0.0000e+00
  9990012  2    3    3    0    0 -2.1746044003e+01 +3.3824065989e+01 -1.6329894870e+01 4.7787270325e+01 1.9999996722e+01 4.2531e-01 0.0000e+00
      -11  1    4    4    0    0 -1.1616730781e+00 +9.1728692644e+00 -5.1305783893e+00 1.0574206814e+01 5.1100000000e-04 0.0000e+00 1.0000e+00
       11  1    4    4    0    0 -2.7034821523e-01 +1.1003416691e+01 -3.8462781255e+00 1.1659422057e+01 5.1100000000e-04 0.0000e+00 -1.0000e+00
       12  1    4    4    0    0 -2.0314022709e+01 +1.3647780034e+01 -7.3530383548e+00 2.5553641454e+01 0.0000000000e+00 0.0000e+00 -1.0000e+00
      -12  1    3    3    0    0 +2.1746044003e+01 -3.3824065989e+01 +1.6329894870e+01 4.3400729675e+01 0.0000000000e+00 0.0000e+00 1.0000e+00
</event>
<event>
 8      3 +3.7482383e-04 9.11880000e+01 7.81616400e-03 1.18400000e-01
      -11 -1    0    0    0    0 +0.0000000000e+00 +0.0000000000e+00 +4.5593999997e+01 4.5594000000e+01 5.1100000000e-04 0.0000e+00 -1.0000e+00
       11 -1    0    0    0    0 -0.0000000000e+00 -0.0000000000e+00 -4.5593999997e+01 4.5594000000e+01 5.1100000000e-04 0.0000e+00 1.0000e+00
       23  2    1    2    0    0 +0.0000000000e+00 -3.5527136788e-15 +0.0000000000e+00 9.1188000000e+01 9.1188000000e+01 2.2429e-14 0.0000e+00
  9990012  2    3    3    0    0 -3.1744411670e+01 +2.3407190206e+01 +1.8111293949e+01 4.7787271963e+01 2.0000004187e+01 2.8035e-01 0.0000e+00
      -11  1    4    4    0    0 -4.4614032006e-01 -1.4540272099e+00 +3.0454866569e+00 3.4041482857e+00 5.1100000000e-04 0.0000e+00 1.0000e+00
       11  1    4    4    0    0 -1.8816058845e+01 +7.3769119340e+00 +6.1687207666e+00 2.1130925591e+01 5.1100000000e-04 0.0000e+00 -1.0000e+00
       12  1    4    4    0    0 -1.2482212505e+01 +1.7484305482e+01 +8.8970865257e+00 2.3252198087e+01 0.0000000000e+00 0.0000e+00 -1.0000e+00
      -12  1    3    3    0    0 +3.1744411670e+01 -2.3407190206e+01 -1.8111293949e+01 4.3400728037e+01 0.0000000000e+00 0.0000e+00 1.0000e+00
</event>
<event>
 8      4 +3.7482383e-04 9.11880000e+01 7.81616400e-03 1.18400000e-01
      -11 -1    0    0    0    0 +0.0000000000e+00 +0.0000000000e+00 +4.5593999997e+01 4.5594000000e+01 5.1100000000e-04 0.0000e+00 1.0000e+00
       11 -1    0    0    0    0 -0.0000000000e+00 -0.0000000000e+00 -4.5593999997e+01 4.5594000000e+01 5.1100000000e-04 0.0000e+00 -1.0000e+00
       23  2    1    2    0    0 +0.0000000000e+00 +4.4408920985e-16 +0.0000000000e+00 9.1188000000e+01 9.1188000000e+01 1.2982e-14 0.0000e+00
 -9990012  2    3    3    0    0 -1.7780600590e+01 -2.5938878767e+00 +3.9506268086e+01 4.7787271553e+01 2.0000002318e+01 4.5184e-02 0.0000e+00
      -11  1    4    4    0    0 -1.2187790293e+01 -8.1379594940e+00 +1.7535283816e+01 2.2852894691e+01 5.1100000000e-04 0.0000e+00 1.0000e+00
       11  1    4    4    0    0 +1.5570488692e+00 +1.4345899458e+00 +8.8793140989e-01 2.2958379611e+00 5.1100000000e-04 0.0000e+00 -1.0000e+00
      -12  1    4    4    0    0 -7.1498591667e+00 +4.1094816714e+00 +2.1083052859e+01 2.2638538901e+01 0.0000000000e+00 0.0000e+00 1.0000e+00
       12  1    3    3    0    0 +1.7780600590e+01 +2.5938878767e+00 -3.9506268086e+01 4.3400728447e+01 0.0000000000e+00 0.0000e+00 -1.0000e+00
</event>
<event>
 8      3 +3.7482383e-04 9.11880000e+01 7.81616400e-03 1.18400000e-01
      -11 -1    0    0    0    0 +0.0000000000e+00 +0.0000000000e+00 +4.5593999997e+01 4.5594000000e+01 5.1100000000e-04 0.0000e+00 1.0000e+00
       11 -1    0    0    0    0 -0.0000000000e+00 -0.0000000000e+00 -4.5593999997e+01 4.5594000000e+01 5.1100000000e-04 0.0000e+00 -1.0000e+00
       23  2    1    2    0    0 -3.5527136788e-15 -8.8817841970e-16 +0.0000000000e+00 9.1188000000e+01 9.1188000000e+01 9.0455e-14 0.0000e+00
  9990012  2    3    3    0    0 +1.6152467454e+01 +7.2661392624e+00 -3.9622268543e+01 4.7787272481e+01 2.0000006552e+01 1.7538e-01 0.0000e+00
      -11  1    4    4    0    0 +1.8401308575e-02 +9.2063595998e-01 -5.8036003991e+00 5.8761966469e+00 5.1100000000e-04 0.0000e+00 1.0000e+00
       11  1    4    4    0    0 +1.6846559844e+01 +7.9777776131e+00 -1.7734691356e+01 2.5728793053e+01 5.1100000000e-04 0.0000e+00 -1.0000e+00
       12  1    4    4    0    0 -7.1249369866e-01 -1.6322743108e+00 -1.6083976789e+01 1.6182282782e+01 0.0000000000e+00 0.0000e+00 -1.0000e+00
      -12  1    3    3    0    0 -1.6152467454e+01 -7.2661392624e+00 +3.9622268543e+01 4.3400727519e+01 0.0000000000e+00 0.0000e+00 1.0000e+00
</event>
<event>
 8      3 +3.7482383e-04 9.11880000e+01 7.81616400e-03 1.18400000e-01
      -11 -1    0    0    0    0 +0.0000000000e+00 +0.0000000000e+00 +4.5593999997e+01 4.5594000000e+01 5.1100000000e-04 0.0000e+00 1.0000e+00
       11 -1    0    0    0    0 -0.0000000000e+00 -0.0000000000e+00 -4.5593999997e+01 4.5594000000e+01 5.1100000000e-04 0.0000e+00 -1.0000e+00
       23  2    1    2    0    0 -3.5527136788e-15 +0.0000000000e+00 +0.0000000000e+00 9.1188000000e+01 9.1188000000e+01 1.2796e-13 0.0000e+00
  9990012  2    3    3    0    0 -3.1002667382e+01 +2.9417167580e+00 -3.0229183723e+01 4.7787278453e+01 2.0000033777e+01 2.0090e-01 0.0000e+00
      -11  1    4    4    0    0 -1.9780050912e+00 -2.1622899764e+00 +2.0128718353e-01 2.9374340629e+00 5.1100000000e-04 0.0000e+00 1.0000e+00
       11  1    4    4    0    0 -2.2856907731e+01 +2.0360879471e+00 -1.3625509950e+01 2.6687795090e+01 5.1100000000e-04 0.0000e+00 -1.0000e+00
       12  1    4    4    0    0 -6.1677545600e+00 +3.0679187873e+00 -1.6804960957e+01 1.8162049299e+01 0.0000000000e+00 0.0000e+00 -1.0000e+00
      -12  1    3    3    0    0 +3.1002667382e+01 -2.9417167580e+00 +3.0229183723e+01 4.3400721547e+01 0.0000000000e+00 0.0000e+00 1.0000e+00
</event>
<event>
 8      3 +3.7482383e-04 9.11880000e+01 7.81616400e-03 1.18400000e-01
      -11 -1    0    0    0    0 +0.0000000000e+00 +0.0000000000e+00 +4.5593999997e+01 4.5594000000e+01 5.1100000000e-04 0.0000e+00 1.0000e+00
       11 -1    0    0    0    0 -0.0000000000e+00 -0.0000000000e+00 -4.5593999997e+01 4.5594000000e+01 5.1100000000e-04 0.0000e+00 -1.0000e+00
       23  2    1    2    0    0 -3.5527136788e-15 +2.2204460493e-16 +0.0000000000e+00 9.1188000000e+01 9.1188000000e+01 2.6671e-13 0.0000e+00
  9990012  2    3    3    0    0 +2.7745222455e+01 -1.2796084732e+00 -3.3349488415e+01 4.7787272536e+01 2.0000006800e+01 2.3761e-02 0.0000e+00
      -11  1    4    4    0    0 +4.0185910263e+00 -4.6916511628e+00 -4.6337405499e+00 7.7221898588e+00 5.1100000000e-04 0.0000e+00 1.0000e+00
       11  1    4    4    0    0 +2.9220569989e+00 +6.1183167325e+00 -9.0595583446e+00 1.1315821420e+01 5.1100000000e-04 0.0000e+00 -1.0000e+00
       12  1    4    4    0    0 +2.0804574429e+01 -2.7062740428e+00 -1.9656189520e+01 2.8749261257e+01 0.0000000000e+00 0.0000e+00 -1.0000e+00
      -12  1    3    3    0    0 -2.7745222455e+01 +1.2796084732e+00 +3.3349488415e+01 4.3400727464e+01 0.0000000000e+00 0.0000e+00 1.0000e+00
</event>
<event>
 8      4 +3.7482383e-04 9.11880000e+01 7.81616400e-03 1.18400000e-01
      -11 -1    0    0    0    0 +0.0000000000e+00 +0.0000000000e+00 +4.5593999997e+01 4.5594000000e+01 5.1100000000e-04 0.0000e+00 1.0000e+00
       11 -1    0    0    0    0 -0.0000000000e+00 -0.0000000000e+00 -4.5593999997e+01 4.5594000000e+01 5.1100000000e-04 0.0000e+00 -1.0000e+00
       23  2    1    2    0    0 +0.0000000000e+00 +0.0000000000e+00 +0.0000000000e+00 9.1188000000e+01 9.1188000000e+01 5.4453e-14 0.0000e+00
 -9990012  2    3    3    0    0 -3.0682260024e+01 +2.4571218614e+01 +1.8397755281e+01 4.7787271161e+01 2.0000000531e+01 2.9113e-03 0.0000e+00
      -11  1    4    4    0    0 -1.9632634955e+01 +2.2189877951e+01 +8.0510294428e+00 3.0702607611e+01 5.1100000000e-04 0.0000e+00 1.0000e+00
       11  1    4    4    0    0 -7.0764649556e+00 +1.4436474585e+00 +1.5497546972e+00 7.3866240012e+00 5.1100000000e-04 0.0000e+00 -1.0000e+00
      -12  1    4    4    0    0 -3.9731601143e+00 +9.3769320436e-01 +8.7969711408e+00 9.6980395489e+00 0.0000000000e+00 0.0000e+00 1.0000e+00
       12  1    3    3    0    0 +3.0682260024e+01 -2.4571218614e+01 -1.8397755281e+01 4.3400728839e+01 0.0000000000e+00 0.0000e+00 -1.0000e+00
</event>
<event>
 8      3 +3.7482383e-04 9.11880000e+01 7.81616400e-03 1.18400000e-01
      -11 -1    0    0    0    0 +0.0000000000e+00 +0.0000000000e+00 +4.5593999997e+01 4.5594000000e+01 5.1100000000e-04 0.0000e+00 1.0000e+00
       11 -1    0    0    0    0 -0.0000000000e+00 -0.0000000000e+00 -4.5593999997e+01 4.5594000000e+01 5.1100000000e-04 0.0000e+00 -1.0000e+00
       23  2    1    2    0    0 +0.0000000000e+00 +0.0000000000e+00 +2.2204460493e-16 9.1188000000e+01 9.1188000000e+01 2.2718e-14 0.0000e+00
  9990012  2    3    3    0    0 -3.2430746627e+01 -2.8790916149e+01 -1.7184864905e+00 4.7787269876e+01 1.9999994671e+01 9.7476e-02 0.0000e+00
      -11  1    4    4    0    0 -1.4603225514e+00 -3.5514741172e+00 +3.5181141522e+00 5.2079398814e+00 5.1100000000e-04 0.0000e+00 1.0000e+00
       11  1    4    4    0    0 -2.9822581371e+01 -2.4736399023e+01 -1.6514828880e+00 3.8781480016e+01 5.1100000000e-04 0.0000e+00 -1.0000e+00
       12  1    4    4    0    0 -1.1478427047e+00 -5.0304300946e-01 -3.5851177546e+00 3.7978499784e+00 0.0000000000e+00 0.0000e+00 -1.0000e+00
      -12  1    3    3    0    0 +3.2430746627e+01 +2.8790916149e+01 +1.7184864905e+00 4.3400730124e+01 0.0000000000e+00 0.0000e+00 1.0000e+00
</event>
<event>
 8      3 +3.7482383e-04 9.11880000e+01 7.81616400e-03 1.18400000e-01
      -11 -1    0    0    0    0 +0.0000000000e+00 +0.0000000000e+00 +4.5593999997e+01 4.5594000000e+01 5.1100000000e-04 0.0000e+00 1.0000e+00
       11 -1    0    0    0    0 -0.0000000000e+00 -0.0000000000e+00 -4.5593999997e+01 4.5594000000e+01 5.1100000000e-04 0.0000e+00 -1.0000e+00
       23  2    1    2    0    0 +0.0000000000e+00 +0.0000000000e+00 +0.0000000000e+00 9.1188000000e+01 9.1188000000e+01 1.1563e-14 0.0000e+00
  9990012  2    3    3    0    0 -1.3658742508e+01 -3.0950707903e+01 -2.7186679774e+01 4.7787272774e+01 2.0000007886e+01 6.2119e-01 0.0000e+00
      -11  1    4    4    0    0 -4.3122988860e+00 +1.0500727230e+00 -3.4464291553e+00 5.6192925346e+00 5.1100000000e-04 0.0000e+00 1.0000e+00
       11  1    4    4    0    0 -4.4502553156e+00 -1.3448193819e+01 -4.1835912187e+00 1.4770278437e+01 5.1100000000e-04 0.0000e+00 -1.0000e+00
       12  1    4    4    0    0 -4.8961883066e+00 -1.8552586807e+01 -1.9556659400e+01 2.7397701802e+01 0.0000000000e+00 0.0000e+00 -1.0000e+00
      -12  1    3    3    0    0 +1.3658742508e+01 +3.0950707903e+01 +2.7186679774e+01 4.3400727226e+01 0.0000000000e+00 0.0000e+00 1.0000e+00
</event>
<event>
 8      3 +3.7482383e-04 9.11880000e+01 7.81616400e-03 1.18400000e-01
      -11 -1    0    0    0    0 +0.0000000000e+00 +0.0000000000e+00 +4.5593999997e+01 4.5594000000e+01 5.1100000000e-04 0.0000e+00 -1.0000e+00
       11 -1    0    0    0    0 -0.0000000000e+00 -0.0000000000e+00 -4.5593999997e+01 4.5594000000e+01 5.1100000000e-04 0.0000e+00 1.0000e+00
       23  2    1    2    0    0 +0.0000000000e+00 -1.7763568394e-15 +0.0000000000e+00 9.1188000000e+01 9.1188000000e+01 5.3201e-14 0.0000e+00
  9990012  2    3    3    0    0 -1.7602813039e+01 +1.0148556864e+01 +3.8350631881e+01 4.7787271908e+01 2.0000003936e+01 2.4215e-01 0.0000e+00
      -11  1    4    4    0    0 -4.0987902234e+00 -1.9540517007e+00 +1.5588765292e+00 4.8008848808e+00 5.1100000000e-04 0.0000e+00 1.0000e+00
       11  1    4    4    0    0 +5.2621439784e-01 +6.4097938179e+00 +1.6177285901e+01 1.7408817817e+01 5.1100000000e-04 0.0000e+00 -1.0000e+00
       12  1    4    4    0    0 -1.4030237213e+01 +5.6928147464e+00 +2.0614469450e+01 2.5577569210e+01 0.0000000000e+00 0.0000e+00 -1.0000e+00
      -12  1    3    3    0    0 +1.7602813039e+01 -1.0148556864e+01 -3.8350631881e+01 4.3400728092e+01 0.0000000000e+00 0.0000e+00 1.0000e+00
</event>
<event>
 8      3 +3.7482383e-04 9.11880000e+01 7.81616400e-03 1.18400000e-01
      -11 -1    0    0    0    0 +0.0000000000e+00 +0.0000000000e+00 +4.5593999997e+01 4.5594000000e+01 5.1100000000e-04 0.0000e+00 1.0000e+00
       11 -1    0    0    0    0 -0.0000000000e+00 -0.0000000000e+00 -4.5593999997e+01 4.5594000000e+01 5.1100000000e-04 0.0000e+00 -1.0000e+00
       23  2    1    2    0    0 +0.0000000000e+00 +0.0000000000e+00 -7.1054273576e-15 9.1188000000e+01 9.1188000000e+01 1.9040e-14 0.0000e+00
  9990012  2    3    3    0    0 +2.1834924384e+01 +7.8094616440e+00 -3.6686126091e+01 4.7787268882e+01 1.9999990138e+01 6.8445e-01 0.0000e+00
      -11  1    4    4    0    0 +9.2307221978e+00 +9.6370155806e+00 -2.6739326093e+01 2.9884274490e+01 5.1100000000e-04 0.0000e+00 -1.0000e+00
       11  1    4    4    0    0 -7.8079193046e-01 -6.6504165728e-01 -2.1175600568e+00 2.3528657633e+00 5.1100000000e-04 0.0000e+00 1.0000e+00
       12  1    4    4    0    0 +1.3384994117e+01 -1.1625122793e+00 -7.8292399411e+00 1.5550128629e+01 0.0000000000e+00 0.0000e+00 -1.0000e+00
      -12  1    3    3    0    0 -2.1834924384e+01 -7.8094616440e+00 +3.6686126091e+01 4.3400731118e+01 0.0000000000e+00 0.0000e+00 1.0000e+00
</event>
<event>
 8      3 +3.7482383e-04 9.11880000e+01 7.81616400e-03 1.18400000e-01
      -11 -1    0    0    0    0 +0.0000000000e+00 +0.0000000000e+00 +4.5593999997e+01 4.5594000000e+01 5.1100000000e-04 0.0000e+00 -1.0000e+00
       11 -1    0    0    0    0 -0.0000000000e+00 -0.0000000000e+00 -4.5593999997e+01 4.5594000000e+01 5.1100000000e-04 0.0000e+00 1.0000e+00
       23  2    1    2    0    0 +0.0000000000e+00 +0.0000000000e+00 +0.0000000000e+00 9.1188000000e+01 9.1188000000e+01 2.0702e-14 0.0000e+00
  9990012  2    3    3    0    0 -3.4882840238e+01 +2.5794471888e+01 +1.2066190753e+00 4.7787271289e+01 2.0000001116e+01 1.7921e-01 0.0000e+00
      -11  1    4    4    0    0 -4.4106841619e+00 -2.6000146604e+00 +6.2500973239e-01 5.1579887977e+00 5.1100000000e-04 0.0000e+00 1.0000e+00
       11  1    4    4    0    0 -1.5860910340e+00 +5.5227457956e+00 +6.6745914963e-01 5.7846268564e+00 5.1100000000e-04 0.0000e+00 -1.0000e+00
       12  1    4    4    0    0 -2.8886065042e+01 +2.2871740753e+01 -8.5849806735e-02 3.6844655635e+01 0.0000000000e+00 0.0000e+00 -1.0000e+00
      -12  1    3    3    0    0 +3.4882840238e+01 -2.5794471888e+01 -1.2066190753e+00 4.3400728711e+01 0.0000000000e+00 0.0000e+00 1.0000e+00
</event>
<event>
 8      3 +3.7482383e-04 9.11880000e+01 7.81616400e-03 1.18400000e-01
      -11 -1    0    0    0    0 +0.0000000000e+00 +0.0000000000e+00 +4.5593999997e+01 4.5594000000e+01 5.1100000000e-04 0.0000e+00 -1.0000e+00
       11 -1    0    0    0    0 -0.0000000000e+00 -0.0000000000e+00 -4.5593999997e+01 4.5594000000e+01 5.1100000000e-04 0.0000e+00 1.0000e+00
       23  2    1    2    0    0 +0.0000000000e+00 +2.2204460493e-16 +0.0000000000e+00 9.1188000000e+01 9.1188000000e+01 1.2550e-13 0.0000e+00
  9990012  2    3    3    0    0 +3.8109422043e+01 -1.4082130668e+00 -2.0719848393e+01 4.7787271551e+01 2.0000002309e+01 5.4500e-02 0.0000e+00
      -11  1    4    4    0    0 +1.7597211167e+01 -2.6397598402e+00 -1.5066787708e+01 2.3316051659e+01 5.1100000000e-04 0.0000e+00 1.0000e+00
       11  1    4    4    0    0 -2.0153307630e-01 +2.4228924873e+00 +1.0768462948e+00 2.6590640815e+00 5.1100000000e-04 0.0000e+00 -1.0000e+00
       12  1    4    4    0    0 +2.0713743952e+01 -1.1913457139e+00 -6.7299069796e+00 2.1812155810e+01 0.0000000000e+00 0.0000e+00 -1.0000e+00
      -12  1    3    3    0    0 -3.8109422043e+01 +1.4082130668e+00 +2.0719848393e+01 4.3400728449e+01 0.0000000000e+00 0.0000e+00 1.0000e+00
</event>
<event>
 8      4 +3.7482383e-04 9.11880000e+01 7.81616400e-03 1.18400000e-01
      -11 -1    0    0    0    0 +0.0000000000e+00 +0.0000000000e+00 +4.5593999997e+01 4.5594000000e+01 5.1100000000e-04 0.0000e+00 1.0000e+00
       11 -1    0    0    0    0 -0.0000000000e+00 -0.0000000000e+00 -4.5593999997e+01 4.5594000000e+01 5.1100000000e-04 0.0000e+00 -1.0000e+00
       23  2    1    2    0    0 +0.0000000000e+00 +0.0000000000e+00 +0.0000000000e+00 9.1188000000e+01 9.1188000000e+01 3.1232e-13 0.0000e+00
 -9990012  2    3    3    0    0 +2.0884456569e+01 -3.6031224403e+01 +1.2215301757e+01 4.7787271260e+01 2.0000000981e+01 3.7939e-02 0.0000e+00
      -11  1    4    4    0    0 -1.6162676521e+00 -3.1957810982e+00 +1.5839570255e+00 3.9158981180e+00 5.1100000000e-04 0.0000e+00 -1.0000e+00
       11  1    4    4    0    0 +1.3247289896e+01 -6.7451554136e+00 +3.1524024750e+00 1.5196231532e+01 5.1100000000e-04 0.0000e+00 1.0000e+00
      -12  1    4    4    0    0 +9.2534343251e+00 -2.6090287891e+01 +7.4789422567e+00 2.8675141610e+01 0.0000000000e+00 0.0000e+00 1.0000e+00
       12  1    3    3    0    0 -2.0884456569e+01 +3.6031224403e+01 -1.2215301757e+01 4.3400728740e+01 0.0000000000e+00 0.0000e+00 -1.0000e+00
</event>
<event>
 8      4 +3.7482383e-04 9.11880000e+01 7.81616400e-03 1.18400000e-01
      -11 -1    0    0    0    0 +0.0000000000e+00 +0.0000000000e+00 +4.5593999997e+01 4.5594000000e+01 5.1100000000e-04 0.0000e+00 1.0000e+00
       11 -1    0    0    0    0 -0.0000000000e+00 -0.0000000000e+00 -4.5593999997e+01 4.5594000000e+01 5.1100000000e-04 0.0000e+00 -1.0000e+00
       23  2    1    2    0    0 +1.7763568394e-15 +0.0000000000e+00 -3.5527136788e-15 9.1188000000e+01 9.1188000000e+01 2.7265e-14 0.0000e+00
 -9990012  2    3    3    0    0 +8.1715531672e+00 +3.3160274499e+01 +2.6781429615e+01 4.7787273529e+01 2.0000011328e+01 3.4396e-01 0.0000e+00
      -11  1    4    4    0    0 -3.6499604913e+00 +1.5306471747e+01 +7.6389854496e+00 1.7491837751e+01 5.1100000000e-04 0.0000e+00 1.0000e+00
       11  1    4    4    0    0 +1.6790342597e+00 -3.8629604372e-01 +4.4506951834e+00 4.7725327192e+00 5.1100000000e-04 0.0000e+00 -1.0000e+00
      -12  1    4    4    0    0 +1.0142479399e+01 +1.8240098795e+01 +1.4691748982e+01 2.5522903059e+01 0.0000000000e+00 0.0000e+00 1.0000e+00
       12  1    3    3    0    0 -8.1715531672e+00 -3.3160274499e+01 -2.6781429615e+01 4.3400726471e+01 0.0000000000e+00 0.0000e+00 -1.0000e+00
</event>
<event>
 8      3 +3.7482383e-04 9.11880000e+01 7.81616400e-03 1.18400000e-01
      -11 -1    0    0    0    0 +0.0000000000e+00 +0.0000000000e+00 +4.5593999997e+01 4.5594000000e+01 5.1100000000e-04 0.0000e+00 1.0000e+00
       11 -1    0    0    0    0 -0.0000000000e+00 -0.0000000000e+00 -4.5593999997e+01 4.5594000000e+01 5.1100000000e-04 0.0000e+00 -1.0000e+00
       23  2    1    2    0    0 +0.0000000000e+00 +0.0000000000e+00 -8.8817841970e-16 9.1188000000e+01 9.1188000000e+01 3.1602e-14 0.0000e+00
  9990012  2    3    3    0    0 +4.2588778917e+01 +6.4785480702e+00 +5.2771273889e+00 4.7787265580e+01 1.9999975086e+01 2.0178e-02 0.0000e+00
      -11  1    4    4    0    0 -8.7088593044e-01 +4.6984270477e-02 +2.0628121050e+00 2.2396079718e+00 5.1100000000e-04 0.0000e+00 1.0000e+00
       11  1    4    4    0    0 +1.3623518809e+01 +6.7339034632e-01 +6.2612595188e+00 1.5008567231e+01 5.1100000000e-04 0.0000e+00 -1.0000e+00
       12  1    4    4    0    0 +2.9836146038e+01 +5.7581734534e+00 -3.0469442349e+00 3.0539090377e+01 0.0000000000e+00 0.0000e+00 -1.0000e+00
      -12  1    3    3    0    0 -4.2588778917e+01 -6.4785480702e+00 -5.2771273889e+00 4.3400734420e+01 0.0000000000e+00 0.0000e+00 1.0000e+00
</event>
<event>
 8      4 +3.7482383e-04 9.11880000e+01 7.81616400e-03 1.18400000e-01
      -11 -1    0    0    0    0 +0.0000000000e+00 +0.0000000000e+00 +4.5593999997e+01 4.5594000000e+01 5.1100000000e-04 0.0000e+00 1.0000e+00
       11 -1    0    0    0    0 -0.0000000000e+00 -0.0000000000e+00 -4.5593999997e+01 4.5594000000e+01 5.1100000000e-04 0.0000e+00 -1.0000e+00
       23  2    1    2    0    0 +0.0000000000e+00 +0.0000000000e+00 +0.0000000000e+00 9.1188000000e+01 9.1188000000e+01 7.9424e-14 0.0000e+00
 -9990012  2    3    3    0    0 -3.6694265015e+01 +1.0995571130e+01 +2.0402252350e+01 4.7787267628e+01 1.9999984422e+01 7.6758e-02 0.0000e+00
      -11  1    4    4    0    0 -2.2439981686e+01 +6.6941598220e+00 +1.5935596351e+01 2.8325038131e+01 5.1100000000e-04 0.0000e+00 1.0000e+00
       11  1    4    4    0    0 -5.1412683346e+00 -1.2975035060e+00 +6.6915239174e+00 8.5377191354e+00 5.1100000000e-04 0.0000e+00 -1.0000e+00
      -12  1    4    4    0    0 -9.1130149942e+00 +5.5989148140e+00 -2.2248679183e+00 1.0924510361e+01 0.0000000000e+00 0.0000e+00 1.0000e+00
       12  1    3    3    0    0 +3.6694265015e+01 -1.0995571130e+01 -2.0402252350e+01 4.3400732372e+01 0.0000000000e+00 0.0000e+00 -1.0000e+00
</event>
<event>
 8      4 +3.7482383e-04 9.11880000e+01 7.81616400e-03 1.18400000e-01
      -11 -1    0    0    0    0 +0.0000000000e+00 +0.0000000000e+00 +4.5593999997e+01 4.5594000000e+01 5.1100000000e-04 0.0000e+00 -1.0000e+00
       11 -1    0    0    0    0 -0.0000000000e+00 -0.0000000000e+00 -4.5593999997e+01 4.5594000000e+01 5.1100000000e-04 0.0000e+00 1.0000e+00
       23  2    1    2    0    0 +0.0000000000e+00 -2.2204460493e-16 +7.1054273576e-15 9.1188000000e+01 9.1188000000e+01 8.8607e-14 0.0000e+00
 -9990012  2    3    3    0    0 -1.7987724742e+01 -1.1554732578e+00 -3.9480754084e+01 4.7787270710e+01 1.9999998476e+01 4.2112e-02 0.0000e+00
      -11  1    4    4    0    0 -2.7240332533e+00 +2.5604709345e+00 -3.5470734074e+00 5.1534550149e+00 5.1100000000e-04 0.0000e+00 1.0000e+00
       11  1    4    4    0    0 -1.4103996733e+01 -7.9389465721e+00 -1.8146851258e+01 2.4315793373e+01 5.1100000000e-04 0.0000e+00 -1.0000e+00
      -12  1    4    4    0    0 -1.1596947550e+00 +4.2230023799e+00 -1.7786829419e+01 1.8318022322e+01 0.0000000000e+00 0.0000e+00 1.0000e+00
       12  1    3    3    0    0 +1.7987724742e+01 +1.1554732578e+00 +3.9480754084e+01 4.3400729290e+01 0.0000000000e+00 0.0000e+00 -1.0000e+00
</event>
<event>
 8      3 +3.7482383e-04 9.11880000e+01 7.81616400e-03 1.18400000e-01
      -11 -1    0    0    0    0 +0.0000000000e+00 +0.0000000000e+00 +4.5593999997e+01 4.5594000000e+01 5.1100000000e-04 0.0000e+00 -1.0000e+00
       11 -1    0    0    0    0 -0.0000000000e+00 -0.0000000000e+00 -4.5593999997e+01 4.5594000000e+01 5.1100000000e-04 0.0000e+00 1.0000e+00
       23  2    1    2    0    0 +0.0000000000e+00 -3.5527136788e-15 +0.0000000000e+00 9.1188000000e+01 9.1188000000e+01 1.1116e-13 0.0000e+00
  9990012  2    3    3    0    0 +2.2859706074e+01 -2.5604124805e+01 +2.6560986600e+01 4.7787269846e+01 1.9999994534e+01 2.7446e-01 0.0000e+00
      -11  1    4    4    0    0 +2.0881555509e+00 -2.0492443130e+00 +5.1011001010e+00 5.8805627588e+00 5.1100000000e-04 0.0000e+00 1.0000e+00
       11  1    4    4    0    0 +1.1898653466e+01 -1.2260215015e+00 +6.7667415362e+00 1.3742993644e+01 5.1100000000e-04 0.0000e+00 -1.0000e+00
       12  1    4    4    0    0 +8.8728970568e+00 -2.2328858990e+01 +1.4693144963e+01 2.8163713443e+01 0.0000000000e+00 0.0000e+00 -1.0000e+00
      -12  1    3    3    0    0 -2.2859706074e+01 +2.5604124805e+01 -2.6560986600e+01 4.3400730154e+01 0.0000000000e+00 0.0000e+00 1.0000e+00
</event>
<event>
 8      3 +3.7482383e-04 9.11880000e+01 7.81616400e-03 1.18400000e-01
      -11 -1    0    0    0    0 +0.0000000000e+00 +0.0000000000e+00 +4.5593999997e+01 4.5594000000e+01 5.1100000000e-04 0.0000e+00 1.0000e+00
       11 -1    0    0    0    0 -0.0000000000e+00 -0.0000000000e+00 -4.5593999997e+01 4.5594000000e+01 5.1100000000e-04 0.0000e+00 -1.0000e+00
       23  2    1    2    0    0 +0.0000000000e+00 -3.5527136788e-15 +0.0000000000e+00 9.1188000000e+01 9.1188000000e+01 4.4720e-14 0.0000e+00
  9990012  2    3    3    0    0 +3.0036803084e+01 +2.0793173938e+01 +2.3431983237e+01 4.7787268896e+01 1.9999990204e+01 9.1624e-03 0.0000e+00
      -11  1    4    4    0    0 -3.9485040387e-01 -1.3539749440e+00 +4.1738790722e-01 1.4708391879e+00 5.1100000000e-04 0.0000e+00 1.0000e+00
       11  1    4    4    0    0 +1.7145565948e+01 +9.3594920023e+00 +4.2165571100e+00 1.9983740299e+01 5.1100000000e-04 0.0000e+00 -1.0000e+00
       12  1    4    4    0    0 +1.3286087541e+01 +1.2787656879e+01 +1.8798038220e+01 2.6332689409e+01 0.0000000000e+00 0.0000e+00 -1.0000e+00
      -12  1    3    3    0    0 -3.0036803084e+01 -2.0793173938e+01 -2.3431983237e+01 4.3400731104e+01 0.0000000000e+00 0.0000e+00 1.0000e+00
</event>
<event>
 8      4 +3.7482383e-04 9.11880000e+01 7.81616400e-03 1.18400000e-01
      -11 -1    0    0    0    0 +0.0000000000e+00 +0.0000000000e+00 +4.5593999997e+01 4.5594000000e+01 5.1100000000e-04 0.0000e+00 1.0000e+00
       11 -1    0    0    0    0 -0.0000000000e+00 -0.0000000000e+00 -4.5593999997e+01 4.5594000000e+01 5.1100000000e-04 0.0000e+00 -1.0000e+00
       23  2    1    2    0    0 +0.0000000000e+00 -3.5527136788e-15 +3.5527136788e-15 9.1188000000e+01 9.1188000000e+01 1.3668e-14 0.0000e+00
 -9990012  2    3    3    0    0 +1.6008031901e+01 +2.7502049698e+01 +2.9512769405e+01 4.7787269812e+01 1.9999994381e+01 8.6503e-02 0.0000e+00
      -11  1    4    4    0    0 +7.6330369291e+00 +1.0052153290e+01 +9.5660305264e-01 1.2657966985e+01 5.1100000000e-04 0.0000e+00 1.0000e+00
       11  1    4    4    0    0 +6.1320159923e-01 +3.9721324386e+00 +1.0805859183e+01 1.1529112943e+01 5.1100000000e-04 0.0000e+00 -1.0000e+00
      -12  1    4    4    0    0 +7.7617933722e+00 +1.3477763969e+01 +1.7750307169e+01 2.3600189884e+01 0.0000000000e+00 0.0000e+00 1.0000e+00
       12  1    3    3    0    0 -1.6008031901e+01 -2.7502049698e+01 -2.9512769405e+01 4.3400730188e+01 0.0000000000e+00 0.0000e+00 -1.0000e+00
</event>
<event>
 8      3 +3.7482383e-04 9.11880000e+01 7.81616400e-03 1.18400000e-01
      -11 -1    0    0    0    0 +0.0000000000e+00 +0.0000000000e+00 +4.5593999997e+01 4.5594000000e+01 5.1100000000e-04 0.0000e+00 -1.0000e+00
       11 -1    0    0    0    0 -0.0000000000e+00 -0.0000000000e+00 -4.5593999997e+01 4.5594000000e+01 5.1100000000e-04 0.0000e+00 1.0000e+00
       23  2    1    2    0    0 +0.0000000000e+00 +0.0000000000e+00 +0.0000000000e+00 9.1188000000e+01 9.1188000000e+01 2.1666e-13 0.0000e+00
  9990012  2    3    3    0    0 +1.8602840330e+01 +2.0947950202e+01 +3.3147262022e+01 4.7787271141e+01 2.0000000438e+01 2.1387e-01 0.0000e+00
      -11  1    4    4    0    0 +1.0999606526e+00 -1.6738630914e+00 +2.9011902999e+00 3.5254271377e+00 5.1100000000e-04 0.0000e+00 1.0000e+00
       11  1    4    4    0    0 -1.4215739710e-01 +1.0373446359e+01 +6.5005051050e+00 1.2242759696e+01 5.1100000000e-04 0.0000e+00 -1.0000e+00
       12  1    4    4    0    0 +1.7645037074e+01 +1.2248366934e+01 +2.3745566617e+01 3.2019084307e+01 0.0000000000e+00 0.0000e+00 -1.0000e+00
      -12  1    3    3    0    0 -1.8602840330e+01 -2.0947950202e+01 -3.3147262022e+01 4.3400728859e+01 0.0000000000e+00 0.0000e+00 1.0000e+00
</event>
<event>
 8      3 +3.7482383e-04 9.11880000e+01 7.81616400e-03 1.18400000e-01
      -11 -1    0    0    0    0 +0.0000000000e+00 +0.0000000000e+00 +4.5593999997e+01 4.5594000000e+01 5.1100000000e-04 0.0000e+00 -1.0000e+00
       11 -1    0    0    0    0 -0.0000000000e+00 -0.0000000000e+00 -4.5593999997e+01 4.5594000000e+01 5.1100000000e-04 0.0000e+00 1.0000e+00
       23  2    1    2    0    0 +3.5527136788e-15 -1.4432899320e-15 +0.0000000000e+00 9.1188000000e+01 9.1188000000e+01 1.7063e-14 0.0000e+00
  9990012  2    3    3    0    0 -1.6062856130e+01 +7.8232144827e-01 +4.0311250939e+01 4.7787258921e+01 1.9999944725e+01 3.1364e-01 0.0000e+00
      -11  1    4    4    0    0 -5.8508839492e-01 +1.3734729590e+00 +7.7334288793e-01 1.6813137370e+00 5.1100000000e-04 0.0000e+00 1.0000e+00
       11  1    4    4    0    0 +2.2273740370e+00 -4.9603995063e+00 +1.0295534417e+01 1.1643229258e+01 5.1100000000e-04 0.0000e+00 -1.0000e+00
       12  1    4    4    0    0 -1.7705141772e+01 +4.3692479956e+00 +2.9242373635e+01 3.4462715926e+01 0.0000000000e+00 0.0000e+00 -1.0000e+00
      -12  1    3    3    0    0 +1.6062856130e+01 -7.8232144827e-01 -4.0311250939e+01 4.3400741079e+01 0.0000000000e+00 0.0000e+00 1.0000e+00
</event>
<event>
 8      4 +3.7482383e-04 9.11880000e+01 7.81616400e-03 1.18400000e-01
      -11 -1    0    0    0    0 +0.0000000000e+00 +0.0000000000e+00 +4.5593999997e+01 4.5594000000e+01 5.1100000000e-04 0.0000e+00 -1.0000e+00
       11 -1    0    0    0    0 -0.0000000000e+00 -0.0000000000e+00 -4.5593999997e+01 4.5594000000e+01 5.1100000000e-04 0.0000e+00 1.0000e+00
       23  2    1    2    0    0 +7.1054273576e-15 +1.1102230246e-16 +8.8817841970e-16 9.1188000000e+01 9.1188000000e+01 1.6363e-13 0.0000e+00
 -9990012  2    3    3    0    0 +4.2994275408e+01 -9.5990258387e-02 +5.9251089386e+00 4.7787264431e+01 1.9999969849e+01 4.0994e-02 0.0000e+00
      -11  1    4    4    0    0 +9.7554047268e+00 +4.2704709385e+00 -9.7671176317e-01 1.0693867848e+01 5.1100000000e-04 0.0000e+00 1.0000e+00
       11  1    4    4    0    0 +4.6809834554e+00 -8.4223179890e-01 +6.8250281240e+00 8.3187721250e+00 5.1100000000e-04 0.0000e+00 -1.0000e+00
      -12  1    4    4    0    0 +2.8557887225e+01 -3.5242293979e+00 +7.6792577780e-02 2.8774624459e+01 0.0000000000e+00 0.0000e+00 1.0000e+00
       12  1    3    3    0    0 -4.2994275408e+01 +9.5990258387e-02 -5.9251089386e+00 4.3400735569e+01 0.0000000000e+00 0.0000e+00 -1.0000e+00
</event>
<event>
 8      4 +3.7482383e-04 9.11880000e+01 7.81616400e-03 1.18400000e-01
      -11 -1    0    0    0    0 +0.0000000000e+00 +0.0000000000e+00 +4.5593999997e+01 4.5594000000e+01 5.1100000000e-04 0.0000e+00 1.0000e+00
       11 -1    0    0    0    0 -0.0000000000e+00 -0.0000000000e+00 -4.5593999997e+01 4.5594000000e+01 5.1100000000e-04 0.0000e+00 -1.0000e+00
       23  2    1    2    0    0 +4.4408920985e-16 +0.0000000000e+00 +0.0000000000e+00 9.1188000000e+01 9.1188000000e+01 1.0056e-13 0.0000e+00
 -9990012  2    3    3    0    0 -3.3636758873e+00 -4.2448408854e+01 +8.3929255258e+00 4.7787275023e+01 2.0000018139e+01 2.8094e-01 0.0000e+00
      -11  1    4    4    0    0 +4.0914883979e+00 -1.4576635737e+01 +8.2668204037e+00 1.7249895842e+01 5.1100000000e-04 0.0000e+00 1.0000e+00
       11  1    4    4    0    0 -5.1040434739e+00 -5.1076115249e+00 -2.1634824272e+00 7.5378784646e+00 5.1100000000e-04 0.0000e+00 -1.0000e+00
      -12  1    4    4    0    0 -2.3511208113e+00 -2.2764161592e+01 +2.2895875493e+00 2.2999500716e+01 0.0000000000e+00 0.0000e+00 1.0000e+00
       12  1    3    3    0    0 +3.3636758873e+00 +4.2448408854e+01 -8.3929255258e+00 4.3400724977e+01 0.0000000000e+00 0.0000e+00 -1.0000e+00
</event>
<event>
 8      3 +3.7482383e-04 9.11880000e+01 7.81616400e-03 1.18400000e-01
      -11 -1    0    0    0    0 +0.0000000000e+00 +0.0000000000e+00 +4.5593999997e+01 4.5594000000e+01 5.1100000000e-04 0.0000e+00 1.0000e+00
       11 -1    0    0    0    0 -0.0000000000e+00 -0.0000000000e+00 -4.5593999997e+01 4.5594000000e+01 5.1100000000e-04 0.0000e+00 -1.0000e+00
       23  2    1    2    0    0 +0.0000000000e+00 -1.7763568394e-15 +0.0000000000e+00 9.1188000000e+01 9.1188000000e+01 2.6822e-14 0.0000e+00
  9990012  2    3    3    0    0 +3.8158449120e+01 +1.5257610350e+01 -1.3955699353e+01 4.7787268932e+01 1.9999990368e+01 3.7073e-01 0.0000e+00
      -11  1    4    4    0    0 +7.0512291645e+00 +6.3829138187e+00 -3.1265905708e+00 1.0011842508e+01 5.1100000000e-04 0.0000e+00 1.0000e+00
       11  1    4    4    0    0 +2.3187069657e+01 -1.3370559609e+00 -7.8178040463e+00 2.4506039629e+01 5.1100000000e-04 0.0000e+00 -1.0000e+00
       12  1    4    4    0    0 +7.9201502985e+00 +1.0211752492e+01 -3.0113047362e+00 1.3269386795e+01 0.0000000000e+00 0.0000e+00 -1.0000e+00
      -12  1    3    3    0    0 -3.8158449120e+01 -1.5257610350e+01 +1.3955699353e+01 4.3400731068e+01 0.0000000000e+00 0.0000e+00 1.0000e+00
</event>
<event>
 8      3 +3.7482383e-04 9.11880000e+01 7.81616400e-03 1.18400000e-01
      -11 -1    0    0    0    0 +0.0000000000e+00 +0.0000000000e+00 +4.5593999997e+01 4.5594000000e+01 5.1100000000e-04 0.0000e+00 1.0000e+00
       11 -1    0    0    0    0 -0.0000000000e+00 -0.0000000000e+00 -4.5593999997e+01 4.5594000000e+01 5.1100000000e-04 0.0000e+00 -1.0000e+00
       23  2    1    2    0    0 -7.1054273576e-15 +0.0000000000e+00 +0.0000000000e+00 9.1188000000e+01 9.1188000000e+01 2.6716e-13 0.0000e+00
  9990012  2    3    3    0    0 +4.2872767216e+01 -4.5060788471e+00 -5.0244568642e+00 4.7787261733e+01 1.9999957544e+01 3.3442e-02 0.0000e+00
      -11  1    4    4    0    0 +8.9891722019e+00 -3.1247202361e+00 -4.2943638469e+00 1.0440816756e+01 5.1100000000e-04 0.0000e+00 1.0000e+00
       11  1    4    4    0    0 +2.9694975352e+01 -4.0817041347e+00 +4.2818676225e+00 3.0278478502e+01 5.1100000000e-04 0.0000e+00 -1.0000e+00
       12  1    4    4    0    0 +4.1886196623e+00 +2.7003455237e+00 -5.0119606398e+00 7.0679664740e+00 0.0000000000e+00 0.0000e+00 -1.0000e+00
      -12  1    3    3    0    0 -4.2872767216e+01 +4.5060788471e+00 +5.0244568642e+00 4.3400738267e+01 0.0000000000e+00 0.0000e+00 1.0000e+00
</event>
<event>
 8      3 +3.7482383e-04 9.11880000e+01 7.81616400e-03 1.18400000e-01
      -11 -1    0    0    0    0 +0.0000000000e+00 +0.0000000000e+00 +4.5593999997e+01 4.5594000000e+01 5.1100000000e-04 0.0000e+00 1.0000e+00
       11 -1    0    0    0    0 -0.0000000000e+00 -0.0000000000e+00 -4.5593999997e+01 4.5594000000e+01 5.1100000000e-04 0.0000e+00 -1.0000e+00
       23  2    1    2    0    0 +7.1054273576e-15 +0.0000000000e+00 -1.7763568394e-15 9.1188000000e+01 9.1188000000e+01 2.0779e-13 0.0000e+00
  9990012  2    3    3    0    0 +3.3874423227e+01 -2.6014350680e+01 -7.7071589619e+00 4.7787270864e+01 1.9999999178e+01 1.5232e-01 0.0000e+00
      -11  1    4    4    0    0 -8.8461575341e-01 -7.4530208812e-01 +1.4380736228e+00 1.8455558077e+00 5.1100000000e-04 0.0000e+00 1.0000e+00
       11  1    4    4    0    0 +7.8712225866e+00 -7.0224452024e+00 +3.4398958228e+00 1.1095213615e+01 5.1100000000e-04 0.0000e+00 -1.0000e+00
       12  1    4    4    0    0 +2.6887816394e+01 -1.8246603390e+01 -1.2585128407e+01 3.4846501441e+01 0.0000000000e+00 0.0000e+00 -1.0000e+00
      -12  1    3    3    0    0 -3.3874423227e+01 +2.6014350680e+01 +7.7071589619e+00 4.3400729136e+01 0.0000000000e+00 0.0000e+00 1.0000e+00
</event>
<event>
 8      3 +3.7482383e-04 9.11880000e+01 7.81616400e-03 1.18400000e-01
      -11 -1    0    0    0    0 +0.0000000000e+00 +0.0000000000e+00 +4.5593999997e+01 4.5594000000e+01 5.1100000000e-04 0.0000e+00 -1.0000e+00
       11 -1    0    0    0    0 -0.0000000000e+00 -0.0000000000e+00 -4.5593999997e+01 4.5594000000e+01 5.1100000000e-04 0.0000e+00 1.0000e+00
       23  2    1    2    0    0 +0.0000000000e+00 +0.0000000000e+00 +0.0000000000e+00 9.1188000000e+01 9.1188000000e+01 7.8282e-14 0.0000e+00
  9990012  2    3    3    0    0 -2.6962640176e+01 +3.1001725871e+01 +1.3983293919e+01 4.7787268658e+01 1.9999989119e+01 1.6994e-01 0.0000e+00
      -11  1    4    4    0    0 -4.9878927291e+00 +9.0700541129e+00 +3.1173804960e+00 1.0810319926e+01 5.1100000000e-04 0.0000e+00 1.0000e+00
       11  1    4    4    0    0 -1.1192766901e+01 +1.8177163422e+01 +1.3503454377e+01 2.5259267236e+01 5.1100000000e-04 0.0000e+00 -1.0000e+00
       12  1    4    4    0    0 -1.0781980546e+01 +3.7545083361e+00 -2.6375409542e+00 1.1717681495e+01 0.0000000000e+00 0.0000e+00 -1.0000e+00
      -12  1    3    3    0    0 +2.6962640176e+01 -3.1001725871e+01 -1.3983293919e+01 4.3400731342e+01 0.0000000000e+00 0.0000e+00 1.0000e+00
</event>
<event>
 8      3 +3.7482383e-04 9.11880000e+01 7.81616400e-03 1.18400000e-01
      -11 -1    0    0    0    0 +0.0000000000e+00 +0.0000000000e+00 +4.5593999997e+01 4.5594000000e+01 5.1100000000e-04 0.0000e+00 1.0000e+00
       11 -1    0    0    0    0 -0.0000000000e+00 -0.0000000000e+00 -4.5593999997e+01 4.5594000000e+01 5.1100000000e-04 0.0000e+00 -1.0000e+00
       23  2    1    2    0    0 -7.1054273576e-15 +0.0000000000e+00 +0.0000000000e+00 9.1188000000e+01 9.1188000000e+01 1.6210e-13 0.0000e+00
  9990012  2    3    3    0    0 +3.2433466759e+01 +2.4672496301e+01 +1.4931895011e+01 4.7787270417e+01 1.9999997137e+01 3.3409e-01 0.0000e+00
      -11  1    4    4    0    0 +3.3777827023e+01 +2.1458331674e+01 +1.7185084445e+01 4.3551449164e+01 5.1100000000e-04 0.0000e+00 -1.0000e+00
       11  1    4    4    0    0 -8.2811930479e-01 +1.4976011977e+00 -1.5545518338e+00 2.3119737445e+00 5.1100000000e-04 0.0000e+00 1.0000e+00
       12  1    4    4    0    0 -5.1624095971e-01 +1.7165634299e+00 -6.9863760009e-01 1.9238475079e+00 0.0000000000e+00 0.0000e+00 -1.0000e+00
      -12  1    3    3    0    0 -3.2433466759e+01 -2.4672496301e+01 -1.4931895011e+01 4.3400729583e+01 0.0000000000e+00 0.0000e+00 1.0000e+00
</event>
<event>
 8      4 +3.7482383e-04 9.11880000e+01 7.81616400e-03 1.18400000e-01
      -11 -1    0    0    0    0 +0.0000000000e+00 +0.0000000000e+00 +4.5593999997e+01 4.5594000000e+01 5.1100000000e-04 0.0000e+00 1.0000e+00
       11 -1    0    0    0    0 -0.0000000000e+00 -0.0000000000e+00 -4.5593999997e+01 4.5594000000e+01 5.1100000000e-04 0.0000e+00 -1.0000e+00
       23  2    1    2    0    0 +0.0000000000e+00 +0.0000000000e+00 +0.0000000000e+00 9.1188000000e+01 9.1188000000e+01 2.5339e-14 0.0000e+00
 -9990012  2    3    3    0    0 -4.6593333562e+00 +2.5862247032e+01 +3.4540677844e+01 4.7787266887e+01 1.9999981043e+01 4.0238e-01 0.0000e+00
      -11  1    4    4    0    0 +2.8817445432e+00 +8.2391681994e+00 +7.3043892450e+00 1.1381671526e+01 5.1100000000e-04 0.0000e+00 1.0000e+00
       11  1    4    4    0    0 +3.2437475536e+00 +1.1071889937e+01 +1.3164628000e+01 1.7504744374e+01 5.1100000000e-04 0.0000e+00 -1.0000e+00
      -12  1    4    4    0    0 -1.0784825453e+01 +6.5511888956e+00 +1.4071660599e+01 1.8900850987e+01 0.0000000000e+00 0.0000e+00 1.0000e+00
       12  1    3    3    0    0 +4.6593333562e+00 -2.5862247032e+01 -3.4540677844e+01 4.3400733113e+01 0.0000000000e+00 0.0000e+00 -1.0000e+00
</event>
<event>
 8      4 +3.7482383e-04 9.11880000e+01 7.81616400e-03 1.18400000e-01
      -11 -1    0    0    0    0 +0.0000000000e+00 +0.0000000000e+00 +4.5593999997e+01 4.5594000000e+01 5.1100000000e-04 0.0000e+00 -1.0000e+00
       11 -1    0    0    0    0 -0.0000000000e+00 -0.0000000000e+00 -4.5593999997e+01 4.5594000000e+01 5.1100000000e-04 0.0000e+00 1.0000e+00
       23  2    1    2    0    0 +0.0000000000e+00 -7.1054273576e-15 -1.3322676296e-15 9.1188000000e+01 9.1188000000e+01 4.7776e-15 0.0000e+00
 -9990012  2    3    3    0    0 -2.1759954816e+01 -3.7476398224e+01 -2.3768312461e+00 4.7787246732e+01 1.9999889148e+01 3.9586e-01 0.0000e+00
      -11  1    4    4    0    0 -7.2174642065e+00 -7.3395131643e+00 +2.4604004088e+00 1.0583657850e+01 5.1100000000e-04 0.0000e+00 1.0000e+00
       11  1    4    4    0    0 -6.3751772033e+00 -9.9190315328e+00 +5.5718613156e+00 1.3041307822e+01 5.1100000000e-04 0.0000e+00 -1.0000e+00
      -12  1    4    4    0    0 -8.1673134066e+00 -2.0217853527e+01 -1.0409092971e+01 2.4162281060e+01 0.0000000000e+00 0.0000e+00 1.0000e+00
       12  1    3    3    0    0 +2.1759954816e+01 +3.7476398224e+01 +2.3768312461e+00 4.3400753268e+01 0.0000000000e+00 0.0000e+00 -1.0000e+00
</event>
<event>
 8      4 +3.7482383e-04 9.11880000e+01 7.81616400e-03 1.18400000e-01
      -11 -1    0    0    0    0 +0.0000000000e+00 +0.0000000000e+00 +4.5593999997e+01 4.5594000000e+01 5.1100000000e-04 0.0000e+00 1.0000e+00
       11 -1    0    0    0    0 -0.0000000000e+00 -0.0000000000e+00 -4.5593999997e+01 4.5594000000e+01 5.1100000000e-04 0.0000e+00 -1.0000e+00
       23  2    1    2    0    0 -7.1054273576e-15 +3.5527136788e-15 +0.0000000000e+00 9.1188000000e+01 9.1188000000e+01 3.4889e-14 0.0000e+00
 -9990012  2    3    3    0    0 +3.7915190425e+01 -1.4787092354e+01 +1.5079989475e+01 4.7787241391e+01 1.9999864797e+01 7.2699e-02 0.0000e+00
      -11  1    4    4    0    0 +5.4713716829e+00 +1.7872978907e+00 -2.6860142480e+00 6.3517725592e+00 5.1100000000e-04 0.0000e+00 1.0000e+00
       11  1    4    4    0    0 +9.1638094448e+00 -9.2684897435e+00 +6.1211461973e+00 1.4399608908e+01 5.1100000000e-04 0.0000e+00 -1.0000e+00
      -12  1    4    4    0    0 +2.3280009298e+01 -7.3059005017e+00 +1.1644857525e+01 2.7035859924e+01 0.0000000000e+00 0.0000e+00 1.0000e+00
       12  1    3    3    0    0 -3.7915190425e+01 +1.4787092354e+01 -1.5079989475e+01 4.3400758609e+01 0.0000000000e+00 0.0000e+00 -1.0000e+00
</event>
<event>
 8      3 +3.7482383e-04 9.11880000e+01 7.81616400e-03 1.18400000e-01
      -11 -1    0    0    0    0 +0.0000000000e+00 +0.0000000000e+00 +4.5593999997e+01 4.5594000000e+01 5.1100000000e-04 0.0000e+00 -1.0000e+00
       11 -1    0    0    0    0 -0.0000000000e+00 -0.0000000000e+00 -4.5593999997e+01 4.5594000000e+01 5.1100000000e-04 0.0000e+00 1.0000e+00
       23  2    1    2    0    0 -7.1054273576e-15 +0.0000000000e+00 +3.5527136788e-15 9.1188000000e+01 9.1188000000e+01 1.4388e-13 0.0000e+00
  9990012  2    3    3    0    0 -2.4962770818e+01 -2.2387935202e+01 +2.7554740348e+01 4.7787270914e+01 1.9999999407e+01 4.3911e-01 0.0000e+00
      -11  1    4    4    0    0 -3.4796553328e+00 +8.2203629381e-02 +4.7992276001e+00 5.9285195868e+00 5.1100000000e-04 0.0000e+00 -1.0000e+00
       11  1    4    4    0    0 -2.8753289770e+00 +1.3570517824e+00 -1.0827459380e+00 3.3587862827e+00 5.1100000000e-04 0.0000e+00 1.0000e+00
       12  1    4    4    0    0 -1.8607786509e+01 -2.3827190614e+01 +2.3838258685e+01 3.8499965045e+01 0.0000000000e+00 0.0000e+00 -1.0000e+00
      -12  1    3    3    0    0 +2.4962770818e+01 +2.2387935202e+01 -2.7554740348e+01 4.3400729086e+01 0.0000000000e+00 0.0000e+00 1.0000e+00
</event>
<event>
 8      4 +3.7482383e-04 9.11880000e+01 7.81616400e-03 1.18400000e-01
      -11 -1    0    0    0    0 +0.0000000000e+00 +0.0000000000e+00 +4.5593999997e+01 4.5594000000e+01 5.1100000000e-04 0.0000e+00 -1.0000e+00
       11 -1    0    0    0    0 -0.0000000000e+00 -0.0000000000e+00 -4.5593999997e+01 4.5594000000e+01 5.1100000000e-04 0.0000e+00 1.0000e+00
       23  2    1    2    0    0 +0.0000000000e+00 -1.7763568394e-15 +0.0000000000e+00 9.1188000000e+01 9.1188000000e+01 2.9998e-14 0.0000e+00
 -9990012  2    3    3    0    0 +3.7034204670e+01 +1.4020875767e+01 -1.7762491972e+01 4.7787269662e+01 1.9999993695e+01 4.0178e-01 0.0000e+00
      -11  1    4    4    0    0 +1.4625150268e+01 +9.1827170115e+00 -1.6375290468e+00 1.7346435188e+01 5.1100000000e-04 0.0000e+00 -1.0000e+00
       11  1    4    4    0    0 +2.0426057099e+01 +7.9861825682e+00 -1.4937190481e+01 2.6535308183e+01 5.1100000000e-04 0.0000e+00 1.0000e+00
      -12  1    4    4    0    0 +1.9829973028e+00 -3.1480238127e+00 -1.1877724445e+00 3.9055262908e+00 0.0000000000e+00 0.0000e+00 1.0000e+00
       12  1    3    3    0    0 -3.7034204670e+01 -1.4020875767e+01 +1.7762491972e+01 4.3400730338e+01 0.0000000000e+00 0.0000e+00 -1.0000e+00
</event>
<event>
 8      3 +3.7482383e-04 9.11880000e+01 7.81616400e-03 1.18400000e-01
      -11 -1    0    0    0    0 +0.0000000000e+00 +0.0000000000e+00 +4.5593999997e+01 4.5594000000e+01 5.1100000000e-04 0.0000e+00 1.0000e+00
       11 -1    0    0    0    0 -0.0000000000e+00 -0.0000000000e+00 -4.5593999997e+01 4.5594000000e+01 5.1100000000e-04 0.0000e+00 -1.0000e+00
       23  2    1    2    0    0 +3.5527136788e-15 +0.0000000000e+00 -7.1054273576e-15 9.1188000000e+01 9.1188000000e+01 1.4255e-13 0.0000e+00
  9990012  2    3    3    0    0 +1.7045267738e+01 -1.8176295713e+01 -3.5534551859e+01 4.7787271274e+01 2.0000001048e+01 1.2444e-01 0.0000e+00
      -11  1    4    4    0    0 +1.5808465093e+01 -1.1735173821e+01 -2.5404159300e+01 3.2140211313e+01 5.1100000000e-04 0.0000e+00 1.0000e+00
       11  1    4    4    0    0 +4.1034003849e+00 +7.4401683610e-01 -3.9724708411e+00 5.7595121855e+00 5.1100000000e-04 0.0000e+00 -1.0000e+00
       12  1    4    4    0    0 -2.8665977399e+00 -7.1851387277e+00 -6.1579217177e+00 9.8875477758e+00 0.0000000000e+00 0.0000e+00 -1.0000e+00
      -12  1    3    3    0    0 -1.7045267738e+01 +1.8176295713e+01 +3.5534551859e+01 4.3400728726e+01 0.0000000000e+00 0.0000e+00 1.0000e+00
</event>
<event>
 8      3 +3.7482383e-04 9.11880000e+01 7.81616400e-03 1.18400000e-01
      -11 -1    0    0    0    0 +0.0000000000e+00 +0.0000000000e+00 +4.5593999997e+01 4.5594000000e+01 5.1100000000e-04 0.0000e+00 1.0000e+00
       11 -1    0    0    0    0 -0.0000000000e+00 -0.0000000000e+00 -4.5593999997e+01 4.5594000000e+01 5.1100000000e-04 0.0000e+00 -1.0000e+00
       23  2    1    2    0    0 -3.5527136788e-15 -2.2204460493e-16 +7.1054273576e-15 9.1188000000e+01 9.1188000000e+01 1.5729e-13 0.0000e+00
  9990012  2    3    3    0    0 +1.6061020612e+01 +1.7647280024e+00 -4.0280922970e+01 4.7787269553e+01 1.9999993201e+01 3.2973e-02 0.0000e+00
      -11  1    4    4    0    0 +1.6590135077e+00 -2.9555521057e+00 -1.8427681173e+00 3.8579021065e+00 5.1100000000e-04 0.0000e+00 1.0000e+00
       11  1    4    4    0    0 +1.7176610045e+01 +5.7940437313e+00 -3.4720260594e+01 3.9167631680e+01 5.1100000000e-04 0.0000e+00 -1.0000e+00
       12  1    4    4    0    0 -2.7746029412e+00 -1.0737636233e+00 -3.7178942579e+00 4.7617357668e+00 0.0000000000e+00 0.0000e+00 -1.0000e+00
      -12  1    3    3    0    0 -1.6061020612e+01 -1.7647280024e+00 +4.0280922970e+01 4.3400730447e+01 0.0000000000e+00 0.0000e+00 1.0000e+00
</event>
<event>
 8      3 +3.7482383e-04 9.11880000e+01 7.81616400e-03 1.18400000e-01
      -11 -1    0    0    0    0 +0.0000000000e+00 +0.0000000000e+00 +4.5593999997e+01 4.5594000000e+01 5.1100000000e-04 0.0000e+00 -1.0000e+00
       11 -1    0    0    0    0 -0.0000000000e+00 -0.0000000000e+00 -4.5593999997e+01 4.5594000000e+01 5.1100000000e-04 0.0000e+00 1.0000e+00
       23  2    1    2    0    0 +0.0000000000e+00 +3.5527136788e-15 -3.5527136788e-15 9.1188000000e+01 9.1188000000e+01 5.0647e-14 0.0000e+00
  9990012  2    3    3    0    0 -2.1198362509e+01 -2.5459164349e+01 +2.8037184622e+01 4.7787270237e+01 1.9999996319e+01 2.1823e-01 0.0000e+00
      -11  1    4    4    0    0 +5.0603581421e-01 -7.3008111459e+00 +9.5337316873e+00 1.2018733535e+01 5.1100000000e-04 0.0000e+00 1.0000e+00
       11  1    4    4    0    0 -1.8879346193e+00 -3.3947963330e+00 -1.3050988934e+00 4.0978314573e+00 5.1100000000e-04 0.0000e+00 -1.0000e+00
       12  1    4    4    0    0 -1.9816463704e+01 -1.4763556870e+01 +1.9808551828e+01 3.1670705245e+01 0.0000000000e+00 0.0000e+00 -1.0000e+00
      -12  1    3    3    0    0 +2.1198362509e+01 +2.5459164349e+01 -2.8037184622e+01 4.3400729763e+01 0.0000000000e+00 0.0000e+00 1.0000e+00
</event>
<event>
 8      3 +3.7482383e-04 9.11880000e+01 7.81616400e-03 1.18400000e-01
      -11 -1    0    0    0    0 +0.0000000000e+00 +0.0000000000e+00 +4.5593999997e+01 4.5594000000e+01 5.1100000000e-04 0.0000e+00 -1.0000e+00
       11 -1    0    0    0    0 -0.0000000000e+00 -0.0000000000e+00 -4.5593999997e+01 4.5594000000e+01 5.1100000000e-04 0.0000e+00 1.0000e+00
       23  2    1    2    0    0 +0.0000000000e+00 +0.0000000000e+00 -1.7763568394e-15 9.1188000000e+01 9.1188000000e+01 1.2335e-13 0.0000e+00
  9990012  2    3    3    0    0 -4.0234074921e+01 +7.9960148719e+00 -1.4174130257e+01 4.7787274118e+01 2.0000014013e+01 9.1751e-02 0.0000e+00
      -11  1    4    4    0    0 -1.6382546099e+01 -2.1894754233e+00 -4.5051253235e+00 1.7131193004e+01 5.1100000000e-04 0.0000e+00 1.0000e+00
       11  1    4    4    0    0 -1.5845692943e+01 +1.2800162105e+01 -4.7993229438e+00 2.0927580743e+01 5.1100000000e-04 0.0000e+00 -1.0000e+00
       12  1    4    4    0    0 -8.0058358787e+00 -2.6146718094e+00 -4.8696819898e+00 9.7285003711e+00 0.0000000000e+00 0.0000e+00 -1.0000e+00
      -12  1    3    3    0    0 +4.0234074921e+01 -7.9960148719e+00 +1.4174130257e+01 4.3400725882e+01 0.0000000000e+00 0.0000e+00 1.0000e+00
</event>
<event>
 8      3 +3.7482383e-04 9.11880000e+01 7.81616400e-03 1.18400000e-01
      -11 -1    0    0    0    0 +0.0000000000e+00 +0.0000000000e+00 +4.5593999997e+01 4.5594000000e+01 5.1100000000e-04 0.0000e+00 1.0000e+00
       11 -1    0    0    0    0 -0.0000000000e+00 -0.0000000000e+00 -4.5593999997e+01 4.5594000000e+01 5.1100000000e-04 0.0000e+00 -1.0000e+00
       23  2    1    2    0    0 -3.5527136788e-15 -3.5527136788e-15 -3.5527136788e-15 9.1188000000e+01 9.1188000000e+01 7.2914e-14 0.0000e+00
  9990012  2    3    3    0    0 -2.1574147070e+01 -2.6556804397e+01 -2.6700476494e+01 4.7787272741e+01 2.0000007737e+01 1.4059e-01 0.0000e+00
      -11  1    4    4    0    0 -8.0973764742e+00 -1.3100391537e+00 -3.1758675717e+00 8.7960129288e+00 5.1100000000e-04 0.0000e+00 1.0000e+00
       11  1    4    4    0    0 +6.3028205869e-01 -3.1245487754e+00 -7.7426700700e+00 8.3731117631e+00 5.1100000000e-04 0.0000e+00 -1.0000e+00
       12  1    4    4    0    0 -1.4107052655e+01 -2.2122216467e+01 -1.5781938852e+01 3.0618148049e+01 0.0000000000e+00 0.0000e+00 -1.0000e+00
      -12  1    3    3    0    0 +2.1574147070e+01 +2.6556804397e+01 +2.6700476494e+01 4.3400727259e+01 0.0000000000e+00 0.0000e+00 1.0000e+00
</event>
<event>
 8      3 +3.7482383e-04 9.11880000e+01 7.81616400e-03 1.18400000e-01
      -11 -1    0    0    0    0 +0.0000000000e+00 +0.0000000000e+00 +4.5593999997e+01 4.5594000000e+01 5.1100000000e-04 0.0000e+00 -1.0000e+00
       11 -1    0    0    0    0 -0.0000000000e+00 -0.0000000000e+00 -4.5593999997e+01 4.5594000000e+01 5.1100000000e-04 0.0000e+00 1.0000e+00
       23  2    1    2    0    0 -3.5527136788e-15 +0.0000000000e+00 +3.5527136788e-15 9.1188000000e+01 9.1188000000e+01 2.6734e-14 0.0000e+00
  9990012  2    3    3    0    0 -2.7687577551e+01 -1.2180589213e+01 +3.1123217955e+01 4.7787269590e+01 1.9999993371e+01 5.1509e-01 0.0000e+00
      -11  1    4    4    0    0 -1.1899771194e+00 -4.1381936233e+00 +4.7192980263e+00 6.3884635187e+00 5.1100000000e-04 0.0000e+00 1.0000e+00
       11  1    4    4    0    0 -1.1465094861e+01 -1.1699875610e+01 +1.2628062635e+01 2.0683410155e+01 5.1100000000e-04 0.0000e+00 -1.0000e+00
       12  1    4    4    0    0 -1.5032505571e+01 +3.6574800196e+00 +1.3775857293e+01 2.0715395917e+01 0.0000000000e+00 0.0000e+00 -1.0000e+00
      -12  1    3    3    0    0 +2.7687577551e+01 +1.2180589213e+01 -3.1123217955e+01 4.3400730410e+01 0.0000000000e+00 0.0000e+00 1.0000e+00
</event>
<event>
 8      3 +3.7482383e-04 9.11880000e+01 7.81616400e-03 1.18400000e-01
      -11 -1    0    0    0    0 +0.0000000000e+00 +0.0000000000e+00 +4.5593999997e+01 4.5594000000e+01 5.1100000000e-04 0.0000e+00 -1.0000e+00
       11 -1    0    0    0    0 -0.0000000000e+00 -0.0000000000e+00 -4.5593999997e+01 4.5594000000e+01 5.1100000000e-04 0.0000e+00 1.0000e+00
       23  2    1    2    0    0 +0.0000000000e+00 +0.0000000000e+00 +0.0000000000e+00 9.1188000000e+01 9.1188000000e+01 3.8103e-14 0.0000e+00
  9990012  2    3    3    0    0 +3.3789383396e+01 +2.2482282436e+01 +1.5376890748e+01 4.7787260111e+01 1.9999950151e+01 2.2846e-01 0.0000e+00
      -11  1    4    4    0    0 +5.8018725473e+00 -1.4734701517e-01 +1.2481556110e+00 5.9364407593e+00 5.1100000000e-04 0.0000e+00 1.0000e+00
       11  1    4    4    0    0 +2.3096712394e+01 +2.4887435369e+01 +1.2930518004e+01 3.6332366545e+01 5.1100000000e-04 0.0000e+00 -1.0000e+00
       12  1    4    4    0    0 +4.8907984550e+00 -2.2578059174e+00 +1.1982171330e+00 5.5184528072e+00 0.0000000000e+00 0.0000e+00 -1.0000e+00
      -12  1    3    3    0    0 -3.3789383396e+01 -2.2482282436e+01 -1.5376890748e+01 4.3400739889e+01 0.0000000000e+00 0.0000e+00 1.0000e+00
</event>
<event>
 8      3 +3.7482383e-04 9.11880000e+01 7.81616400e-03 1.18400000e-01
      -11 -1    0    0    0    0 +0.0000000000e+00 +0.0000000000e+00 +4.5593999997e+01 4.5594000000e+01 5.1100000000e-04 0.0000e+00 1.0000e+00
       11 -1    0    0    0    0 -0.0000000000e+00 -0.0000000000e+00 -4.5593999997e+01 4.5594000000e+01 5.1100000000e-04 0.0000e+00 -1.0000e+00
       23  2    1    2    0    0 +0.0000000000e+00 +3.5527136788e-15 -3.5527136788e-15 9.1188000000e+01 9.1188000000e+01 1.4684e-14 0.0000e+00
  9990012  2    3    3    0    0 +1.6518822995e+01 +2.5013858225e+01 -3.1385646386e+01 4.7787269413e+01 1.9999992561e+01 1.8641e-01 0.0000e+00
      -11  1    4    4    0    0 +7.5344327501e+00 +2.0063525954e+01 -1.0271352918e+01 2.3765804039e+01 5.1100000000e-04 0.0000e+00 1.0000e+00
       11  1    4    4    0    0 +3.2707966823e-01 -9.3131998120e-01 -1.9369731995e+00 2.1739833149e+00 5.1100000000e-04 0.0000e+00 -1.0000e+00
       12  1    4    4    0    0 +8.6573105765e+00 +5.8816522517e+00 -1.9177320269e+01 2.1847482059e+01 0.0000000000e+00 0.0000e+00 -1.0000e+00
      -12  1    3    3    0    0 -1.6518822995e+01 -2.5013858225e+01 +3.1385646386e+01 4.3400730587e+01 0.0000000000e+00 0.0000e+00 1.0000e+00
</event>
<event>
 8      4 +3.7482383e-04 9.11880000e+01 7.81616400e-03 1.18400000e-01
      -11 -1    0    0    0    0 +0.0000000000e+00 +0.0000000000e+00 +4.5593999997e+01 4.5594000000e+01 5.1100000000e-04 0.0000e+00 -1.0000e+00
       11 -1    0    0    0    0 -0.0000000000e+00 -0.0000000000e+00 -4.5593999997e+01 4.5594000000e+01 5.1100000000e-04 0.0000e+00 1.0000e+00
       23  2    1    2    0    0 -3.5527136788e-15 +0.0000000000e+00 +3.5527136788e-15 9.1188000000e+01 9.1188000000e+01 1.8335e-13 0.0000e+00
 -9990012  2    3    3    0    0 -2.0841588510e+01 -2.6815233423e+01 -2.7022124832e+01 4.7787265149e+01 1.9999973121e+01 3.5191e-01 0.0000e+00
      -11  1    4    4    0    0 -9.4515269703e+00 -8.7944669541e+00 -7.3558583561e+00 1.4858757131e+01 5.1100000000e-04 0.0000e+00 1.0000e+00
       11  1    4    4    0    0 -3.2685552819e+00 -2.5016053538e-02 -1.0803245658e+01 1.1286903758e+01 5.1100000000e-04 0.0000e+00 -1.0000e+00
      -12  1    4    4    0    0 -8.1215062574e+00 -1.7995750416e+01 -8.8630208184e+00 2.1641604260e+01 0.0000000000e+00 0.0000e+00 1.0000e+00
       12  1    3    3    0    0 +2.0841588510e+01 +2.6815233423e+01 +2.7022124832e+01 4.3400734851e+01 0.0000000000e+00 0.0000e+00 -1.0000e+00
</event>
<event>
 8      3 +3.7482383e-04 9.11880000e+01 7.81616400e-03 1.18400000e-01
      -11 -1    0    0    0    0 +0.0000000000e+00 +0.0000000000e+00 +4.5593999997e+01 4.5594000000e+01 5.1100000000e-04 0.0000e+00 -1.0000e+00
       11 -1    0    0    0    0 -0.0000000000e+00 -0.0000000000e+00 -4.5593999997e+01 4.5594000000e+01 5.1100000000e-04 0.0000e+00 1.0000e+00
       23  2    1    2    0    0 +0.0000000000e+00 +0.0000000000e+00 +0.0000000000e+00 9.1188000000e+01 9.1188000000e+01 7.2463e-14 0.0000e+00
  9990012  2    3    3    0    0 +3.9710743114e+01 -1.7308897830e+01 +2.6612597719e+00 4.7787269979e+01 1.9999995143e+01 1.5214e-01 0.0000e+00
      -11  1    4    4    0    0 +1.2749351962e+01 -1.5811191255e+01 +3.0407549537e+00 2.0537427671e+01 5.1100000000e-04 0.0000e+00 1.0000e+00
       11  1    4    4    0    0 +1.6741181465e+01 -1.0303093511e+00 -1.9990235394e+00 1.6891559714e+01 5.1100000000e-04 0.0000e+00 -1.0000e+00
       12  1    4    4    0    0 +1.0220209687e+01 -4.6739722372e-01 +1.6195283576e+00 1.0358282594e+01 0.0000000000e+00 0.0000e+00 -1.0000e+00
      -12  1    3    3    0    0 -3.9710743114e+01 +1.7308897830e+01 -2.6612597719e+00 4.3400730021e+01 0.0000000000e+00 0.0000e+00 1.0000e+00
</event>
<event>
 8      3 +3.7482383e-04 9.11880000e+01 7.81616400e-03 1.18400000e-01
      -11 -1    0    0    0    0 +0.0000000000e+00 +0.0000000000e+00 +4.5593999997e+01 4.5594000000e+01 5.1100000000e-04 0.0000e+00 1.0000e+00
       11 -1    0    0    0    0 -0.0000000000e+00 -0.0000000000e+00 -4.5593999997e+01 4.5594000000e+01 5.1100000000e-04 0.0000e+00 -1.0000e+00
       23  2    1    2    0    0 +3.5527136788e-15 -1.7763568394e-15 +0.0000000000e+00 9.1188000000e+01 9.1188000000e+01 2.2133e-14 0.0000e+00
  9990012  2    3    3    0    0 -2.1292433451e+01 +1.5637178665e+01 -3.4434490600e+01 4.7787271645e+01 2.0000002737e+01 1.6876e-01 0.0000e+00
      -11  1    4    4    0    0 -8.6071014063e+00 +2.7653102762e+00 -3.8994001409e+00 9.8455298111e+00 5.1100000000e-04 0.0000e+00 1.0000e+00
       11  1    4    4    0    0 -1.5122084814e+01 +8.8370469764e+00 -2.1326713642e+01 2.7597093387e+01 5.1100000000e-04 0.0000e+00 -1.0000e+00
       12  1    4    4    0    0 +2.4367527685e+00 +4.0348214124e+00 -9.2083768171e+00 1.0344648447e+01 0.0000000000e+00 0.0000e+00 -1.0000e+00
      -12  1    3    3    0    0 +2.1292433451e+01 -1.5637178665e+01 +3.4434490600e+01 4.3400728355e+01 0.0000000000e+00 0.0000e+00 1.0000e+00
</event>
<event>
 8      3 +3.7482383e-04 9.11880000e+01 7.81616400e-03 1.18400000e-01
      -11 -1    0    0    0    0 +0.0000000000e+00 +0.0000000000e+00 +4.5593999997e+01 4.5594000000e+01 5.1100000000e-04 0.0000e+00 -1.0000e+00
       11 -1    0    0    0    0 -0.0000000000e+00 -0.0000000000e+00 -4.5593999997e+01 4.5594000000e+01 5.1100000000e-04 0.0000e+00 1.0000e+00
       23  2    1    2    0    0 -8.8817841970e-16 +0.0000000000e+00 +0.0000000000e+00 9.1188000000e+01 9.1188000000e+01 5.0669e-15 0.0000e+00
  9990012  2    3    3    0    0 -6.7725092381e+00 +1.2416531798e+01 +4.1031524888e+01 4.7787272150e+01 2.0000005042e+01 6.4465e-02 0.0000e+00
      -11  1    4    4    0    0 +1.7767419882e-01 +5.2536811567e+00 +2.2575573773e+00 5.7209526645e+00 5.1100000000e-04 0.0000e+00 1.0000e+00
       11  1    4    4    0    0 +1.8137047533e+00 +2.1740613524e+00 +1.0531649869e+00 3.0207986439e+00 5.1100000000e-04 0.0000e+00 -1.0000e+00
       12  1    4    4    0    0 -8.7638881902e+00 +4.9887892894e+00 +3.7720802524e+01 3.9045520842e+01 0.0000000000e+00 0.0000e+00 -1.0000e+00
      -12  1    3    3    0    0 +6.7725092381e+00 -1.2416531798e+01 -4.1031524888e+01 4.3400727850e+01 0.0000000000e+00 0.0000e+00 1.0000e+00
</event>
<event>
 8      3 +3.7482383e-04 9.11880000e+01 7.81616400e-03 1.18400000e-01
      -11 -1    0    0    0    0 +0.0000000000e+00 +0.0000000000e+00 +4.5593999997e+01 4.5594000000e+01 5.1100000000e-04 0.0000e+00 -1.0000e+00
       11 -1    0    0    0    0 -0.0000000000e+00 -0.0000000000e+00 -4.5593999997e+01 4.5594000000e+01 5.1100000000e-04 0.0000e+00 1.0000e+00
       23  2    1    2    0    0 -8.8817841970e-16 -3.5527136788e-15 +0.0000000000e+00 9.1188000000e+01 9.1188000000e+01 2.2990e-14 0.0000e+00
  9990012  2    3    3    0    0 +7.3362437045e+00 +1.8308423778e+01 +3.8660116441e+01 4.7787268945e+01 1.9999990426e+01 1.6835e-02 0.0000e+00
      -11  1    4    4    0    0 +3.4191558752e+00 -1.2524507807e-01 +2.5779914619e-01 3.4311476053e+00 5.1100000000e-04 0.0000e+00 -1.0000e+00
       11  1    4    4    0    0 -3.5860370461e+00 +3.0533475533e+00 +5.2880662927e+00 7.0814008751e+00 5.1100000000e-04 0.0000e+00 1.0000e+00
       12  1    4    4    0    0 +7.5031248754e+00 +1.5380321302e+01 +3.3114251002e+01 3.7274720464e+01 0.0000000000e+00 0.0000e+00 -1.0000e+00
      -12  1    3    3    0    0 -7.3362437045e+00 -1.8308423778e+01 -3.8660116441e+01 4.3400731055e+01 0.0000000000e+00 0.0000e+00 1.0000e+00
</event>
<event>
 8      3 +3.7482383e-04 9.11880000e+01 7.81616400e-03 1.18400000e-01
      -11 -1    0    0    0    0 +0.0000000000e+00 +0.0000000000e+00 +4.5593999997e+01 4.5594000000e+01 5.1100000000e-04 0.0000e+00 1.0000e+00
       11 -1    0    0    0    0 -0.0000000000e+00 -0.0000000000e+00 -4.5593999997e+01 4.5594000000e+01 5.1100000000e-04 0.0000e+00 -1.0000e+00
       23  2    1    2    0    0 +1.7763568394e-15 +0.0000000000e+00 +0.0000000000e+00 9.1188000000e+01 9.1188000000e+01 1.9777e-14 0.0000e+00
  9990012  2    3    3    0    0 -1.2289093129e+01 +2.3159305558e+01 -3.4586822610e+01 4.7787267954e+01 1.9999985910e+01 6.3546e-02 0.0000e+00
      -11  1    4    4    0    0 -1.2396283179e+00 +1.2228770336e+01 -4.3409964677e+00 1.3035480540e+01 5.1100000000e-04 0.0000e+00 1.0000e+00
       11  1    4    4    0    0 -2.2291376390e+00 +1.1727816148e+00 -1.0483347304e+00 2.7282736845e+00 5.1100000000e-04 0.0000e+00 -1.0000e+00
       12  1    4    4    0    0 -8.8203271723e+00 +9.7577536069e+00 -2.9197491412e+01 3.2023513730e+01 0.0000000000e+00 0.0000e+00 -1.0000e+00
      -12  1    3    3    0    0 +1.2289093129e+01 -2.3159305558e+01 +3.4586822610e+01 4.3400732046e+01 0.0000000000e+00 0.0000e+00 1.0000e+00
</event>
<event>
 8      4 +3.7482383e-04 9.11880000e+01 7.81616400e-03 1.18400000e-01
      -11 -1    0    0    0    0 +0.0000000000e+00 +0.0000000000e+00 +4.5593999997e+01 4.5594000000e+01 5.1100000000e-04 0.0000e+00 -1.0000e+00
       11 -1    0    0    0    0 -0.0000000000e+00 -0.0000000000e+00 -4.5593999997e+01 4.5594000000e+01 5.1100000000e-04 0.0000e+00 1.0000e+00
       23  2    1    2    0    0 -3.5527136788e-15 -3.5527136788e-15 +0.0000000000e+00 9.1188000000e+01 9.1188000000e+01 8.3943e-14 0.0000e+00
 -9990012  2    3    3    0    0 -1.2026821649e+01 -2.0778454964e+01 -3.6155702799e+01 4.7787268733e+01 1.9999989459e+01 4.7678e-01 0.0000e+00
      -11  1    4    4    0    0 +1.1074563450e+00 -3.0074056219e+00 -1.5412830277e+01 1.5742499342e+01 5.1100000000e-04 0.0000e+00 1.0000e+00
       11  1    4    4    0    0 -5.8829708590e+00 -1.5868031675e+01 -1.4071944972e+01 2.2009620872e+01 5.1100000000e-04 0.0000e+00 -1.0000e+00
      -12  1    4    4    0    0 -7.2513071352e+00 -1.9030176668e+00 -6.6709275502e+00 1.0035148518e+01 0.0000000000e+00 0.0000e+00 1.0000e+00
       12  1    3    3    0    0 +1.2026821649e+01 +2.0778454964e+01 +3.6155702799e+01 4.3400731267e+01 0.0000000000e+00 0.0000e+00 -1.0000e+00
</event>
<event>
 8      3 +3.7482383e-04 9.11880000e+01 7.81616400e-03 1.18400000e-01
      -11 -1    0    0    0    0 +0.0000000000e+00 +0.0000000000e+00 +4.5593999997e+01 4.5594000000e+01 5.1100000000e-04 0.0000e+00 -1.0000e+00
       11 -1    0    0    0    0 -0.0000000000e+00 -0.0000000000e+00 -4.5593999997e+01 4.5594000000e+01 5.1100000000e-04 0.0000e+00 1.0000e+00
       23  2    1    2    0    0 +0.0000000000e+00 +0.0000000000e+00 +0.0000000000e+00 9.1188000000e+01 9.1188000000e+01 2.8691e-14 0.0000e+00
  9990012  2    3    3    0    0 -3.1910863311e+00 +1.7732213866e+01 +3.9484289855e+01 4.7787267450e+01 1.9999983610e+01 1.6019e-01 0.0000e+00
      -11  1    4    4    0    0 -1.1123984465e+00 -1.1735755423e+00 -1.3105134368e+00 2.0813830946e+00 5.1100000000e-04 0.0000e+00 1.0000e+00
       11  1    4    4    0    0 -5.0176458221e+00 +1.2305205290e+01 +2.8483801580e+01 3.1431223322e+01 5.1100000000e-04 0.0000e+00 -1.0000e+00
       12  1    4    4    0    0 +2.9389579375e+00 +6.6005841187e+00 +1.2311001712e+01 1.4274661033e+01 0.0000000000e+00 0.0000e+00 -1.0000e+00
      -12  1    3    3    0    0 +3.1910863311e+00 -1.7732213866e+01 -3.9484289855e+01 4.3400732550e+01 0.0000000000e+00 0.0000e+00 1.0000e+00
</event>
<event>
 8      3 +3.7482383e-04 9.11880000e+01 7.81616400e-03 1.18400000e-01
      -11 -1    0    0    0    0 +0.0000000000e+00 +0.0000000000e+00 +4.5593999997e+01 4.5594000000e+01 5.1100000000e-04 0.0000e+00 1.0000e+00
       11 -1    0    0    0    0 -0.0000000000e+00 -0.0000000000e+00 -4.5593999997e+01 4.5594000000e+01 5.1100000000e-04 0.0000e+00 -1.0000e+00
       23  2    1    2    0    0 +0.0000000000e+00 -7.1054273576e-15 -5.5511151231e-17 9.1188000000e+01 9.1188000000e+01 2.3583e-14 0.0000e+00
  9990012  2    3    3    0    0 -2.3294513877e+01 -3.6617743439e+01 -3.5233233811e-01 4.7787335841e+01 2.0000295431e+01 5.4863e-02 0.0000e+00
      -11  1    4    4    0    0 -4.5616369402e+00 -7.0862127685e-01 +3.0561375824e-01 4.6264539032e+00 5.1100000000e-04 0.0000e+00 1.0000e+00
       11  1    4    4    0    0 -1.0652383430e+01 -3.2819295349e+01 -5.2445479731e-01 3.4508759367e+01 5.1100000000e-04 0.0000e+00 -1.0000e+00
       12  1    4    4    0    0 -8.0804935069e+00 -3.0898268135e+00 -1.3349129904e-01 8.6521225708e+00 0.0000000000e+00 0.0000e+00 -1.0000e+00
      -12  1    3    3    0    0 +2.3294513877e+01 +3.6617743439e+01 +3.5233233811e-01 4.3400664159e+01 0.0000000000e+00 0.0000e+00 1.0000e+00
</event>
<event>
 8      3 +3.7482383e-04 9.11880000e+01 7.81616400e-03 1.18400000e-01
      -11 -1    0    0    0    0 +0.0000000000e+00 +0.0000000000e+00 +4.5593999997e+01 4.5594000000e+01 5.1100000000e-04 0.0000e+00 -1.0000e+00
       11 -1    0    0    0    0 -0.0000000000e+00 -0.0000000000e+00 -4.5593999997e+01 4.5594000000e+01 5.1100000000e-04 0.0000e+00 1.0000e+00
       23  2    1    2    0    0 +0.0000000000e+00 +1.7763568394e-15 +0.0000000000e+00 9.1188000000e+01 9.1188000000e+01 1.3591e-14 0.0000e+00
  9990012  2    3    3    0    0 -2.6112557705e+01 +1.3267073643e+01 +3.2027227568e+01 4.7787260160e+01 1.9999950373e+01 1.9157e-01 0.0000e+00
      -11  1    4    4    0    0 -7.4892486504e-01 +6.2121136026e-01 +1.1341119575e+01 1.1382784610e+01 5.1100000000e-04 0.0000e+00 1.0000e+00
       11  1    4    4    0    0 -1.0455710834e+01 +1.0545650508e+01 +1.1330725859e+01 1.8679346413e+01 5.1100000000e-04 0.0000e+00 -1.0000e+00
       12  1    4    4    0    0 -1.4907922006e+01 +2.1002117755e+00 +9.3553821345e+00 1.7725129137e+01 0.0000000000e+00 0.0000e+00 -1.0000e+00
      -12  1    3    3    0    0 +2.6112557705e+01 -1.3267073643e+01 -3.2027227568e+01 4.3400739840e+01 0.0000000000e+00 0.0000e+00 1.0000e+00
</event>
<event>
 8      4 +3.7482383e-04 9.11880000e+01 7.81616400e-03 1.18400000e-01
      -11 -1    0    0    0    0 +0.0000000000e+00 +0.0000000000e+00 +4.5593999997e+01 4.5594000000e+01 5.1100000000e-04 0.0000e+00 1.0000e+00
       11 -1    0    0    0    0 -0.0000000000e+00 -0.0000000000e+00 -4.5593999997e+01 4.5594000000e+01 5.1100000000e-04 0.0000e+00 -1.0000e+00
       23  2    1    2    0    0 +3.5527136788e-15 +0.0000000000e+00 -4.4408920985e-16 9.1188000000e+01 9.1188000000e+01 5.3557e-14 0.0000e+00
 -9990012  2    3    3    0    0 -2.7994017027e+01 +3.3032139050e+01 +2.9725569643e+00 4.7787270808e+01 1.9999998921e+01 2.1870e-01 0.0000e+00
      -11  1    4    4    0    0 +2.5870300998e-01 +1.1538449257e+01 +2.6655607467e+00 1.1845165801e+01 5.1100000000e-04 0.0000e+00 1.0000e+00
       11  1    4    4    0    0 -1.3725997304e+01 +1.0583143545e+01 +2.9553585334e+00 1.7582379635e+01 5.1100000000e-04 0.0000e+00 -1.0000e+00
      -12  1    4    4    0    0 -1.4526722732e+01 +1.0910546248e+01 -2.6483623157e+00 1.8359725371e+01 0.0000000000e+00 0.0000e+00 1.0000e+00
       12  1    3    3    0    0 +2.7994017027e+01 -3.3032139050e+01 -2.9725569643e+00 4.3400729192e+01 0.0000000000e+00 0.0000e+00 -1.0000e+00
</event>
<event>
 8      3 +3.7482383e-04 9.11880000e+01 7.81616400e-03 1.18400000e-01
      -11 -1    0    0    0    0 +0.0000000000e+00 +0.0000000000e+00 +4.5593999997e+01 4.5594000000e+01 5.1100000000e-04 0.0000e+00 1.0000e+00
       11 -1    0    0    0    0 -0.0000000000e+00 -0.0000000000e+00 -4.5593999997e+01 4.5594000000e+01 5.1100000000e-04 0.0000e+00 -1.0000e+00
       23  2    1    2    0    0 +0.0000000000e+00 +0.0000000000e+00 +0.0000000000e+00 9.1188000000e+01 9.1188000000e+01 2.2726e-15 0.0000e+00
  9990012  2    3    3    0    0 -2.2300930877e+01 -1.9106999159e+01 -3.1956439786e+01 4.7787274445e+01 2.0000015506e+01 3.2151e-01 0.0000e+00
      -11  1    4    4    0    0 -3.6813880678e+00 -2.5297652782e+00 -3.2019711847e-01 4.4782649458e+00 5.1100000000e-04 0.0000e+00 1.0000e+00
       11  1    4    4    0    0 -1.1477248054e+01 -7.8155854346e+00 -2.8300017042e+01 3.1523032268e+01 5.1100000000e-04 0.0000e+00 -1.0000e+00
       12  1    4    4    0    0 -7.1422947552e+00 -8.7616484461e+00 -3.3362256264e+00 1.1785977231e+01 0.0000000000e+00 0.0000e+00 -1.0000e+00
      -12  1    3    3    0    0 +2.2300930877e+01 +1.9106999159e+01 +3.1956439786e+01 4.3400725555e+01 0.0000000000e+00 0.0000e+00 1.0000e+00
</event>
<event>
 8      3 +3.7482383e-04 9.11880000e+01 7.81616400e-03 1.18400000e-01
      -11 -1    0    0    0    0 +0.0000000000e+00 +0.0000000000e+00 +4.5593999997e+01 4.5594000000e+01 5.1100000000e-04 0.0000e+00 -1.0000e+00
       11 -1    0    0    0    0 -0.0000000000e+00 -0.0000000000e+00 -4.5593999997e+01 4.5594000000e+01 5.1100000000e-04 0.0000e+00 1.0000e+00
       23  2    1    2    0    0 +1.7763568394e-15 -7.1054273576e-15 +0.0000000000e+00 9.1188000000e+01 9.1188000000e+01 2.5665e-14 0.0000e+00
  9990012  2    3    3    0    0 +9.5684851084e+00 -3.8143662197e+01 +1.8361059130e+01 4.7787269990e+01 1.9999995191e+01 2.9466e-02 0.0000e+00
      -11  1    4    4    0    0 +8.2670438255e+00 -2.0549682692e+01 +1.0436592550e+01 2.4485831345e+01 5.1100000000e-04 0.0000e+00 -1.0000e+00
       11  1    4    4    0    0 -3.5326077897e+00 -1.6433277518e+01 +5.0134625082e+00 1.7540431419e+01 5.1100000000e-04 0.0000e+00 1.0000e+00
       12  1    4    4    0    0 +4.8340490726e+00 -1.1607019858e+00 +2.9110040725e+00 5.7610072250e+00 0.0000000000e+00 0.0000e+00 -1.0000e+00
      -12  1    3    3    0    0 -9.5684851084e+00 +3.8143662197e+01 -1.8361059130e+01 4.3400730010e+01 0.0000000000e+00 0.0000e+00 1.0000e+00
</event>
<event>
 8      3 +3.7482383e-04 9.11880000e+01 7.81616400e-03 1.18400000e-01
      -11 -1    0    0    0    0 +0.0000000000e+00 +0.0000000000e+00 +4.5593999997e+01 4.5594000000e+01 5.1100000000e-04 0.0000e+00 1.0000e+00
       11 -1    0    0    0    0 -0.0000000000e+00 -0.0000000000e+00 -4.5593999997e+01 4.5594000000e+01 5.1100000000e-04 0.0000e+00 -1.0000e+00
       23  2    1    2    0    0 +0.0000000000e+00 -7.1054273576e-15 +0.0000000000e+00 9.1188000000e+01 9.1188000000e+01 7.5129e-14 0.0000e+00
  9990012  2    3    3    0    0 -1.0319514147e+01 -4.1614682870e+01 +6.7341249244e+00 4.7787278335e+01 2.0000033239e+01 2.9748e-02 0.0000e+00
      -11  1    4    4    0    0 -2.5133841971e+00 -2.4578593952e+00 -7.2727605826e-01 3.5898612306e+00 5.1100000000e-04 0.0000e+00 1.0000e+00
       11  1    4    4    0    0 +7.3098381729e-01 -7.1706328087e+00 +8.4123342040e+00 1.1077891462e+01 5.1100000000e-04 0.0000e+00 -1.0000e+00
       12  1    4    4    0    0 -8.5371137675e+00 -3.1986190666e+01 -9.5093322132e-01 3.3119525642e+01 0.0000000000e+00 0.0000e+00 -1.0000e+00
      -12  1    3    3    0    0 +1.0319514147e+01 +4.1614682870e+01 -6.7341249244e+00 4.3400721665e+01 0.0000000000e+00 0.0000e+00 1.0000e+00
</event>
<event>
 8      4 +3.7482383e-04 9.11880000e+01 7.81616400e-03 1.18400000e-01
      -11 -1    0    0    0    0 +0.0000000000e+00 +0.0000000000e+00 +4.5593999997e+01 4.5594000000e+01 5.1100000000e-04 0.0000e+00 -1.0000e+00
       11 -1    0    0    0    0 -0.0000000000e+00 -0.0000000000e+00 -4.5593999997e+01 4.5594000000e+01 5.1100000000e-04 0.0000e+00 1.0000e+00
       23  2    1    2    0    0 +0.0000000000e+00 +0.0000000000e+00 -8.8817841970e-16 9.1188000000e+01 9.1188000000e+01 6.0448e-15 0.0000e+00
 -9990012  2    3    3    0    0 +2.2915395977e+01 +3.6241038144e+01 -6.7153368228e+00 4.7787263057e+01 1.9999963583e+01 3.0574e-01 0.0000e+00
      -11  1    4    4    0    0 +1.8822829764e+01 +1.1997873143e+01 -1.7418315457e+00 2.2389324636e+01 5.1100000000e-04 0.0000e+00 1.0000e+00
       11  1    4    4    0    0 -5.2374774774e-01 +8.0206619410e+00 -1.4572348093e+00 8.1687736671e+00 5.1100000000e-04 0.0000e+00 -1.0000e+00
      -12  1    4    4    0    0 +4.6163139616e+00 +1.6222503060e+01 -3.5162704679e+00 1.7229164754e+01 0.0000000000e+00 0.0000e+00 1.0000e+00
       12  1    3    3    0    0 -2.2915395977e+01 -3.6241038144e+01 +6.7153368228e+00 4.3400736943e+01 0.0000000000e+00 0.0000e+00 -1.0000e+00
</event>
<event>
 8      4 +3.7482383e-04 9.11880000e+01 7.81616400e-03 1.18400000e-01
      -11 -1    0    0    0    0 +0.0000000000e+00 +0.0000000000e+00 +4.5593999997e+01 4.5594000000e+01 5.1100000000e-04 0.0000e+00 -1.0000e+00
       11 -1    0    0    0    0 -0.0000000000e+00 -0.0000000000e+00 -4.5593999997e+01 4.5594000000e+01 5.1100000000e-04 0.0000e+00 1.0000e+00
       23  2    1    2    0    0 +0.0000000000e+00 +0.0000000000e+00 +0.0000000000e+00 9.1188000000e+01 9.1188000000e+01 6.2398e-14 0.0000e+00
 -9990012  2    3    3    0    0 +4.9471228357e+00 +1.0625829864e+01 -4.1788050271e+01 4.7787269245e+01 1.9999991795e+01 1.5214e-01 0.0000e+00
      -11  1    4    4    0    0 +7.3332485289e+00 +5.0696052679e+00 -3.1012596408e+01 3.2268538358e+01 5.1100000000e-04 0.0000e+00 1.0000e+00
       11  1    4    4    0    0 +1.6097138750e+00 +2.0158322410e+00 +8.5813865712e-01 2.7186689021e+00 5.1100000000e-04 0.0000e+00 -1.0000e+00
      -12  1    4    4    0    0 -3.9958395681e+00 +3.5403923553e+00 -1.1633592520e+01 1.2800061984e+01 0.0000000000e+00 0.0000e+00 1.0000e+00
       12  1    3    3    0    0 -4.9471228357e+00 -1.0625829864e+01 +4.1788050271e+01 4.3400730755e+01 0.0000000000e+00 0.0000e+00 -1.0000e+00
</event>
<event>
 8      3 +3.7482383e-04 9.11880000e+01 7.81616400e-03 1.18400000e-01
      -11 -1    0    0    0    0 +0.0000000000e+00 +0.0000000000e+00 +4.5593999997e+01 4.5594000000e+01 5.1100000000e-04 0.0000e+00 1.0000e+00
       11 -1    0    0    0    0 -0.0000000000e+00 -0.0000000000e+00 -4.5593999997e+01 4.5594000000e+01 5.1100000000e-04 0.0000e+00 -1.0000e+00
       23  2    1    2    0    0 +0.0000000000e+00 -8.8817841970e-16 +0.0000000000e+00 9.1188000000e+01 9.1188000000e+01 1.4463e-13 0.0000e+00
  9990012  2    3    3    0    0 +3.4640016197e+00 -6.6928381752e+00 -4.2741433859e+01 4.7787267767e+01 1.9999985057e+01 2.3819e-02 0.0000e+00
      -11  1    4    4    0    0 +1.2705203946e+00 -7.2604633112e+00 -1.0242132868e+01 1.2618630493e+01 5.1100000000e-04 0.0000e+00 1.0000e+00
       11  1    4    4    0    0 +6.6926440920e+00 -3.2126777224e+00 -2.0611376145e+01 2.1907569695e+01 5.1100000000e-04 0.0000e+00 -1.0000e+00
       12  1    4    4    0    0 -4.4991628669e+00 +3.7803028584e+00 -1.1887924846e+01 1.3261067580e+01 0.0000000000e+00 0.0000e+00 -1.0000e+00
      -12  1    3    3    0    0 -3.4640016197e+00 +6.6928381752e+00 +4.2741433859e+01 4.3400732233e+01 0.0000000000e+00 0.0000e+00 1.0000e+00
</event>
<event>
 8      3 +3.7482383e-04 9.11880000e+01 7.81616400e-03 1.18400000e-01
      -11 -1    0    0    0    0 +0.0000000000e+00 +0.0000000000e+00 +4.5593999997e+01 4.5594000000e+01 5.1100000000e-04 0.0000e+00 -1.0000e+00
       11 -1    0    0    0    0 -0.0000000000e+00 -0.0000000000e+00 -4.5593999997e+01 4.5594000000e+01 5.1100000000e-04 0.0000e+00 1.0000e+00
       23  2    1    2    0    0 +0.0000000000e+00 +0.0000000000e+00 +0.0000000000e+00 9.1188000000e+01 9.1188000000e+01 5.9943e-14 0.0000e+00
  9990012  2    3    3    0    0 +7.4613233090e+00 -2.2797638189e+01 +3.6169312444e+01 4.7787276329e+01 2.0000024093e+01 1.4530e-01 0.0000e+00
      -11  1    4    4    0    0 -1.3622623235e+00 +7.7071006340e-02 +3.3377468766e+00 3.6058637039e+00 5.1100000000e-04 0.0000e+00 1.0000e+00
       11  1    4    4    0    0 +6.7225519246e+00 -2.5717351437e+00 +2.4960288762e+00 7.6181813079e+00 5.1100000000e-04 0.0000e+00 -1.0000e+00
       12  1    4    4    0    0 +2.1010337079e+00 -2.0302974052e+01 +3.0335536691e+01 3.6563231317e+01 0.0000000000e+00 0.0000e+00 -1.0000e+00
      -12  1    3    3    0    0 -7.4613233090e+00 +2.2797638189e+01 -3.6169312444e+01 4.3400723671e+01 0.0000000000e+00 0.0000e+00 1.0000e+00
</event>
<event>
 8      3 +3.7482383e-04 9.11880000e+01 7.81616400e-03 1.18400000e-01
      -11 -1    0    0    0    0 +0.0000000000e+00 +0.0000000000e+00 +4.5593999997e+01 4.5594000000e+01 5.1100000000e-04 0.0000e+00 1.0000e+00
       11 -1    0    0    0    0 -0.0000000000e+00 -0.0000000000e+00 -4.5593999997e+01 4.5594000000e+01 5.1100000000e-04 0.0000e+00 -1.0000e+00
       23  2    1    2    0    0 +1.7763568394e-15 +3.5527136788e-15 +0.0000000000e+00 9.1188000000e+01 9.1188000000e+01 2.1482e-14 0.0000e+00
  9990012  2    3    3    0    0 -1.1626315950e+01 -2.5631647117e+01 -3.3037411229e+01 4.7787273079e+01 2.0000009276e+01 1.9403e-01 0.0000e+00
      -11  1    4    4    0    0 +1.9352416482e+00 -1.1042209595e+01 -1.4149361310e+01 1.8052146097e+01 5.1100000000e-04 0.0000e+00 1.0000e+00
       11  1    4    4    0    0 -1.8154925330e+00 +1.5776151992e+00 -4.5278548091e+00 5.1270217756e+00 5.1100000000e-04 0.0000e+00 -1.0000e+00
       12  1    4    4    0    0 -1.1746065066e+01 -1.6167052721e+01 -1.4360195111e+01 2.4608105206e+01 0.0000000000e+00 0.0000e+00 -1.0000e+00
      -12  1    3    3    0    0 +1.1626315950e+01 +2.5631647117e+01 +3.3037411229e+01 4.3400726921e+01 0.0000000000e+00 0.0000e+00 1.0000e+00
</event>
<event>
 8      4 +3.7482383e-04 9.11880000e+01 7.81616400e-03 1.18400000e-01
      -11 -1    0    0    0    0 +0.0000000000e+00 +0.0000000000e+00 +4.5593999997e+01 4.5594000000e+01 5.1100000000e-04 0.0000e+00 1.0000e+00
       11 -1    0    0    0    0 -0.0000000000e+00 -0.0000000000e+00 -4.5593999997e+01 4.5594000000e+01 5.1100000000e-04 0.0000e+00 -1.0000e+00
       23  2    1    2    0    0 +0.0000000000e+00 +0.0000000000e+00 -3.5527136788e-15 9.1188000000e+01 9.1188000000e+01 9.1406e-14 0.0000e+00
 -9990012  2    3    3    0    0 -3.5964877430e+01 -1.7218867000e+01 +1.7136542683e+01 4.7787275531e+01 2.0000020456e+01 9.9697e-03 0.0000e+00
      -11  1    4    4    0    0 -6.7325320421e+00 +3.2001283622e+00 -2.2442436322e-01 7.4577594348e+00 5.1100000000e-04 0.0000e+00 -1.0000e+00
       11  1    4    4    0    0 -2.2889831450e+01 -1.2002335888e+01 +1.2886325517e+01 2.8880059490e+01 5.1100000000e-04 0.0000e+00 1.0000e+00
      -12  1    4    4    0    0 -6.3425139373e+00 -8.4166594741e+00 +4.4746415299e+00 1.1449456606e+01 0.0000000000e+00 0.0000e+00 1.0000e+00
       12  1    3    3    0    0 +3.5964877430e+01 +1.7218867000e+01 -1.7136542683e+01 4.3400724469e+01 0.0000000000e+00 0.0000e+00 -1.0000e+00
</event>
<event>
 8      4 +3.7482383e-04 9.11880000e+01 7.81616400e-03 1.18400000e-01
      -11 -1    0    0    0    0 +0.0000000000e+00 +0.0000000000e+00 +4.5593999997e+01 4.5594000000e+01 5.1100000000e-04 0.0000e+00 1.0000e+00
       11 -1    0    0    0    0 -0.0000000000e+00 -0.0000000000e+00 -4.5593999997e+01 4.5594000000e+01 5.1100000000e-04 0.0000e+00 -1.0000e+00
       23  2    1    2    0    0 +0.0000000000e+00 +0.0000000000e+00 +0.0000000000e+00 9.1188000000e+01 9.1188000000e+01 8.1519e-14 0.0000e+00
 -9990012  2    3    3    0    0 -1.8296934123e+01 -1.5713102763e+01 +3.6082463490e+01 4.7787267653e+01 1.9999984539e+01 4.7420e-01 0.0000e+00
      -11  1    4    4    0    0 -3.2034232207e+00 -5.7694253987e+00 +1.8547452651e+00 6.8547990504e+00 5.1100000000e-04 0.0000e+00 1.0000e+00
       11  1    4    4    0    0 +2.0908658187e+00 -2.4988328963e+00 +8.5581854516e+00 9.1574245397e+00 5.1100000000e-04 0.0000e+00 -1.0000e+00
      -12  1    4    4    0    0 -1.7184376721e+01 -7.4448444682e+00 +2.5669532773e+01 3.1775044063e+01 0.0000000000e+00 0.0000e+00 1.0000e+00
       12  1    3    3    0    0 +1.8296934123e+01 +1.5713102763e+01 -3.6082463490e+01 4.3400732347e+01 0.0000000000e+00 0.0000e+00 -1.0000e+00
</event>
<event>
 8      4 +3.7482383e-04 9.11880000e+01 7.81616400e-03 1.18400000e-01
      -11 -1    0    0    0    0 +0.0000000000e+00 +0.0000000000e+00 +4.5593999997e+01 4.5594000000e+01 5.1100000000e-04 0.0000e+00 1.0000e+00
       11 -1    0    0    0    0 -0.0000000000e+00 -0.0000000000e+00 -4.5593999997e+01 4.5594000000e+01 5.1100000000e-04 0.0000e+00 -1.0000e+00
       23  2    1    2    0    0 +0.0000000000e+00 -3.5527136788e-15 +3.3306690739e-16 9.1188000000e+01 9.1188000000e+01 2.8410e-14 0.0000e+00
 -9990012  2    3    3    0    0 +3.7550875239e+01 +2.1754885200e+01 -5.2894798042e-01 4.7787273655e+01 2.0000011904e+01 5.5282e-02 0.0000e+00
      -11  1    4    4    0    0 +1.3990909965e+01 +3.3641423527e+00 +4.1558575416e+00 1.4977789142e+01 5.1100000000e-04 0.0000e+00 1.0000e+00
       11  1    4    4    0    0 +1.4848940508e+01 +5.3556622112e+00 -6.4098056508e+00 1.7037011494e+01 5.1100000000e-04 0.0000e+00 -1.0000e+00
      -12  1    4    4    0    0 +8.7110247663e+00 +1.3035080637e+01 +1.7250001288e+00 1.5772473019e+01 0.0000000000e+00 0.0000e+00 1.0000e+00
       12  1    3    3    0    0 -3.7550875239e+01 -2.1754885200e+01 +5.2894798042e-01 4.3400726345e+01 0.0000000000e+00 0.0000e+00 -1.0000e+00
</event>
<event>
 8      4 +3.7482383e-04 9.11880000e+01 7.81616400e-03 1.18400000e-01
      -11 -1    0    0    0    0 +0.0000000000e+00 +0.0000000000e+00 +4.5593999997e+01 4.5594000000e+01 5.1100000000e-04 0.0000e+00 1.0000e+00
       11 -1    0    0    0    0 -0.0000000000e+00 -0.0000000000e+00 -4.5593999997e+01 4.5594000000e+01 5.1100000000e-04 0.0000e+00 -1.0000e+00
       23  2    1    2    0    0 +0.0000000000e+00 +3.5527136788e-15 +7.1054273576e-15 9.1188000000e+01 9.1188000000e+01 1.3706e-14 0.0000e+00
 -9990012  2    3    3    0    0 -2.0315320115e+01 +1.6601614322e+01 +3.4573068123e+01 4.7787275710e+01 2.0000021273e+01 2.6153e-01 0.0000e+00
      -11  1    4    4    0    0 -5.2680057814e+00 +3.9298433423e+00 +5.9907579184e+00 8.8929598170e+00 5.1100000000e-04 0.0000e+00 1.0000e+00
       11  1    4    4    0    0 -1.6649677229e+01 +7.1961936030e+00 +1.3043411270e+01 2.2341162280e+01 5.1100000000e-04 0.0000e+00 -1.0000e+00
      -12  1    4    4    0    0 +1.6023628955e+00 +5.4755773762e+00 +1.5538898935e+01 1.6553153614e+01 0.0000000000e+00 0.0000e+00 1.0000e+00
       12  1    3    3    0    0 +2.0315320115e+01 -1.6601614322e+01 -3.4573068123e+01 4.3400724290e+01 0.0000000000e+00 0.0000e+00 -1.0000e+00
</event>
<event>
 8      3 +3.7482383e-04 9.11880000e+01 7.81616400e-03 1.18400000e-01
      -11 -1    0    0    0    0 +0.0000000000e+00 +0.0000000000e+00 +4.5593999997e+01 4.5594000000e+01 5.1100000000e-04 0.0000e+00 -1.0000e+00
       11 -1    0    0    0    0 -0.0000000000e+00 -0.0000000000e+00 -4.5593999997e+01 4.5594000000e+01 5.1100000000e-04 0.0000e+00 1.0000e+00
       23  2    1    2    0    0 +0.0000000000e+00 +0.0000000000e+00 +0.0000000000e+00 9.1188000000e+01 9.1188000000e+01 1.4547e-13 0.0000e+00
  9990012  2    3    3    0    0 -2.8877533262e+01 -3.2388373979e+01 -8.3916276787e-01 4.7787275461e+01 2.0000020138e+01 2.8214e-01 0.0000e+00
      -11  1    4    4    0    0 -7.2417839787e+00 +7.0786144913e-01 +1.1085783764e+00 7.3602614969e+00 5.1100000000e-04 0.0000e+00 1.0000e+00
       11  1    4    4    0    0 -1.4599019270e+01 -2.0921505709e+01 +2.6102396000e+00 2.5644767805e+01 5.1100000000e-04 0.0000e+00 -1.0000e+00
       12  1    4    4    0    0 -7.0367300139e+00 -1.2174729720e+01 -4.5579807442e+00 1.4782246159e+01 0.0000000000e+00 0.0000e+00 -1.0000e+00
      -12  1    3    3    0    0 +2.8877533262e+01 +3.2388373979e+01 +8.3916276787e-01 4.3400724539e+01 0.0000000000e+00 0.0000e+00 1.0000e+00
</event>
<event>
 8      4 +3.7482383e-04 9.11880000e+01 7.81616400e-03 1.18400000e-01
      -11 -1    0    0    0    0 +0.0000000000e+00 +0.0000000000e+00 +4.5593999997e+01 4.5594000000e+01 5.1100000000e-04 0.0000e+00 1.0000e+00
       11 -1    0    0    0    0 -0.0000000000e+00 -0.0000000000e+00 -4.5593999997e+01 4.5594000000e+01 5.1100000000e-04 0.0000e+00 -1.0000e+00
       23  2    1    2    0    0 +0.0000000000e+00 +3.5527136788e-15 +0.0000000000e+00 9.1188000000e+01 9.1188000000e+01 5.7653e-14 0.0000e+00
 -9990012  2    3    3    0    0 +3.2612983564e+01 +2.1238691756e+01 +1.9207667553e+01 4.7787271697e+01 2.0000002976e+01 1.5137e-01 0.0000e+00
      -11  1    4    4    0    0 -6.8586598183e-01 -2.4590619327e+00 +5.2704281090e-02 2.5534634786e+00 5.1100000000e-04 0.0000e+00 1.0000e+00
       11  1    4    4    0    0 +1.3731245284e+01 +8.2667533369e+00 +6.6535645485e+00 1.7353853440e+01 5.1100000000e-04 0.0000e+00 -1.0000e+00
      -12  1    4    4    0    0 +1.9567604262e+01 +1.5431000351e+01 +1.2501398723e+01 2.7879954778e+01 0.0000000000e+00 0.0000e+00 1.0000e+00
       12  1    3    3    0    0 -3.2612983564e+01 -2.1238691756e+01 -1.9207667553e+01 4.3400728303e+01 0.0000000000e+00 0.0000e+00 -1.0000e+00
</event>
<event>
 8      3 +3.7482383e-04 9.11880000e+01 7.81616400e-03 1.18400000e-01
      -11 -1    0    0    0    0 +0.0000000000e+00 +0.0000000000e+00 +4.5593999997e+01 4.5594000000e+01 5.1100000000e-04 0.0000e+00 1.0000e+00
       11 -1    0    0    0    0 -0.0000000000e+00 -0.0000000000e+00 -4.5593999997e+01 4.5594000000e+01 5.1100000000e-04 0.0000e+00 -1.0000e+00
       23  2    1    2    0    0 -3.5527136788e-15 +7.1054273576e-15 -8.8817841970e-16 9.1188000000e+01 9.1188000000e+01 1.4748e-13 0.0000e+00
  9990012  2    3    3    0    0 -2.1734529560e+01 +3.7066084494e+01 -6.1105618047e+00 4.7787270047e+01 1.9999995451e+01 4.9131e-01 0.0000e+00
      -11  1    4    4    0    0 -5.9441681243e+00 +1.7003968736e+01 +4.9453251626e+00 1.8679516286e+01 5.1100000000e-04 0.0000e+00 1.0000e+00
       11  1    4    4    0    0 -9.4257686268e+00 +1.7818411114e+01 -7.7929986859e+00 2.1611842069e+01 5.1100000000e-04 0.0000e+00 -1.0000e+00
       12  1    4    4    0    0 -6.3645928086e+00 +2.2437046443e+00 -3.2628882814e+00 7.4959116916e+00 0.0000000000e+00 0.0000e+00 -1.0000e+00
      -12  1    3    3    0    0 +2.1734529560e+01 -3.7066084494e+01 +6.1105618047e+00 4.3400729953e+01 0.0000000000e+00 0.0000e+00 1.0000e+00
</event>
<event>
 8      3 +3.7482383e-04 9.11880000e+01 7.81616400e-03 1.18400000e-01
      -11 -1    0    0    0    0 +0.0000000000e+00 +0.0000000000e+00 +4.5593999997e+01 4.5594000000e+01 5.1100000000e-04 0.0000e+00 -1.0000e+00
       11 -1    0    0    0    0 -0.0000000000e+00 -0.0000000000e+00 -4.5593999997e+01 4.5594000000e+01 5.1100000000e-04 0.0000e+00 1.0000e+00
       23  2    1    2    0    0 +0.0000000000e+00 -1.7763568394e-15 +0.0000000000e+00 9.1188000000e+01 9.1188000000e+01 1.0273e-14 0.0000e+00
  9990012  2    3    3    0    0 +3.0082517003e+01 +1.1544956578e+01 +2.9075405910e+01 4.7787273273e+01 2.0000010159e+01 6.1480e-02 0.0000e+00
      -11  1    4    4    0    0 +6.5792297065e-01 -6.2765196129e-01 -2.5241203990e-01 9.4367458312e-01 5.1100000000e-04 0.0000e+00 1.0000e+00
       11  1    4    4    0    0 +2.8480678479e+01 +1.4997879918e+01 +2.2152474128e+01 3.9074512907e+01 5.1100000000e-04 0.0000e+00 -1.0000e+00
       12  1    4    4    0    0 +9.4391555378e-01 -2.8252713788e+00 +7.1753438221e+00 7.7690857828e+00 0.0000000000e+00 0.0000e+00 -1.0000e+00
      -12  1    3    3    0    0 -3.0082517003e+01 -1.1544956578e+01 -2.9075405910e+01 4.3400726727e+01 0.0000000000e+00 0.0000e+00 1.0000e+00
</event>
<event>
 8      3 +3.7482383e-04 9.11880000e+01 7.81616400e-03 1.18400000e-01
      -11 -1    0    0    0    0 +0.0000000000e+00 +0.0000000000e+00 +4.5593999997e+01 4.5594000000e+01 5.1100000000e-04 0.0000e+00 -1.0000e+00
       11 -1    0    0    0    0 -0.0000000000e+00 -0.0000000000e+00 -4.5593999997e+01 4.5594000000e+01 5.1100000000e-04 0.0000e+00 1.0000e+00
       23  2    1    2    0    0 +1.7763568394e-15 +0.0000000000e+00 -3.5527136788e-15 9.1188000000e+01 9.1188000000e+01 1.1576e-13 0.0000e+00
  9990012  2    3    3    0    0 -1.2465944575e+01 -3.3483906150e+01 +2.4638412212e+01 4.7787273030e+01 2.0000009051e+01 4.8457e-03 0.0000e+00
      -11  1    4    4    0    0 -6.4580738768e+00 -3.7233686529e+00 -2.9860155253e-01 7.4605197856e+00 5.1100000000e-04 0.0000e+00 1.0000e+00
       11  1    4    4    0    0 +1.7018201102e+00 -1.4111675470e+01 +1.2117663139e+01 1.8678151313e+01 5.1100000000e-04 0.0000e+00 -1.0000e+00
       12  1    4    4    0    0 -7.7096908080e+00 -1.5648862027e+01 +1.2819350626e+01 2.1648601931e+01 0.0000000000e+00 0.0000e+00 -1.0000e+00
      -12  1    3    3    0    0 +1.2465944575e+01 +3.3483906150e+01 -2.4638412212e+01 4.3400726970e+01 0.0000000000e+00 0.0000e+00 1.0000e+00
</event>
<event>
 8      4 +3.7482383e-04 9.11880000e+01 7.81616400e-03 1.18400000e-01
      -11 -1    0    0    0    0 +0.0000000000e+00 +0.0000000000e+00 +4.5593999997e+01 4.5594000000e+01 5.1100000000e-04 0.0000e+00 1.0000e+00
       11 -1    0    0    0    0 -0.0000000000e+00 -0.0000000000e+00 -4.5593999997e+01 4.5594000000e+01 5.1100000000e-04 0.0000e+00 -1.0000e+00
       23  2    1    2    0    0 -3.5527136788e-15 -7.1054273576e-15 -5.5511151231e-16 9.1188000000e+01 9.1188000000e+01 2.7730e-13 0.0000e+00
 -9990012  2    3    3    0    0 +1.8180818567e+01 +3.9402526796e+01 -7.2321388250e-01 4.7787258993e+01 1.9999945051e+01 6.8890e-01 0.0000e+00
      -11  1    4    4    0    0 -4.5753776799e-01 +2.3290142704e-01 -2.6282289162e+00 2.6779042889e+00 5.1100000000e-04 0.0000e+00 1.0000e+00
       11  1    4    4    0    0 +5.4556680370e+00 +5.6657976747e+00 +4.4115825564e+00 9.0181837381e+00 5.1100000000e-04 0.0000e+00 -1.0000e+00
      -12  1    4    4    0    0 +1.3182688298e+01 +3.3503827694e+01 -2.5065675228e+00 3.6091170966e+01 0.0000000000e+00 0.0000e+00 1.0000e+00
       12  1    3    3    0    0 -1.8180818567e+01 -3.9402526796e+01 +7.2321388250e-01 4.3400741007e+01 0.0000000000e+00 0.0000e+00 -1.0000e+00
</event>
<event>
 8      3 +3.7482383e-04 9.11880000e+01 7.81616400e-03 1.18400000e-01
      -11 -1    0    0    0    0 +0.0000000000e+00 +0.0000000000e+00 +4.5593999997e+01 4.5594000000e+01 5.1100000000e-04 0.0000e+00 1.0000e+00
       11 -1    0    0    0    0 -0.0000000000e+00 -0.0000000000e+00 -4.5593999997e+01 4.5594000000e+01 5.1100000000e-04 0.0000e+00 -1.0000e+00
       23  2    1    2    0    0 +1.7763568394e-15 +3.5527136788e-15 +3.5527136788e-15 9.1188000000e+01 9.1188000000e+01 9.2660e-15 0.0000e+00
  9990012  2    3    3    0    0 -9.5440180811e+00 -2.8723478877e+01 +3.1104610639e+01 4.7787270479e+01 1.9999997423e+01 4.5658e-02 0.0000e+00
      -11  1    4    4    0    0 +4.0492574014e+00 -1.0910076148e+01 +5.6360223863e+00 1.2930235716e+01 5.1100000000e-04 0.0000e+00 1.0000e+00
       11  1    4    4    0    0 -1.7768669758e-02 +6.7597939209e-02 -5.1399723567e-01 5.1872789245e-01 5.1100000000e-04 0.0000e+00 -1.0000e+00
       12  1    4    4    0    0 -1.3575506813e+01 -1.7881000668e+01 +2.5982585488e+01 3.4338306871e+01 0.0000000000e+00 0.0000e+00 -1.0000e+00
      -12  1    3    3    0    0 +9.5440180811e+00 +2.8723478877e+01 -3.1104610639e+01 4.3400729521e+01 0.0000000000e+00 0.0000e+00 1.0000e+00
</event>
<event>
 8      4 +3.7482383e-04 9.11880000e+01 7.81616400e-03 1.18400000e-01
      -11 -1    0    0    0    0 +0.0000000000e+00 +0.0000000000e+00 +4.5593999997e+01 4.5594000000e+01 5.1100000000e-04 0.0000e+00 -1.0000e+00
       11 -1    0    0    0    0 -0.0000000000e+00 -0.0000000000e+00 -4.5593999997e+01 4.5594000000e+01 5.1100000000e-04 0.0000e+00 1.0000e+00
       23  2    1    2    0    0 +0.0000000000e+00 -1.7763568394e-15 +0.0000000000e+00 9.1188000000e+01 9.1188000000e+01 2.4110e-14 0.0000e+00
 -9990012  2    3    3    0    0 -2.8467453199e+01 +1.0230406520e+01 -3.1121792579e+01 4.7787273249e+01 2.0000010050e+01 1.4696e-01 0.0000e+00
      -11  1    4    4    0    0 -4.1211967678e+00 -2.0192804515e+00 -1.2761373768e+01 1.3561504970e+01 5.1100000000e-04 0.0000e+00 1.0000e+00
       11  1    4    4    0    0 -1.1214177686e+01 +2.2271611396e+00 -3.3726730834e+00 1.1920274825e+01 5.1100000000e-04 0.0000e+00 -1.0000e+00
      -12  1    4    4    0    0 -1.3132078745e+01 +1.0022525831e+01 -1.4987745728e+01 2.2305493454e+01 0.0000000000e+00 0.0000e+00 1.0000e+00
       12  1    3    3    0    0 +2.8467453199e+01 -1.0230406520e+01 +3.1121792579e+01 4.3400726751e+01 0.0000000000e+00 0.0000e+00 -1.0000e+00
</event>
<event>
 8      3 +3.7482383e-04 9.11880000e+01 7.81616400e-03 1.18400000e-01
      -11 -1    0    0    0    0 +0.0000000000e+00 +0.0000000000e+00 +4.5593999997e+01 4.5594000000e+01 5.1100000000e-04 0.0000e+00 -1.0000e+00
       11 -1    0    0    0    0 -0.0000000000e+00 -0.0000000000e+00 -4.5593999997e+01 4.5594000000e+01 5.1100000000e-04 0.0000e+00 1.0000e+00
       23  2    1    2    0    0 +0.0000000000e+00 +0.0000000000e+00 -1.7763568394e-15 9.1188000000e+01 9.1188000000e+01 1.3773e-13 0.0000e+00
  9990012  2    3    3    0    0 +1.7644429860e+01 +3.9187737419e+01 +6.0513456758e+00 4.7787268974e+01 1.9999990560e+01 5.0065e-02 0.0000e+00
      -11  1    4    4    0    0 -1.3543154722e+00 +1.0719137075e+01 +4.9648342902e+00 1.1890485685e+01 5.1100000000e-04 0.0000e+00 -1.0000e+00
       11  1    4    4    0    0 +7.6803478584e+00 +1.9246593490e+01 -2.4728550338e+00 2.0869454149e+01 5.1100000000e-04 0.0000e+00 1.0000e+00
       12  1    4    4    0    0 +1.1318397474e+01 +9.2220068543e+00 +3.5593664194e+00 1.5027329141e+01 0.0000000000e+00 0.0000e+00 -1.0000e+00
      -12  1    3    3    0    0 -1.7644429860e+01 -3.9187737419e+01 -6.0513456758e+00 4.3400731026e+01 0.0000000000e+00 0.0000e+00 1.0000e+00
</event>
<event>
 8      4 +3.7482383e-04 9.11880000e+01 7.81616400e-03 1.18400000e-01
      -11 -1    0    0    0    0 +0.0000000000e+00 +0.0000000000e+00 +4.5593999997e+01 4.5594000000e+01 5.1100000000e-04 0.0000e+00 1.0000e+00
       11 -1    0    0    0    0 -0.0000000000e+00 -0.0000000000e+00 -4.5593999997e+01 4.5594000000e+01 5.1100000000e-04 0.0000e+00 -1.0000e+00
       23  2    1    2    0    0 +0.0000000000e+00 +0.0000000000e+00 +3.5527136788e-15 9.1188000000e+01 9.1188000000e+01 1.0328e-13 0.0000e+00
 -9990012  2    3    3    0    0 -2.1629339835e+01 +2.9104980001e+01 +2.3847328167e+01 4.7787271167e+01 2.0000000558e+01 1.0406e-01 0.0000e+00
      -11  1    4    4    0    0 -8.6604099891e-02 +6.9316059850e+00 +5.9699775440e+00 9.1485132092e+00 5.1100000000e-04 0.0000e+00 1.0000e+00
       11  1    4    4    0    0 -2.2481330372e+01 +2.1027134684e+01 +1.9501986437e+01 3.6440061520e+01 5.1100000000e-04 0.0000e+00 -1.0000e+00
      -12  1    4    4    0    0 +9.3859463657e-01 +1.1462393318e+00 -1.6246358140e+00 2.1986964378e+00 0.0000000000e+00 0.0000e+00 1.0000e+00
       12  1    3    3    0    0 +2.1629339835e+01 -2.9104980001e+01 -2.3847328167e+01 4.3400728833e+01 0.0000000000e+00 0.0000e+00 -1.0000e+00
</event>
<event>
 8      3 +3.7482383e-04 9.11880000e+01 7.81616400e-03 1.18400000e-01
      -11 -1    0    0    0    0 +0.0000000000e+00 +0.0000000000e+00 +4.5593999997e+01 4.5594000000e+01 5.1100000000e-04 0.0000e+00 1.0000e+00
       11 -1    0    0    0    0 -0.0000000000e+00 -0.0000000000e+00 -4.5593999997e+01 4.5594000000e+01 5.1100000000e-04 0.0000e+00 -1.0000e+00
       23  2    1    2    0    0 -7.1054273576e-15 -8.8817841970e-16 +3.5527136788e-15 9.1188000000e+01 9.1188000000e+01 1.0420e-13 0.0000e+00
  9990012  2    3    3    0    0 +3.4177891575e+01 +2.3414848347e+00 -2.6646064002e+01 4.7787267857e+01 1.9999985469e+01 1.6674e-01 0.0000e+00
      -11  1    4    4    0    0 +2.9672439184e+00 +2.4021323344e+00 -1.1593597693e+00 3.9898485634e+00 5.1100000000e-04 0.0000e+00 1.0000e+00
       11  1    4    4    0    0 +2.0166826865e+01 +5.9358759239e+00 -2.2673441918e+01 3.0919581133e+01 5.1100000000e-04 0.0000e+00 -1.0000e+00
       12  1    4    4    0    0 +1.1043820792e+01 -5.9965234236e+00 -2.8132623147e+00 1.2877838161e+01 0.0000000000e+00 0.0000e+00 -1.0000e+00
      -12  1    3    3    0    0 -3.4177891575e+01 -2.3414848347e+00 +2.6646064002e+01 4.3400732143e+01 0.0000000000e+00 0.0000e+00 1.0000e+00
</event>
<event>
 8      3 +3.7482383e-04 9.11880000e+01 7.81616400e-03 1.18400000e-01
      -11 -1    0    0    0    0 +0.0000000000e+00 +0.0000000000e+00 +4.5593999997e+01 4.5594000000e+01 5.1100000000e-04 0.0000e+00 -1.0000e+00
       11 -1    0    0    0    0 -0.0000000000e+00 -0.0000000000e+00 -4.5593999997e+01 4.5594000000e+01 5.1100000000e-04 0.0000e+00 1.0000e+00
       23  2    1    2    0    0 +0.0000000000e+00 +0.0000000000e+00 +3.5527136788e-15 9.1188000000e+01 9.1188000000e+01 5.9562e-13 0.0000e+00
  9990012  2    3    3    0    0 -2.0524607310e+01 -2.6836936047e+01 +2.7242287661e+01 4.7787275598e+01 2.0000020761e+01 1.4237e-01 0.0000e+00
      -11  1    4    4    0    0 -3.6599553591e+00 -8.2718311334e+00 -6.8840637830e-01 9.0715140485e+00 5.1100000000e-04 0.0000e+00 1.0000e+00
       11  1    4    4    0    0 -1.2952139900e+01 -7.4009212350e+00 +1.6885197285e+01 2.2530899909e+01 5.1100000000e-04 0.0000e+00 -1.0000e+00
       12  1    4    4    0    0 -3.9125120517e+00 -1.1164183678e+01 +1.1045496755e+01 1.6184861640e+01 0.0000000000e+00 0.0000e+00 -1.0000e+00
      -12  1    3    3    0    0 +2.0524607310e+01 +2.6836936047e+01 -2.7242287661e+01 4.3400724402e+01 0.0000000000e+00 0.0000e+00 1.0000e+00
</event>
<event>
 8      4 +3.7482383e-04 9.11880000e+01 7.81616400e-03 1.18400000e-01
      -11 -1    0    0    0    0 +0.0000000000e+00 +0.0000000000e+00 +4.5593999997e+01 4.5594000000e+01 5.1100000000e-04 0.0000e+00 -1.0000e+00
       11 -1    0    0    0    0 -0.0000000000e+00 -0.0000000000e+00 -4.5593999997e+01 4.5594000000e+01 5.1100000000e-04 0.0000e+00 1.0000e+00
       23  2    1    2    0    0 -3.5527136788e-15 +0.0000000000e+00 +0.0000000000e+00 9.1188000000e+01 9.1188000000e+01 3.0531e-14 0.0000e+00
 -9990012  2    3    3    0    0 -2.2991146355e+01 -1.5338517557e+01 -3.3462822640e+01 4.7787269239e+01 1.9999991766e+01 7.0043e-02 0.0000e+00
      -11  1    4    4    0    0 -1.2257470260e+01 +3.9759190654e-01 -1.3232278624e+01 1.8041531375e+01 5.1100000000e-04 0.0000e+00 1.0000e+00
       11  1    4    4    0    0 -8.7015248626e+00 -4.8841420095e+00 -5.6840820893e+00 1.1483909071e+01 5.1100000000e-04 0.0000e+00 -1.0000e+00
      -12  1    4    4    0    0 -2.0321512327e+00 -1.0851967454e+01 -1.4546461927e+01 1.8261828792e+01 0.0000000000e+00 0.0000e+00 1.0000e+00
       12  1    3    3    0    0 +2.2991146355e+01 +1.5338517557e+01 +3.3462822640e+01 4.3400730761e+01 0.0000000000e+00 0.0000e+00 -1.0000e+00
</event>
<event>
 8      3 +3.7482383e-04 9.11880000e+01 7.81616400e-03 1.18400000e-01
      -11 -1    0    0    0    0 +0.0000000000e+00 +0.0000000000e+00 +4.5593999997e+01 4.5594000000e+01 5.1100000000e-04 0.0000e+00 1.0000e+00
       11 -1    0    0    0    0 -0.0000000000e+00 -0.0000000000e+00 -4.5593999997e+01 4.5594000000e+01 5.1100000000e-04 0.0000e+00 -1.0000e+00
       23  2    1    2    0    0 +3.5527136788e-15 +0.0000000000e+00 +7.1054273576e-15 9.1188000000e+01 9.1188000000e+01 7.7172e-15 0.0000e+00
  9990012  2    3    3    0    0 -1.8072958824e+01 +9.9395904465e+00 -3.8186337990e+01 4.7787266044e+01 1.9999977199e+01 7.4244e-02 0.0000e+00
      -11  1    4    4    0    0 -4.9550592204e+00 +2.5062765467e+00 +1.3909112229e-01 5.5545819472e+00 5.1100000000e-04 0.0000e+00 1.0000e+00
       11  1    4    4    0    0 +1.4344423406e+00 +6.8427121837e-01 -2.2827281381e+00 2.7814923948e+00 5.1100000000e-04 0.0000e+00 -1.0000e+00
       12  1    4    4    0    0 -1.4552341944e+01 +6.7490426815e+00 -3.6042700974e+01 3.9451191702e+01 0.0000000000e+00 0.0000e+00 -1.0000e+00
      -12  1    3    3    0    0 +1.8072958824e+01 -9.9395904465e+00 +3.8186337990e+01 4.3400733956e+01 0.0000000000e+00 0.0000e+00 1.0000e+00
</event>
<event>
 8      4 +3.7482383e-04 9.11880000e+01 7.81616400e-03 1.18400000e-01
      -11 -1    0    0    0    0 +0.0000000000e+00 +0.0000000000e+00 +4.5593999997e+01 4.5594000000e+01 5.1100000000e-04 0.0000e+00 -1.0000e+00
       11 -1    0    0    0    0 -0.0000000000e+00 -0.0000000000e+00 -4.5593999997e+01 4.5594000000e+01 5.1100000000e-04 0.0000e+00 1.0000e+00
       23  2    1    2    0    0 +0.0000000000e+00 +0.0000000000e+00 +0.0000000000e+00 9.1188000000e+01 9.1188000000e+01 6.8052e-14 0.0000e+00
 -9990012  2    3    3    0    0 +3.7786188115e+01 +3.2152169520e+00 -2.1106611659e+01 4.7787277794e+01 2.0000030773e+01 6.6217e-03 0.0000e+00
      -11  1    4    4    0    0 +4.5019784790e+00 -3.9104126582e+00 -4.7591456685e+00 7.6294564117e+00 5.1100000000e-04 0.0000e+00 1.0000e+00
       11  1    4    4    0    0 +1.0773542325e+01 +4.5680478452e+00 -1.2597651176e+01 1.7194100463e+01 5.1100000000e-04 0.0000e+00 -1.0000e+00
      -12  1    4    4    0    0 +2.2510667311e+01 +2.5575817650e+00 -3.7498148144e+00 2.2963720919e+01 0.0000000000e+00 0.0000e+00 1.0000e+00
       12  1    3    3    0    0 -3.7786188115e+01 -3.2152169520e+00 +2.1106611659e+01 4.3400722206e+01 0.0000000000e+00 0.0000e+00 -1.0000e+00
</event>
<event>
 8      4 +3.7482383e-04 9.11880000e+01 7.81616400e-03 1.18400000e-01
      -11 -1    0    0    0    0 +0.0000000000e+00 +0.0000000000e+00 +4.5593999997e+01 4.5594000000e+01 5.1100000000e-04 0.0000e+00 1.0000e+00
       11 -1    0    0    0    0 -0.0000000000e+00 -0.0000000000e+00 -4.5593999997e+01 4.5594000000e+01 5.1100000000e-04 0.0000e+00 -1.0000e+00
       23  2    1    2    0    0 +0.0000000000e+00 +0.0000000000e+00 +0.0000000000e+00 9.1188000000e+01 9.1188000000e+01 4.0527e-14 0.0000e+00
 -9990012  2    3    3    0    0 -3.4016342572e+01 +1.6059368712e+01 +2.1647360684e+01 4.7787272932e+01 2.0000008608e+01 2.4382e-01 0.0000e+00
      -11  1    4    4    0    0 -3.5963442739e+01 +1.3652856535e+01 +2.2361918754e+01 4.4495225764e+01 5.1100000000e-04 0.0000e+00 1.0000e+00
       11  1    4    4    0    0 +6.7779177448e-01 +3.2192331504e-01 -3.3633689095e-01 8.2228892468e-01 5.1100000000e-04 0.0000e+00 -1.0000e+00
      -12  1    4    4    0    0 +1.2693083925e+00 +2.0845888622e+00 -3.7822117873e-01 2.4697582432e+00 0.0000000000e+00 0.0000e+00 1.0000e+00
       12  1    3    3    0    0 +3.4016342572e+01 -1.6059368712e+01 -2.1647360684e+01 4.3400727068e+01 0.0000000000e+00 0.0000e+00 -1.0000e+00
</event>
<event>
 8      4 +3.7482383e-04 9.11880000e+01 7.81616400e-03 1.18400000e-01
      -11 -1    0    0    0    0 +0.0000000000e+00 +0.0000000000e+00 +4.5593999997e+01 4.5594000000e+01 5.1100000000e-04 0.0000e+00 1.0000e+00
       11 -1    0    0    0    0 -0.0000000000e+00 -0.0000000000e+00 -4.5593999997e+01 4.5594000000e+01 5.1100000000e-04 0.0000e+00 -1.0000e+00
       23  2    1    2    0    0 +0.0000000000e+00 -1.7763568394e-15 +7.1054273576e-15 9.1188000000e+01 9.1188000000e+01 2.3435e-14 0.0000e+00
 -9990012  2    3    3    0    0 +1.8749964658e+01 -1.1905070892e+01 +3.7287145517e+01 4.7787272951e+01 2.0000008693e+01 2.6983e-02 0.0000e+00
      -11  1    4    4    0    0 +9.5961742240e+00 -4.1293532080e+00 +7.8025327827e+00 1.3039081093e+01 5.1100000000e-04 0.0000e+00 1.0000e+00
       11  1    4    4    0    0 +1.1014640971e+01 -4.3501146463e+00 +2.8293412774e+01 3.0671860390e+01 5.1100000000e-04 0.0000e+00 -1.0000e+00
      -12  1    4    4    0    0 -1.8608505376e+00 -3.4256030373e+00 +1.1911999604e+00 4.0763314681e+00 0.0000000000e+00 0.0000e+00 1.0000e+00
       12  1    3    3    0    0 -1.8749964658e+01 +1.1905070892e+01 -3.7287145517e+01 4.3400727049e+01 0.0000000000e+00 0.0000e+00 -1.0000e+00
</event>
<event>
 8      3 +3.7482383e-04 9.11880000e+01 7.81616400e-03 1.18400000e-01
      -11 -1    0    0    0    0 +0.0000000000e+00 +0.0000000000e+00 +4.5593999997e+01 4.5594000000e+01 5.1100000000e-04 0.0000e+00 -1.0000e+00
       11 -1    0    0    0    0 -0.0000000000e+00 -0.0000000000e+00 -4.5593999997e+01 4.5594000000e+01 5.1100000000e-04 0.0000e+00 1.0000e+00
       23  2    1    2    0    0 +0.0000000000e+00 +0.0000000000e+00 +7.1054273576e-15 9.1188000000e+01 9.1188000000e+01 2.4697e-14 0.0000e+00
  9990012  2    3    3    0    0 +9.0443794124e+00 +1.9710183098e+01 +3.7594300226e+01 4.7787268137e+01 1.9999986744e+01 2.6361e-02 0.0000e+00
      -11  1    4    4    0    0 -3.1539064972e-01 -1.2903193900e+00 +6.1407910023e+00 6.2828106596e+00 5.1100000000e-04 0.0000e+00 1.0000e+00
       11  1    4    4    0    0 -1.4393006915e+00 +1.3427179673e+01 +1.2418177170e+01 1.8345895044e+01 5.1100000000e-04 0.0000e+00 -1.0000e+00
       12  1    4    4    0    0 +1.0799070754e+01 +7.5733228152e+00 +1.9035332054e+01 2.3158562434e+01 0.0000000000e+00 0.0000e+00 -1.0000e+00
      -12  1    3    3    0    0 -9.0443794124e+00 -1.9710183098e+01 -3.7594300226e+01 4.3400731863e+01 0.0000000000e+00 0.0000e+00 1.0000e+00
</event>
<event>
 8      4 +3.7482383e-04 9.11880000e+01 7.81616400e-03 1.18400000e-01
      -11 -1    0    0    0    0 +0.0000000000e+00 +0.0000000000e+00 +4.5593999997e+01 4.5594000000e+01 5.1100000000e-04 0.0000e+00 1.0000e+00
       11 -1    0    0    0    0 -0.0000000000e+00 -0.0000000000e+00 -4.5593999997e+01 4.5594000000e+01 5.1100000000e-04 0.0000e+00 -1.0000e+00
       23  2    1    2    0    0 +0.0000000000e+00 +5.5511151231e-16 +7.1054273576e-15 9.1188000000e+01 9.1188000000e+01 4.3530e-14 0.0000e+00
 -9990012  2    3    3    0    0 -9.6505340597e+00 +5.4925839935e-01 +4.2310624277e+01 4.7787269370e+01 1.9999992368e+01 1.0042e-01 0.0000e+00
      -11  1    4    4    0    0 +3.4266039586e+00 -5.2186486667e-01 +6.0223944411e+00 6.9486108463e+00 5.1100000000e-04 0.0000e+00 1.0000e+00
       11  1    4    4    0    0 -4.3359448793e+00 +6.7196970486e+00 +1.2070587273e+01 1.4479427606e+01 5.1100000000e-04 0.0000e+00 -1.0000e+00
      -12  1    4    4    0    0 -8.7411931390e+00 -5.6485737826e+00 +2.4217642563e+01 2.6359230918e+01 0.0000000000e+00 0.0000e+00 1.0000e+00
       12  1    3    3    0    0 +9.6505340597e+00 -5.4925839935e-01 -4.2310624277e+01 4.3400730630e+01 0.0000000000e+00 0.0000e+00 -1.0000e+00
</event>
<event>
 8      3 +3.7482383e-04 9.11880000e+01 7.81616400e-03 1.18400000e-01
      -11 -1    0    0    0    0 +0.0000000000e+00 +0.0000000000e+00 +4.5593999997e+01 4.5594000000e+01 5.1100000000e-04 0.0000e+00 -1.0000e+00
       11 -1    0    0    0    0 -0.0000000000e+00 -0.0000000000e+00 -4.5593999997e+01 4.5594000000e+01 5.1100000000e-04 0.0000e+00 1.0000e+00
       23  2    1    2    0    0 -1.7763568394e-15 +0.0000000000e+00 +0.0000000000e+00 9.1188000000e+01 9.1188000000e+01 7.7509e-14 0.0000e+00
  9990012  2    3    3    0    0 -9.8231164743e+00 -4.0700689447e+00 +4.2078075114e+01 4.7787268627e+01 1.9999988976e+01 3.4122e-01 0.0000e+00
      -11  1    4    4    0    0 -4.3984527445e+00 +2.0052238855e+00 +1.7741961133e+00 5.1492797056e+00 5.1100000000e-04 0.0000e+00 1.0000e+00
       11  1    4    4    0    0 -6.0383398650e-01 +2.3073970595e+00 +2.0079824694e+01 2.0220980606e+01 5.1100000000e-04 0.0000e+00 -1.0000e+00
       12  1    4    4    0    0 -4.8208297433e+00 -8.3826898897e+00 +2.0224054306e+01 2.2417008315e+01 0.0000000000e+00 0.0000e+00 -1.0000e+00
      -12  1    3    3    0    0 +9.8231164743e+00 +4.0700689447e+00 -4.2078075114e+01 4.3400731373e+01 0.0000000000e+00 0.0000e+00 1.0000e+00
</event>
<event>
 8      3 +3.7482383e-04 9.11880000e+01 7.81616400e-03 1.18400000e-01
      -11 -1    0    0    0    0 +0.0000000000e+00 +0.0000000000e+00 +4.5593999997e+01 4.5594000000e+01 5.1100000000e-04 0.0000e+00 1.0000e+00
       11 -1    0    0    0    0 -0.0000000000e+00 -0.0000000000e+00 -4.5593999997e+01 4.5594000000e+01 5.1100000000e-04 0.0000e+00 -1.0000e+00
       23  2    1    2    0    0 +3.5527136788e-15 +0.0000000000e+00 +0.0000000000e+00 9.1188000000e+01 9.1188000000e+01 8.3889e-14 0.0000e+00
  9990012  2    3    3    0    0 -2.4484201718e+01 +1.3931662658e+01 -3.3015995827e+01 4.7787270299e+01 1.9999996600e+01 1.5698e-01 0.0000e+00
      -11  1    4    4    0    0 -3.8618902234e+00 +8.6421024752e+00 -4.9276380847e+00 1.0671539188e+01 5.1100000000e-04 0.0000e+00 1.0000e+00
       11  1    4    4    0    0 -1.3040541849e+01 +4.2464353877e+00 -8.6235367837e+00 1.6200411481e+01 5.1100000000e-04 0.0000e+00 -1.0000e+00
       12  1    4    4    0    0 -7.5817696457e+00 +1.0431247949e+00 -1.9464820958e+01 2.0915319630e+01 0.0000000000e+00 0.0000e+00 -1.0000e+00
      -12  1    3    3    0    0 +2.4484201718e+01 -1.3931662658e+01 +3.3015995827e+01 4.3400729701e+01 0.0000000000e+00 0.0000e+00 1.0000e+00
</event>
<event>
 8      4 +3.7482383e-04 9.11880000e+01 7.81616400e-03 1.18400000e-01
      -11 -1    0    0    0    0 +0.0000000000e+00 +0.0000000000e+00 +4.5593999997e+01 4.5594000000e+01 5.1100000000e-04 0.0000e+00 1.0000e+00
       11 -1    0    0    0    0 -0.0000000000e+00 -0.0000000000e+00 -4.5593999997e+01 4.5594000000e+01 5.1100000000e-04 0.0000e+00 -1.0000e+00
       23  2    1    2    0    0 +7.1054273576e-15 -1.7763568394e-15 -3.5527136788e-15 9.1188000000e+01 9.1188000000e+01 8.8688e-14 0.0000e+00
 -9990012  2    3    3    0    0 -3.4056180218e+01 +8.3042730232e+00 +2.5589819810e+01 4.7787271441e+01 2.0000001809e+01 1.5290e-01 0.0000e+00
      -11  1    4    4    0    0 -2.2222582421e+01 +2.5333104358e-02 +9.9161085778e+00 2.4334605417e+01 5.1100000000e-04 0.0000e+00 -1.0000e+00
       11  1    4    4    0    0 -1.1114426364e+01 +9.1129107869e+00 +1.6639826270e+01 2.1987710999e+01 5.1100000000e-04 0.0000e+00 1.0000e+00
      -12  1    4    4    0    0 -7.1917143344e-01 -8.3397086806e-01 -9.6611503776e-01 1.4649550251e+00 0.0000000000e+00 0.0000e+00 1.0000e+00
       12  1    3    3    0    0 +3.4056180218e+01 -8.3042730232e+00 -2.5589819810e+01 4.3400728559e+01 0.0000000000e+00 0.0000e+00 -1.0000e+00
</event>
<event>
 8      4 +3.7482383e-04 9.11880000e+01 7.81616400e-03 1.18400000e-01
      -11 -1    0    0    0    0 +0.0000000000e+00 +0.0000000000e+00 +4.5593999997e+01 4.5594000000e+01 5.1100000000e-04 0.0000e+00 -1.0000e+00
       11 -1    0    0    0    0 -0.0000000000e+00 -0.0000000000e+00 -4.5593999997e+01 4.5594000000e+01 5.1100000000e-04 0.0000e+00 1.0000e+00
       23  2    1    2    0    0 +0.0000000000e+00 +3.5527136788e-15 -1.7763568394e-15 9.1188000000e+01 9.1188000000e+01 1.3590e-13 0.0000e+00
 -9990012  2    3    3    0    0 +4.0538508501e+01 +1.2315142344e+01 -9.4122028211e+00 4.7787274609e+01 2.0000016255e+01 2.9516e-01 0.0000e+00
      -11  1    4    4    0    0 +7.6368905940e+00 -1.4065978343e+00 -2.9836354744e+00 8.3188158002e+00 5.1100000000e-04 0.0000e+00 1.0000e+00
       11  1    4    4    0    0 +1.3891415157e+01 +3.1798313643e+00 +4.7546031983e+00 1.5022948925e+01 5.1100000000e-04 0.0000e+00 -1.0000e+00
      -12  1    4    4    0    0 +1.9010202750e+01 +1.0541908814e+01 -1.1183170545e+01 2.4445509884e+01 0.0000000000e+00 0.0000e+00 1.0000e+00
       12  1    3    3    0    0 -4.0538508501e+01 -1.2315142344e+01 +9.4122028211e+00 4.3400725391e+01 0.0000000000e+00 0.0000e+00 -1.0000e+00
</event>
<event>
 8      3 +3.7482383e-04 9.11880000e+01 7.81616400e-03 1.18400000e-01
      -11 -1    0    0    0    0 +0.0000000000e+00 +0.0000000000e+00 +4.5593999997e+01 4.5594000000e+01 5.1100000000e-04 0.0000e+00 -1.0000e+00
       11 -1    0    0    0    0 -0.0000000000e+00 -0.0000000000e+00 -4.5593999997e+01 4.5594000000e+01 5.1100000000e-04 0.0000e+00 1.0000e+00
       23  2    1    2    0    0 +4.4408920985e-16 +0.0000000000e+00 +0.0000000000e+00 9.1188000000e+01 9.1188000000e+01 4.2773e-14 0.0000e+00
  9990012  2    3    3    0    0 -3.9820245675e+00 +3.1283723986e+01 +2.9817701548e+01 4.7787271530e+01 2.0000002215e+01 2.1626e-01 0.0000e+00
      -11  1    4    4    0    0 +2.1663206988e+00 -7.7316638435e-01 +2.8270778682e+00 3.6445989028e+00 5.1100000000e-04 0.0000e+00 1.0000e+00
       11  1    4    4    0    0 -9.0427966342e+00 +2.1258872507e+01 +1.4038113309e+01 2.7032951315e+01 5.1100000000e-04 0.0000e+00 -1.0000e+00
       12  1    4    4    0    0 +2.8944513680e+00 +1.0798017864e+01 +1.2952510371e+01 1.7109721313e+01 0.0000000000e+00 0.0000e+00 -1.0000e+00
      -12  1    3    3    0    0 +3.9820245675e+00 -3.1283723986e+01 -2.9817701548e+01 4.3400728470e+01 0.0000000000e+00 0.0000e+00 1.0000e+00
</event>
<event>
 8      3 +3.7482383e-04 9.11880000e+01 7.81616400e-03 1.18400000e-01
      -11 -1    0    0    0    0 +0.0000000000e+00 +0.0000000000e+00 +4.5593999997e+01 4.5594000000e+01 5.1100000000e-04 0.0000e+00 -1.0000e+00
       11 -1    0    0    0    0 -0.0000000000e+00 -0.0000000000e+00 -4.5593999997e+01 4.5594000000e+01 5.1100000000e-04 0.0000e+00 1.0000e+00
       23  2    1    2    0    0 -1.7763568394e-15 +0.0000000000e+00 +1.7763568394e-15 9.1188000000e+01 9.1188000000e+01 7.1236e-15 0.0000e+00
  9990012  2    3    3    0    0 +1.1958049777e+01 +3.9889984546e+01 +1.2223656299e+01 4.7787267346e+01 1.9999983139e+01 1.7449e-01 0.0000e+00
      -11  1    4    4    0    0 +1.2181508429e+01 +1.5112029663e+01 +4.9242978854e-01 1.9416618539e+01 5.1100000000e-04 0.0000e+00 -1.0000e+00
       11  1    4    4    0    0 +1.5980451151e+00 +2.2245537345e+01 +1.1836995375e+01 2.5249398799e+01 5.1100000000e-04 0.0000e+00 1.0000e+00
       12  1    4    4    0    0 -1.8215037669e+00 +2.5324175385e+00 -1.0576886411e-01 3.1212500084e+00 0.0000000000e+00 0.0000e+00 -1.0000e+00
      -12  1    3    3    0    0 -1.1958049777e+01 -3.9889984546e+01 -1.2223656299e+01 4.3400732654e+01 0.0000000000e+00 0.0000e+00 1.0000e+00
</event>
<event>
 8      4 +3.7482383e-04 9.11880000e+01 7.81616400e-03 1.18400000e-01
      -11 -1    0    0    0    0 +0.0000000000e+00 +0.0000000000e+00 +4.5593999997e+01 4.5594000000e+01 5.1100000000e-04 0.0000e+00 1.0000e+00
       11 -1    0    0    0    0 -0.0000000000e+00 -0.0000000000e+00 -4.5593999997e+01 4.5594000000e+01 5.1100000000e-04 0.0000e+00 -1.0000e+00
       23  2    1    2    0    0 -1.7763568394e-15 +0.0000000000e+00 +0.0000000000e+00 9.1188000000e+01 9.1188000000e+01 1.2617e-14 0.0000e+00
 -9990012  2    3    3    0    0 +1.2671840942e+01 +3.1205739059e+01 -2.7372421873e+01 4.7787272100e+01 2.0000004812e+01 3.4253e-01 0.0000e+00
      -11  1    4    4    0    0 +1.1327100366e+01 +1.6896113875e+01 -2.2142238360e+01 3.0067600281e+01 5.1100000000e-04 0.0000e+00 1.0000e+00
       11  1    4    4    0    0 +7.4656086709e-02 +1.4184862349e+01 -6.7716297590e+00 1.5718487944e+01 5.1100000000e-04 0.0000e+00 -1.0000e+00
      -12  1    4    4    0    0 +1.2700844890e+00 +1.2476283509e-01 +1.5414462458e+00 2.0011838753e+00 0.0000000000e+00 0.0000e+00 1.0000e+00
       12  1    3    3    0    0 -1.2671840942e+01 -3.1205739059e+01 +2.7372421873e+01 4.3400727900e+01 0.0000000000e+00 0.0000e+00 -1.0000e+00
</event>
<event>
 8      3 +3.7482383e-04 9.11880000e+01 7.81616400e-03 1.18400000e-01
      -11 -1    0    0    0    0 +0.0000000000e+00 +0.0000000000e+00 +4.5593999997e+01 4.5594000000e+01 5.1100000000e-04 0.0000e+00 1.0000e+00
       11 -1    0    0    0    0 -0.0000000000e+00 -0.0000000000e+00 -4.5593999997e+01 4.5594000000e+01 5.1100000000e-04 0.0000e+00 -1.0000e+00
       23  2    1    2    0    0 -3.5527136788e-15 -3.5527136788e-15 +0.0000000000e+00 9.1188000000e+01 9.1188000000e+01 1.5626e-13 0.0000e+00
  9990012  2    3    3    0    0 +2.8552119721e+01 +2.6194032775e+01 -1.9551792969e+01 4.7787268418e+01 1.9999988023e+01 1.6231e-01 0.0000e+00
      -11  1    4    4    0    0 +2.6849940447e+00 +2.7811272000e-01 -6.0234854310e+00 6.6006754733e+00 5.1100000000e-04 0.0000e+00 1.0000e+00
       11  1    4    4    0    0 +1.3699076194e+01 +6.2116005118e+00 -9.1849859414e+00 1.7624205982e+01 5.1100000000e-04 0.0000e+00 -1.0000e+00
       12  1    4    4    0    0 +1.2168049482e+01 +1.9704319543e+01 -4.3433215967e+00 2.3562386962e+01 0.0000000000e+00 0.0000e+00 -1.0000e+00
      -12  1    3    3    0    0 -2.8552119721e+01 -2.6194032775e+01 +1.9551792969e+01 4.3400731582e+01 0.0000000000e+00 0.0000e+00 1.0000e+00
</event>
<event>
 8      4 +3.7482383e-04 9.11880000e+01 7.81616400e-03 1.18400000e-01
      -11 -1    0    0    0    0 +0.0000000000e+00 +0.0000000000e+00 +4.5593999997e+01 4.5594000000e+01 5.1100000000e-04 0.0000e+00 -1.0000e+00
       11 -1    0    0    0    0 -0.0000000000e+00 -0.0000000000e+00 -4.5593999997e+01 4.5594000000e+01 5.1100000000e-04 0.0000e+00 1.0000e+00
       23  2    1    2    0    0 +0.0000000000e+00 +1.7763568394e-15 -3.5527136788e-15 9.1188000000e+01 9.1188000000e+01 1.8567e-13 0.0000e+00
 -9990012  2    3    3    0    0 +3.6530231053e+01 +1.0501942719e+01 -2.0949335461e+01 4.7787271459e+01 2.0000001890e+01 3.5306e-01 0.0000e+00
      -11  1    4    4    0    0 +1.9950525136e+01 -2.5155396147e+00 -1.0297898974e+01 2.2591992305e+01 5.1100000000e-04 0.0000e+00 1.0000e+00
       11  1    4    4    0    0 +2.5123745410e+00 +2.7136303441e+00 -6.1666198815e+00 7.1904809646e+00 5.1100000000e-04 0.0000e+00 -1.0000e+00
      -12  1    4    4    0    0 +1.4067331375e+01 +1.0303851990e+01 -4.4848166055e+00 1.8004798189e+01 0.0000000000e+00 0.0000e+00 1.0000e+00
       12  1    3    3    0    0 -3.6530231053e+01 -1.0501942719e+01 +2.0949335461e+01 4.3400728541e+01 0.0000000000e+00 0.0000e+00 -1.0000e+00
</event>
<event>
 8      4 +3.7482383e-04 9.11880000e+01 7.81616400e-03 1.18400000e-01
      -11 -1    0    0    0    0 +0.0000000000e+00 +0.0000000000e+00 +4.5593999997e+01 4.5594000000e+01 5.1100000000e-04 0.0000e+00 -1.0000e+00
       11 -1    0    0    0    0 -0.0000000000e+00 -0.0000000000e+00 -4.5593999997e+01 4.5594000000e+01 5.1100000000e-04 0.0000e+00 1.0000e+00
       23  2    1    2    0    0 +3.5527136788e-15 +0.0000000000e+00 +1.7763568394e-15 9.1188000000e+01 9.1188000000e+01 6.9161e-14 0.0000e+00
 -9990012  2    3    3    0    0 -1.9492951611e+01 +3.6563328139e+01 -1.2913986089e+01 4.7787272312e+01 2.0000005779e+01 1.6696e-01 0.0000e+00
      -11  1    4    4    0    0 -6.8791762033e+00 +2.2898410735e+01 -1.2176597976e+01 2.6831507933e+01 5.1100000000e-04 0.0000e+00 1.0000e+00
       11  1    4    4    0    0 -6.0177221516e+00 +1.2981835074e+01 -3.4777510718e-01 1.4313000020e+01 5.1100000000e-04 0.0000e+00 -1.0000e+00
      -12  1    4    4    0    0 -6.5960532564e+00 +6.8308232976e-01 -3.8961300538e-01 6.6427643586e+00 0.0000000000e+00 0.0000e+00 1.0000e+00
       12  1    3    3    0    0 +1.9492951611e+01 -3.6563328139e+01 +1.2913986089e+01 4.3400727688e+01 0.0000000000e+00 0.0000e+00 -1.0000e+00
</event>
<event>
 8      4 +3.7482383e-04 9.11880000e+01 7.81616400e-03 1.18400000e-01
      -11 -1    0    0    0    0 +0.0000000000e+00 +0.0000000000e+00 +4.5593999997e+01 4.5594000000e+01 5.1100000000e-04 0.0000e+00 1.0000e+00
       11 -1    0    0    0    0 -0.0000000000e+00 -0.0000000000e+00 -4.5593999997e+01 4.5594000000e+01 5.1100000000e-04 0.0000e+00 -1.0000e+00
       23  2    1    2    0    0 +0.0000000000e+00 -7.1054273576e-15 +7.1054273576e-15 9.1188000000e+01 9.1188000000e+01 2.2219e-14 0.0000e+00
 -9990012  2    3    3    0    0 +5.3355655467e-01 -3.3299301458e+01 +2.7829746012e+01 4.7787275084e+01 2.0000018416e+01 2.4728e-02 0.0000e+00
      -11  1    4    4    0    0 +3.3350718741e-01 +2.3441967919e+00 -2.5979981795e-01 2.3820121431e+00 5.1100000000e-04 0.0000e+00 1.0000e+00
       11  1    4    4    0    0 +5.8334822773e-01 -1.6248662673e+01 +1.2132478663e+01 2.0286852210e+01 5.1100000000e-04 0.0000e+00 -1.0000e+00
      -12  1    4    4    0    0 -3.8329886046e-01 -1.9394835576e+01 +1.5957067167e+01 2.5118410730e+01 0.0000000000e+00 0.0000e+00 1.0000e+00
       12  1    3    3    0    0 -5.3355655467e-01 +3.3299301458e+01 -2.7829746012e+01 4.3400724916e+01 0.0000000000e+00 0.0000e+00 -1.0000e+00
</event>
<event>
 8      4 +3.7482383e-04 9.11880000e+01 7.81616400e-03 1.18400000e-01
      -11 -1    0    0    0    0 +0.0000000000e+00 +0.0000000000e+00 +4.5593999997e+01 4.5594000000e+01 5.1100000000e-04 0.0000e+00 1.0000e+00
       11 -1    0    0    0    0 -0.0000000000e+00 -0.0000000000e+00 -4.5593999997e+01 4.5594000000e+01 5.1100000000e-04 0.0000e+00 -1.0000e+00
       23  2    1    2    0    0 -8.8817841970e-16 +0.0000000000e+00 +0.0000000000e+00 9.1188000000e+01 9.1188000000e+01 1.0321e-13 0.0000e+00
 -9990012  2    3    3    0    0 +6.7038744891e+00 -4.0768283092e+01 +1.3290155723e+01 4.7787273294e+01 2.0000010259e+01 9.1541e-02 0.0000e+00
      -11  1    4    4    0    0 -4.5609497557e+00 -1.3954168560e+01 +1.1304426389e+01 1.8528657240e+01 5.1100000000e-04 0.0000e+00 1.0000e+00
       11  1    4    4    0    0 +7.1005035697e+00 -1.7659401708e+01 +1.4374420137e-01 1.9033977049e+01 5.1100000000e-04 0.0000e+00 -1.0000e+00
      -12  1    4    4    0    0 +4.1643206751e+00 -9.1547128238e+00 +1.8419851333e+00 1.0224639006e+01 0.0000000000e+00 0.0000e+00 1.0000e+00
       12  1    3    3    0    0 -6.7038744891e+00 +4.0768283092e+01 -1.3290155723e+01 4.3400726706e+01 0.0000000000e+00 0.0000e+00 -1.0000e+00
</event>
<event>
 8      3 +3.7482383e-04 9.11880000e+01 7.81616400e-03 1.18400000e-01
      -11 -1    0    0    0    0 +0.0000000000e+00 +0.0000000000e+00 +4.5593999997e+01 4.5594000000e+01 5.1100000000e-04 0.0000e+00 -1.0000e+00
       11 -1    0    0    0    0 -0.0000000000e+00 -0.0000000000e+00 -4.5593999997e+01 4.5594000000e+01 5.1100000000e-04 0.0000e+00 1.0000e+00
       23  2    1    2    0    0 +3.5527136788e-15 +0.0000000000e+00 +0.0000000000e+00 9.1188000000e+01 9.1188000000e+01 1.3224e-14 0.0000e+00
  9990012  2    3    3    0    0 +2.8965324092e+01 +8.2773734092e+00 +3.1242892231e+01 4.7787271605e+01 2.0000002554e+01 4.0033e-02 0.0000e+00
      -11  1    4    4    0    0 +5.2828503597e+00 +1.6357539555e+00 +1.7794266188e+01 1.8633843091e+01 5.1100000000e-04 0.0000e+00 1.0000e+00
       11  1    4    4    0    0 -1.3728613964e-01 +4.0134980402e-02 +1.8399813364e+00 1.8455324111e+00 5.1100000000e-04 0.0000e+00 -1.0000e+00
       12  1    4    4    0    0 +2.3819759872e+01 +6.6014844733e+00 +1.1608644707e+01 2.7307896102e+01 0.0000000000e+00 0.0000e+00 -1.0000e+00
      -12  1    3    3    0    0 -2.8965324092e+01 -8.2773734092e+00 -3.1242892231e+01 4.3400728395e+01 0.0000000000e+00 0.0000e+00 1.0000e+00
</event>
<event>
 8      4 +3.7482383e-04 9.11880000e+01 7.81616400e-03 1.18400000e-01
      -11 -1    0    0    0    0 +0.0000000000e+00 +0.0000000000e+00 +4.5593999997e+01 4.5594000000e+01 5.1100000000e-04 0.0000e+00 1.0000e+00
       11 -1    0    0    0    0 -0.0000000000e+00 -0.0000000000e+00 -4.5593999997e+01 4.5594000000e+01 5.1100000000e-04 0.0000e+00 -1.0000e+00
       23  2    1    2    0    0 +3.5527136788e-15 +0.0000000000e+00 +0.0000000000e+00 9.1188000000e+01 9.1188000000e+01 8.7553e-14 0.0000e+00
 -9990012  2    3    3    0    0 +2.3770183896e+01 +2.0216604379e+01 +3.0164392689e+01 4.7787270498e+01 1.9999997506e+01 2.9519e-02 0.0000e+00
      -11  1    4    4    0    0 +5.4351357499e+00 +5.9342255840e+00 +3.3366665031e-01 8.0540094112e+00 5.1100000000e-04 0.0000e+00 1.0000e+00
       11  1    4    4    0    0 +4.2707888050e+00 +3.1414382659e+00 +4.6765998291e-01 5.3223094157e+00 5.1100000000e-04 0.0000e+00 -1.0000e+00
      -12  1    4    4    0    0 +1.4064259341e+01 +1.1140940529e+01 +2.9363066056e+01 3.4410951671e+01 0.0000000000e+00 0.0000e+00 1.0000e+00
       12  1    3    3    0    0 -2.3770183896e+01 -2.0216604379e+01 -3.0164392689e+01 4.3400729502e+01 0.0000000000e+00 0.0000e+00 -1.0000e+00
</event>
<event>
 8      3 +3.7482383e-04 9.11880000e+01 7.81616400e-03 1.18400000e-01
      -11 -1    0    0    0    0 +0.0000000000e+00 +0.0000000000e+00 +4.5593999997e+01 4.5594000000e+01 5.1100000000e-04 0.0000e+00 1.0000e+00
       11 -1    0    0    0    0 -0.0000000000e+00 -0.0000000000e+00 -4.5593999997e+01 4.5594000000e+01 5.1100000000e-04 0.0000e+00 -1.0000e+00
       23  2    1    2    0    0 +0.0000000000e+00 -1.7763568394e-15 +0.0000000000e+00 9.1188000000e+01 9.1188000000e+01 9.6143e-14 0.0000e+00
  9990012  2    3    3    0    0 -9.0863824864e+00 -9.0383775640e+00 -4.1465270989e+01 4.7787270584e+01 1.9999997901e+01 3.0252e-01 0.0000e+00
      -11  1    4    4    0    0 +1.2743960759e+00 +1.9971540240e+00 -1.2778398935e+01 1.2996160554e+01 5.1100000000e-04 0.0000e+00 1.0000e+00
       11  1    4    4    0    0 +2.5369896544e+00 -2.9322777145e-01 -6.3967533533e+00 6.8877247881e+00 5.1100000000e-04 0.0000e+00 -1.0000e+00
       12  1    4    4    0    0 -1.2897768217e+01 -1.0742303817e+01 -2.2290118701e+01 2.7903385242e+01 0.0000000000e+00 0.0000e+00 -1.0000e+00
      -12  1    3    3    0    0 +9.0863824864e+00 +9.0383775640e+00 +4.1465270989e+01 4.3400729416e+01 0.0000000000e+00 0.0000e+00 1.0000e+00
</event>
<event>
 8      3 +3.7482383e-04 9.11880000e+01 7.81616400e-03 1.18400000e-01
      -11 -1    0    0    0    0 +0.0000000000e+00 +0.0000000000e+00 +4.5593999997e+01 4.5594000000e+01 5.1100000000e-04 0.0000e+00 1.0000e+00
       11 -1    0    0    0    0 -0.0000000000e+00 -0.0000000000e+00 -4.5593999997e+01 4.5594000000e+01 5.1100000000e-04 0.0000e+00 -1.0000e+00
       23  2    1    2    0    0 -1.7763568394e-15 +0.0000000000e+00 +1.7763568394e-15 9.1188000000e+01 9.1188000000e+01 7.6435e-15 0.0000e+00
  9990012  2    3    3    0    0 +1.5832218860e+01 +3.8494752134e+01 +1.2293018744e+01 4.7787269525e+01 1.9999993074e+01 1.8850e-01 0.0000e+00
      -11  1    4    4    0    0 +6.2740092138e+00 +6.9031591067e+00 +1.7979609138e+00 9.4999716302e+00 5.1100000000e-04 0.0000e+00 1.0000e+00
       11  1    4    4    0    0 -1.7863837297e+00 -5.6690217664e-01 -1.2130561541e+00 2.2324986902e+00 5.1100000000e-04 0.0000e+00 -1.0000e+00
       12  1    4    4    0    0 +1.1344593375e+01 +3.2158495204e+01 +1.1708113984e+01 3.6054799205e+01 0.0000000000e+00 0.0000e+00 -1.0000e+00
      -12  1    3    3    0    0 -1.5832218860e+01 -3.8494752134e+01 -1.2293018744e+01 4.3400730475e+01 0.0000000000e+00 0.0000e+00 1.0000e+00
</event>
<event>
 8      4 +3.7482383e-04 9.11880000e+01 7.81616400e-03 1.18400000e-01
      -11 -1    0    0    0    0 +0.0000000000e+00 +0.0000000000e+00 +4.5593999997e+01 4.5594000000e+01 5.1100000000e-04 0.0000e+00 -1.0000e+00
       11 -1    0    0    0    0 -0.0000000000e+00 -0.0000000000e+00 -4.5593999997e+01 4.5594000000e+01 5.1100000000e-04 0.0000e+00 1.0000e+00
       23  2    1    2    0    0 +0.0000000000e+00 +0.0000000000e+00 +0.0000000000e+00 9.1188000000e+01 9.1188000000e+01 1.1343e-13 0.0000e+00
 -9990012  2    3    3    0    0 -1.2364220753e+01 +2.0311376396e+01 -3.6306990269e+01 4.7787268343e+01 1.9999987684e+01 1.9782e-01 0.0000e+00
      -11  1    4    4    0    0 +3.8716851040e-01 +7.7149482345e+00 -2.0027708222e+01 2.1465773282e+01 5.1100000000e-04 0.0000e+00 1.0000e+00
       11  1    4    4    0    0 -1.0910650951e+01 +5.6617768248e+00 -1.4343689801e+01 1.8890194768e+01 5.1100000000e-04 0.0000e+00 -1.0000e+00
      -12  1    4    4    0    0 -1.8407383117e+00 +6.9346513370e+00 -1.9355922457e+00 7.4313002926e+00 0.0000000000e+00 0.0000e+00 1.0000e+00
       12  1    3    3    0    0 +1.2364220753e+01 -2.0311376396e+01 +3.6306990269e+01 4.3400731657e+01 0.0000000000e+00 0.0000e+00 -1.0000e+00
</event>
<event>
 8      4 +3.7482383e-04 9.11880000e+01 7.81616400e-03 1.18400000e-01
      -11 -1    0    0    0    0 +0.0000000000e+00 +0.0000000000e+00 +4.5593999997e+01 4.5594000000e+01 5.1100000000e-04 0.0000e+00 1.0000e+00
       11 -1    0    0    0    0 -0.0000000000e+00 -0.0000000000e+00 -4.5593999997e+01 4.5594000000e+01 5.1100000000e-04 0.0000e+00 -1.0000e+00
       23  2    1    2    0    0 -3.5527136788e-15 +0.0000000000e+00 +0.0000000000e+00 9.1188000000e+01 9.1188000000e+01 7.4668e-14 0.0000e+00
 -9990012  2    3    3    0    0 -1.7158954922e+01 +3.6952697378e+01 +1.4956438203e+01 4.7787232481e+01 1.9999824171e+01 2.0339e-01 0.0000e+00
      -11  1    4    4    0    0 -1.7303848415e+00 +2.7694143354e-01 +8.9146030312e-01 1.9661205433e+00 5.1100000000e-04 0.0000e+00 1.0000e+00
       11  1    4    4    0    0 +1.3199656008e+00 +1.4024698836e+01 -5.2507650737e-01 1.4096460273e+01 5.1100000000e-04 0.0000e+00 -1.0000e+00
      -12  1    4    4    0    0 -1.6748535681e+01 +2.2651057109e+01 +1.4590054408e+01 3.1724651664e+01 0.0000000000e+00 0.0000e+00 1.0000e+00
       12  1    3    3    0    0 +1.7158954922e+01 -3.6952697378e+01 -1.4956438203e+01 4.3400767519e+01 0.0000000000e+00 0.0000e+00 -1.0000e+00
</event>
<event>
 8      3 +3.7482383e-04 9.11880000e+01 7.81616400e-03 1.18400000e-01
      -11 -1    0    0    0    0 +0.0000000000e+00 +0.0000000000e+00 +4.5593999997e+01 4.5594000000e+01 5.1100000000e-04 0.0000e+00 -1.0000e+00
       11 -1    0    0    0    0 -0.0000000000e+00 -0.0000000000e+00 -4.5593999997e+01 4.5594000000e+01 5.1100000000e-04 0.0000e+00 1.0000e+00
       23  2    1    2    0    0 +3.5527136788e-15 +0.0000000000e+00 +0.0000000000e+00 9.1188000000e+01 9.1188000000e+01 9.5268e-14 0.0000e+00
  9990012  2    3    3    0    0 -1.8645497450e+01 +2.3851144157e+01 +3.1098101266e+01 4.7787267805e+01 1.9999985230e+01 2.7333e-01 0.0000e+00
      -11  1    4    4    0    0 +1.3375485767e+00 -9.9960555169e-01 +2.9269849175e+00 3.3697905606e+00 5.1100000000e-04 0.0000e+00 1.0000e+00
       11  1    4    4    0    0 -1.0397991800e+01 +1.9132724224e+01 +2.4239377268e+01 3.2584149219e+01 5.1100000000e-04 0.0000e+00 -1.0000e+00
       12  1    4    4    0    0 -9.5850542264e+00 +5.7180254842e+00 +3.9317390801e+00 1.1833328025e+01 0.0000000000e+00 0.0000e+00 -1.0000e+00
      -12  1    3    3    0    0 +1.8645497450e+01 -2.3851144157e+01 -3.1098101266e+01 4.3400732195e+01 0.0000000000e+00 0.0000e+00 1.0000e+00
</event>
<event>
 8      3 +3.7482383e-04 9.11880000e+01 7.81616400e-03 1.18400000e-01
      -11 -1    0    0    0    0 +0.0000000000e+00 +0.0000000000e+00 +4.5593999997e+01 4.5594000000e+01 5.1100000000e-04 0.0000e+00 -1.0000e+00
       11 -1    0    0    0    0 -0.0000000000e+00 -0.0000000000e+00 -4.5593999997e+01 4.5594000000e+01 5.1100000000e-04 0.0000e+00 1.0000e+00
       23  2    1    2    0    0 -1.7763568394e-15 -1.7763568394e-15 +0.0000000000e+00 9.1188000000e+01 9.1188000000e+01 7.9131e-14 0.0000e+00
  9990012  2    3    3    0    0 +8.7891939218e+00 +4.9381827586e+00 +4.2213595425e+01 4.7787271694e+01 2.0000002963e+01 2.2016e-01 0.0000e+00
      -11  1    4    4    0    0 -1.5985871498e+00 +7.1429334811e+00 +1.4098346844e+01 1.5885224694e+01 5.1100000000e-04 0.0000e+00 1.0000e+00
       11  1    4    4    0    0 +7.6167818238e+00 -9.8748602505e-02 +2.7278911438e+01 2.8322502116e+01 5.1100000000e-04 0.0000e+00 -1.0000e+00
       12  1    4    4    0    0 +2.7709992478e+00 -2.1060021200e+00 +8.3633714388e-01 3.5795448843e+00 0.0000000000e+00 0.0000e+00 -1.0000e+00
      -12  1    3    3    0    0 -8.7891939218e+00 -4.9381827586e+00 -4.2213595425e+01 4.3400728306e+01 0.0000000000e+00 0.0000e+00 1.0000e+00
</event>
<event>
 8      3 +3.7482383e-04 9.11880000e+01 7.81616400e-03 1.18400000e-01
      -11 -1    0    0    0    0 +0.0000000000e+00 +0.0000000000e+00 +4.5593999997e+01 4.5594000000e+01 5.1100000000e-04 0.0000e+00 1.0000e+00
       11 -1    0    0    0    0 -0.0000000000e+00 -0.0000000000e+00 -4.5593999997e+01 4.5594000000e+01 5.1100000000e-04 0.0000e+00 -1.0000e+00
       23  2    1    2    0    0 -4.4408920985e-16 +0.0000000000e+00 +3.5527136788e-15 9.1188000000e+01 9.1188000000e+01 2.9203e-14 0.0000e+00
  9990012  2    3    3    0    0 -2.0997991806e+00 -3.6575133129e+01 -2.3269589586e+01 4.7787270519e+01 1.9999997604e+01 5.6801e-01 0.0000e+00
      -11  1    4    4    0    0 +5.1817536798e+00 -8.9771952453e+00 -1.0161508983e+01 1.4515401157e+01 5.1100000000e-04 0.0000e+00 1.0000e+00
       11  1    4    4    0    0 -9.7443711810e-01 -4.7343946768e+00 -7.4633280644e+00 8.8918663233e+00 5.1100000000e-04 0.0000e+00 -1.0000e+00
       12  1    4    4    0    0 -6.3071157423e+00 -2.2863543207e+01 -5.6447525388e+00 2.4380003039e+01 0.0000000000e+00 0.0000e+00 -1.0000e+00
      -12  1    3    3    0    0 +2.0997991806e+00 +3.6575133129e+01 +2.3269589586e+01 4.3400729481e+01 0.0000000000e+00 0.0000e+00 1.0000e+00
</event>
<event>
 8      4 +3.7482383e-04 9.11880000e+01 7.81616400e-03 1.18400000e-01
      -11 -1    0    0    0    0 +0.0000000000e+00 +0.0000000000e+00 +4.5593999997e+01 4.5594000000e+01 5.1100000000e-04 0.0000e+00 1.0000e+00
       11 -1    0    0    0    0 -0.0000000000e+00 -0.0000000000e+00 -4.5593999997e+01 4.5594000000e+01 5.1100000000e-04 0.0000e+00 -1.0000e+00
       23  2    1    2    0    0 -3.5527136788e-15 +0.0000000000e+00 +0.0000000000e+00 9.1188000000e+01 9.1188000000e+01 7.1204e-15 0.0000e+00
 -9990012  2    3    3    0    0 -2.3387726103e+01 -1.0285432374e+01 +3.5083448224e+01 4.7787260482e+01 1.9999951842e+01 1.7056e-01 0.0000e+00
      -11  1    4    4    0    0 -3.7401229847e+00 -6.5495375715e+00 +1.0440817402e+01 1.2880047773e+01 5.1100000000e-04 0.0000e+00 1.0000e+00
       11  1    4    4    0    0 -3.6427608063e+00 -6.3177044639e+00 +1.3144194976e+01 1.5031731697e+01 5.1100000000e-04 0.0000e+00 -1.0000e+00
      -12  1    4    4    0    0 -1.6004842312e+01 +2.5818096614e+00 +1.1498435846e+01 1.9875481012e+01 0.0000000000e+00 0.0000e+00 1.0000e+00
       12  1    3    3    0    0 +2.3387726103e+01 +1.0285432374e+01 -3.5083448224e+01 4.3400739518e+01 0.0000000000e+00 0.0000e+00 -1.0000e+00
</event>
<event>
 8      4 +3.7482383e-04 9.11880000e+01 7.81616400e-03 1.18400000e-01
      -11 -1    0    0    0    0 +0.0000000000e+00 +0.0000000000e+00 +4.5593999997e+01 4.5594000000e+01 5.1100000000e-04 0.0000e+00 1.0000e+00
       11 -1    0    0    0    0 -0.0000000000e+00 -0.0000000000e+00 -4.5593999997e+01 4.5594000000e+01 5.1100000000e-04 0.0000e+00 -1.0000e+00
       23  2    1    2    0    0 +0.0000000000e+00 +0.0000000000e+00 +0.0000000000e+00 9.1188000000e+01 9.1188000000e+01 1.7109e-14 0.0000e+00
 -9990012  2    3    3    0    0 -4.5110028169e+00 -3.8606996358e+01 +1.9307340751e+01 4.7787277413e+01 2.0000029035e+01 9.5792e-02 0.0000e+00
      -11  1    4    4    0    0 -2.7578277015e+00 -6.5557205865e+00 +1.3496470263e+00 7.2391044610e+00 5.1100000000e-04 0.0000e+00 1.0000e+00
       11  1    4    4    0    0 -5.4948409042e+00 -3.1411922410e+00 +6.9181774072e+00 9.3766488767e+00 5.1100000000e-04 0.0000e+00 -1.0000e+00
      -12  1    4    4    0    0 +3.7416657888e+00 -2.8910083531e+01 +1.1039516318e+01 3.1171524075e+01 0.0000000000e+00 0.0000e+00 1.0000e+00
       12  1    3    3    0    0 +4.5110028169e+00 +3.8606996358e+01 -1.9307340751e+01 4.3400722587e+01 0.0000000000e+00 0.0000e+00 -1.0000e+00
</event>
<event>
 8      4 +3.7482383e-04 9.11880000e+01 7.81616400e-03 1.18400000e-01
      -11 -1    0    0    0    0 +0.0000000000e+00 +0.0000000000e+00 +4.5593999997e+01 4.5594000000e+01 5.1100000000e-04 0.0000e+00 1.0000e+00
       11 -1    0    0    0    0 -0.0000000000e+00 -0.0000000000e+00 -4.5593999997e+01 4.5594000000e+01 5.1100000000e-04 0.0000e+00 -1.0000e+00
       23  2    1    2    0    0 +1.7763568394e-15 +1.7763568394e-15 +0.0000000000e+00 9.1188000000e+01 9.1188000000e+01 1.2804e-13 0.0000e+00
 -9990012  2    3    3    0    0 +1.4155870080e+01 +1.4008055157e+01 +3.8561756238e+01 4.7787270615e+01 1.9999998041e+01 7.2649e-02 0.0000e+00
      -11  1    4    4    0    0 +1.0361948972e+01 +4.7288760980e+00 +1.0687253726e+01 1.5618887544e+01 5.1100000000e-04 0.0000e+00 1.0000e+00
       11  1    4    4    0    0 +1.6940221975e+00 +9.3361913881e+00 +8.6819123993e+00 1.2861173508e+01 5.1100000000e-04 0.0000e+00 -1.0000e+00
      -12  1    4    4    0    0 +2.0998989102e+00 -5.7012328834e-02 +1.9192590113e+01 1.9307209562e+01 0.0000000000e+00 0.0000e+00 1.0000e+00
       12  1    3    3    0    0 -1.4155870080e+01 -1.4008055157e+01 -3.8561756238e+01 4.3400729385e+01 0.0000000000e+00 0.0000e+00 -1.0000e+00
</event>
<event>
 8      3 +3.7482383e-04 9.11880000e+01 7.81616400e-03 1.18400000e-01
      -11 -1    0    0    0    0 +0.0000000000e+00 +0.0000000000e+00 +4.5593999997e+01 4.5594000000e+01 5.1100000000e-04 0.0000e+00 1.0000e+00
       11 -1    0    0    0    0 -0.0000000000e+00 -0.0000000000e+00 -4.5593999997e+01 4.5594000000e+01 5.1100000000e-04 0.0000e+00 -1.0000e+00
       23  2    1    2    0    0 +0.0000000000e+00 +0.0000000000e+00 +7.1054273576e-15 9.1188000000e+01 9.1188000000e+01 1.1158e-13 0.0000e+00
  9990012  2    3    3    0    0 +6.2109414489e+00 -1.3161392057e+01 -4.0887943025e+01 4.7787286649e+01 2.0000071149e+01 3.9098e-01 0.0000e+00
      -11  1    4    4    0    0 +6.1424204660e+00 -6.2147271680e+00 -5.0829425567e+00 1.0108831201e+01 5.1100000000e-04 0.0000e+00 1.0000e+00
       11  1    4    4    0    0 -3.6317985468e-01 +8.6063717049e-01 +9.2992873937e-02 9.3874590907e-01 5.1100000000e-04 0.0000e+00 -1.0000e+00
       12  1    4    4    0    0 +4.3170083765e-01 -7.8073020598e+00 -3.5897993342e+01 3.6739709539e+01 0.0000000000e+00 0.0000e+00 -1.0000e+00
      -12  1    3    3    0    0 -6.2109414489e+00 +1.3161392057e+01 +4.0887943025e+01 4.3400713351e+01 0.0000000000e+00 0.0000e+00 1.0000e+00
</event>
<event>
 8      4 +3.7482383e-04 9.11880000e+01 7.81616400e-03 1.18400000e-01
      -11 -1    0    0    0    0 +0.0000000000e+00 +0.0000000000e+00 +4.5593999997e+01 4.5594000000e+01 5.1100000000e-04 0.0000e+00 -1.0000e+00
       11 -1    0    0    0    0 -0.0000000000e+00 -0.0000000000e+00 -4.5593999997e+01 4.5594000000e+01 5.1100000000e-04 0.0000e+00 1.0000e+00
       23  2    1    2    0    0 +3.5527136788e-15 +0.0000000000e+00 +0.0000000000e+00 9.1188000000e+01 9.1188000000e+01 3.0387e-15 0.0000e+00
 -9990012  2    3    3    0    0 -2.1812714295e+01 -1.3433844056e+01 -3.5033698208e+01 4.7787277873e+01 2.0000031133e+01 5.5077e-02 0.0000e+00
      -11  1    4    4    0    0 -2.1210686486e+01 -9.1382606776e+00 -2.6915373078e+01 3.5466016658e+01 5.1100000000e-04 0.0000e+00 1.0000e+00
       11  1    4    4    0    0 -1.3598375123e+00 -3.1026401637e+00 +6.4183996388e-01 3.4478243641e+00 5.1100000000e-04 0.0000e+00 -1.0000e+00
      -12  1    4    4    0    0 +7.5780970309e-01 -1.1929432142e+00 -8.7601650947e+00 8.8734368508e+00 0.0000000000e+00 0.0000e+00 1.0000e+00
       12  1    3    3    0    0 +2.1812714295e+01 +1.3433844056e+01 +3.5033698208e+01 4.3400722127e+01 0.0000000000e+00 0.0000e+00 -1.0000e+00
</event>
<event>
 8      3 +3.7482383e-04 9.11880000e+01 7.81616400e-03 1.18400000e-01
      -11 -1    0    0    0    0 +0.0000000000e+00 +0.0000000000e+00 +4.5593999997e+01 4.5594000000e+01 5.1100000000e-04 0.0000e+00 1.0000e+00
       11 -1    0    0    0    0 -0.0000000000e+00 -0.0000000000e+00 -4.5593999997e+01 4.5594000000e+01 5.1100000000e-04 0.0000e+00 -1.0000e+00
       23  2    1    2    0    0 +2.2204460493e-16 +3.5527136788e-15 +0.0000000000e+00 9.1188000000e+01 9.1188000000e+01 9.7700e-14 0.0000e+00
  9990012  2    3    3    0    0 -1.9700688921e+00 -2.3448408402e+01 -3.6467987252e+01 4.7787272792e+01 2.0000007966e+01 1.8081e-01 0.0000e+00
      -11  1    4    4    0    0 -7.6603924462e+00 -1.0933989320e+01 -1.7904115546e+01 2.2333631335e+01 5.1100000000e-04 0.0000e+00 1.0000e+00
       11  1    4    4    0    0 -2.2412361128e+00 +9.8596816051e-02 -4.1795957250e+00 4.7436147959e+00 5.1100000000e-04 0.0000e+00 -1.0000e+00
       12  1    4    4    0    0 +7.9315596669e+00 -1.2613015898e+01 -1.4384275981e+01 2.0710026661e+01 0.0000000000e+00 0.0000e+00 -1.0000e+00
      -12  1    3    3    0    0 +1.9700688921e+00 +2.3448408402e+01 +3.6467987252e+01 4.3400727208e+01 0.0000000000e+00 0.0000e+00 1.0000e+00
</event>
<event>
 8      4 +3.7482383e-04 9.11880000e+01 7.81616400e-03 1.18400000e-01
      -11 -1    0    0    0    0 +0.0000000000e+00 +0.0000000000e+00 +4.5593999997e+01 4.5594000000e+01 5.1100000000e-04 0.0000e+00 1.0000e+00
       11 -1    0    0    0    0 -0.0000000000e+00 -0.0000000000e+00 -4.5593999997e+01 4.5594000000e+01 5.1100000000e-04 0.0000e+00 -1.0000e+00
       23  2    1    2    0    0 +0.0000000000e+00 +0.0000000000e+00 -8.8817841970e-16 9.1188000000e+01 9.1188000000e+01 3.4290e-13 0.0000e+00
 -9990012  2    3    3    0    0 -6.9508073422e-01 +4.2672440868e+01 -7.8868747909e+00 4.7787272578e+01 2.0000006990e+01 6.9899e-02 0.0000e+00
      -11  1    4    4    0    0 -1.0364961900e+00 +2.2439247082e+01 -4.8740117101e+00 2.2985867927e+01 5.1100000000e-04 0.0000e+00 1.0000e+00
       11  1    4    4    0    0 +5.9585570500e+00 +1.0578675595e+01 -5.5460107551e+00 1.3348071584e+01 5.1100000000e-04 0.0000e+00 -1.0000e+00
      -12  1    4    4    0    0 -5.6171415942e+00 +9.6545181909e+00 +2.5331476743e+00 1.1453333066e+01 0.0000000000e+00 0.0000e+00 1.0000e+00
       12  1    3    3    0    0 +6.9508073422e-01 -4.2672440868e+01 +7.8868747909e+00 4.3400727422e+01 0.0000000000e+00 0.0000e+00 -1.0000e+00
</event>
<event>
 8      3 +3.7482383e-04 9.11880000e+01 7.81616400e-03 1.18400000e-01
      -11 -1    0    0    0    0 +0.0000000000e+00 +0.0000000000e+00 +4.5593999997e+01 4.5594000000e+01 5.1100000000e-04 0.0000e+00 1.0000e+00
       11 -1    0    0    0    0 -0.0000000000e+00 -0.0000000000e+00 -4.5593999997e+01 4.5594000000e+01 5.1100000000e-04 0.0000e+00 -1.0000e+00
       23  2    1    2    0    0 +0.0000000000e+00 +0.0000000000e+00 +0.0000000000e+00 9.1188000000e+01 9.1188000000e+01 3.2660e-14 0.0000e+00
  9990012  2    3    3    0    0 -9.6340612096e+00 +2.5595841228e+01 -3.3699572840e+01 4.7787269209e+01 1.9999991631e+01 3.7383e-01 0.0000e+00
      -11  1    4    4    0    0 +2.3611606149e+00 +1.7763681692e+01 -1.2509723768e+01 2.1854442471e+01 5.1100000000e-04 0.0000e+00 1.0000e+00
       11  1    4    4    0    0 -5.9085357852e+00 +1.8172358674e+00 -6.7918183637e+00 9.1837867064e+00 5.1100000000e-04 0.0000e+00 -1.0000e+00
       12  1    4    4    0    0 -6.0866860393e+00 +6.0149236687e+00 -1.4398030708e+01 1.6749040031e+01 0.0000000000e+00 0.0000e+00 -1.0000e+00
      -12  1    3    3    0    0 +9.6340612096e+00 -2.5595841228e+01 +3.3699572840e+01 4.3400730791e+01 0.0000000000e+00 0.0000e+00 1.0000e+00
</event>
<event>
 8      3 +3.7482383e-04 9.11880000e+01 7.81616400e-03 1.18400000e-01
      -11 -1    0    0    0    0 +0.0000000000e+00 +0.0000000000e+00 +4.5593999997e+01 4.5594000000e+01 5.1100000000e-04 0.0000e+00 -1.0000e+00
       11 -1    0    0    0    0 -0.0000000000e+00 -0.0000000000e+00 -4.5593999997e+01 4.5594000000e+01 5.1100000000e-04 0.0000e+00 1.0000e+00
       23  2    1    2    0    0 +0.0000000000e+00 +0.0000000000e+00 +0.0000000000e+00 9.1188000000e+01 9.1188000000e+01 2.3122e-13 0.0000e+00
  9990012  2    3    3    0    0 -3.0658224958e+01 -1.4220808602e+01 +2.7229858712e+01 4.7787270048e+01 1.9999995455e+01 7.1674e-01 0.0000e+00
      -11  1    4    4    0    0 -3.1461771214e+00 -7.7051750590e+00 +4.9340082243e+00 9.6753599720e+00 5.1100000000e-04 0.0000e+00 -1.0000e+00
       11  1    4    4    0    0 -9.0290716755e-02 -1.2158314156e+00 -1.1275271729e+00 1.6606372968e+00 5.1100000000e-04 0.0000e+00 1.0000e+00
       12  1    4    4    0    0 -2.7421757120e+01 -5.2998021274e+00 +2.3423377661e+01 3.6451272779e+01 0.0000000000e+00 0.0000e+00 -1.0000e+00
      -12  1    3    3    0    0 +3.0658224958e+01 +1.4220808602e+01 -2.7229858712e+01 4.3400729952e+01 0.0000000000e+00 0.0000e+00 1.0000e+00
</event>
<event>
 8      3 +3.7482383e-04 9.11880000e+01 7.81616400e-03 1.18400000e-01
      -11 -1    0    0    0    0 +0.0000000000e+00 +0.0000000000e+00 +4.5593999997e+01 4.5594000000e+01 5.1100000000e-04 0.0000e+00 -1.0000e+00
       11 -1    0    0    0    0 -0.0000000000e+00 -0.0000000000e+00 -4.5593999997e+01 4.5594000000e+01 5.1100000000e-04 0.0000e+00 1.0000e+00
       23  2    1    2    0    0 +0.0000000000e+00 +0.0000000000e+00 +0.0000000000e+00 9.1188000000e+01 9.1188000000e+01 1.0802e-13 0.0000e+00
  9990012  2    3    3    0    0 +5.6030986495e+00 -2.4424920746e+01 +3.5435178352e+01 4.7787270366e+01 1.9999996905e+01 1.8510e-01 0.0000e+00
      -11  1    4    4    0    0 +6.9415090538e+00 -1.2454556301e+01 +1.2163913526e+01 1.8741966629e+01 5.1100000000e-04 0.0000e+00 1.0000e+00
       11  1    4    4    0    0 -2.0186771440e+00 -1.3261385043e+01 +1.3030733441e+01 1.8701320941e+01 5.1100000000e-04 0.0000e+00 -1.0000e+00
       12  1    4    4    0    0 +6.8026673962e-01 +1.2910205979e+00 +1.0240531385e+01 1.0343982795e+01 0.0000000000e+00 0.0000e+00 -1.0000e+00
      -12  1    3    3    0    0 -5.6030986495e+00 +2.4424920746e+01 -3.5435178352e+01 4.3400729634e+01 0.0000000000e+00 0.0000e+00 1.0000e+00
</event>
<event>
 7      4 +3.7482383e-04 4.77872700e+01 7.81616400e-03 1.31266800e-01
      -11 -1    0    0    0    0 +0.0000000000e+00 +0.0000000000e+00 +4.5593999997e+01 4.5594000000e+01 5.1100000000e-04 0.0000e+00 -1.0000e+00
       11 -1    0    0    0    0 -0.0000000000e+00 -0.0000000000e+00 -4.5593999997e+01 4.5594000000e+01 5.1100000000e-04 0.0000e+00 1.0000e+00
 -9990012  2    1    2    0    0 +2.6652585108e+00 +4.1697746495e+01 +1.1739594574e+01 4.7787265600e+01 1.9999975177e+01 1.1185e-01 0.0000e+00
      -11  1    3    3    0    0 +5.7892352072e+00 +1.0690648873e+01 +6.2910402982e+00 1.3688769335e+01 5.1100000000e-04 0.0000e+00 1.0000e+00
       11  1    3    3    0    0 -8.9385172007e-01 +1.7523333460e+01 -3.3241819455e+00 1.7858229821e+01 5.1100000000e-04 0.0000e+00 -1.0000e+00
      -12  1    3    3    0    0 -2.2301249764e+00 +1.3483764162e+01 +8.7727362209e+00 1.6240266445e+01 0.0000000000e+00 0.0000e+00 1.0000e+00
       12  1    1    2    0    0 -2.6652585108e+00 -4.1697746495e+01 -1.1739594574e+01 4.3400734400e+01 0.0000000000e+00 0.0000e+00 -1.0000e+00
</event>
<event>
 8      4 +3.7482383e-04 9.11880000e+01 7.81616400e-03 1.18400000e-01
      -11 -1    0    0    0    0 +0.0000000000e+00 +0.0000000000e+00 +4.5593999997e+01 4.5594000000e+01 5.1100000000e-04 0.0000e+00 1.0000e+00
       11 -1    0    0    0    0 -0.0000000000e+00 -0.0000000000e+00 -4.5593999997e+01 4.5594000000e+01 5.1100000000e-04 0.0000e+00 -1.0000e+00
       23  2    1    2    0    0 +7.1054273576e-15 +0.0000000000e+00 -3.5527136788e-15 9.1188000000e+01 9.1188000000e+01 8.3308e-14 0.0000e+00
 -9990012  2    3    3    0    0 -3.1602490897e+01 +1.7445742194e+01 +2.4094645578e+01 4.7787270776e+01 1.9999998778e+01 9.1551e-01 0.0000e+00
      -11  1    4    4    0    0 -5.5778303765e+00 +9.1745009736e+00 +5.2132917521e+00 1.1935747609e+01 5.1100000000e-04 0.0000e+00 1.0000e+00
       11  1    4    4    0    0 -1.7416130767e+00 +5.8129286360e+00 +3.6299136785e+00 7.0710415789e+00 5.1100000000e-04 0.0000e+00 -1.0000e+00
      -12  1    4    4    0    0 -2.4283047444e+01 +2.4583125847e+00 +1.5251440147e+01 2.8780481589e+01 0.0000000000e+00 0.0000e+00 1.0000e+00
       12  1    3    3    0    0 +3.1602490897e+01 -1.7445742194e+01 -2.4094645578e+01 4.3400729224e+01 0.0000000000e+00 0.0000e+00 -1.0000e+00
</event>
<event>
 8      3 +3.7482383e-04 9.11880000e+01 7.81616400e-03 1.18400000e-01
      -11 -1    0    0    0    0 +0.0000000000e+00 +0.0000000000e+00 +4.5593999997e+01 4.5594000000e+01 5.1100000000e-04 0.0000e+00 1.0000e+00
       11 -1    0    0    0    0 -0.0000000000e+00 -0.0000000000e+00 -4.5593999997e+01 4.5594000000e+01 5.1100000000e-04 0.0000e+00 -1.0000e+00
       23  2    1    2    0    0 -1.6653345369e-16 +0.0000000000e+00 -7.1054273576e-15 9.1188000000e+01 9.1188000000e+01 1.5224e-13 0.0000e+00
  9990012  2    3    3    0    0 -4.0178119308e-01 +2.2317929994e+01 -3.7220583919e+01 4.7787270806e+01 1.9999998913e+01 2.0802e-01 0.0000e+00
      -11  1    4    4    0    0 +5.1522324337e+00 +1.8675066541e+01 -2.6402501942e+01 3.2747453617e+01 5.1100000000e-04 0.0000e+00 1.0000e+00
       11  1    4    4    0    0 -6.7425971776e+00 +3.9855701476e+00 -1.1268630819e+01 1.3723316906e+01 5.1100000000e-04 0.0000e+00 -1.0000e+00
       12  1    4    4    0    0 +1.1885835509e+00 -3.4270669459e-01 +4.5054884235e-01 1.3165002830e+00 0.0000000000e+00 0.0000e+00 -1.0000e+00
      -12  1    3    3    0    0 +4.0178119308e-01 -2.2317929994e+01 +3.7220583919e+01 4.3400729194e+01 0.0000000000e+00 0.0000e+00 1.0000e+00
</event>
<event>
 8      3 +3.7482383e-04 9.11880000e+01 7.81616400e-03 1.18400000e-01
      -11 -1    0    0    0    0 +0.0000000000e+00 +0.0000000000e+00 +4.5593999997e+01 4.5594000000e+01 5.1100000000e-04 0.0000e+00 -1.0000e+00
       11 -1    0    0    0    0 -0.0000000000e+00 -0.0000000000e+00 -4.5593999997e+01 4.5594000000e+01 5.1100000000e-04 0.0000e+00 1.0000e+00
       23  2    1    2    0    0 -7.1054273576e-15 +4.4408920985e-16 +0.0000000000e+00 9.1188000000e+01 9.1188000000e+01 3.7073e-14 0.0000e+00
  9990012  2    3    3    0    0 +3.7059662853e+01 -8.8802323504e-01 +2.2570261596e+01 4.7787263778e+01 1.9999966872e+01 3.0173e-01 0.0000e+00
      -11  1    4    4    0    0 +1.6327994391e+01 -5.5977786559e-01 +3.1263751593e+00 1.6634030599e+01 5.1100000000e-04 0.0000e+00 1.0000e+00
       11  1    4    4    0    0 +2.7555736566e+00 -3.9493797404e+00 +5.8841669565e-01 4.8514967773e+00 5.1100000000e-04 0.0000e+00 -1.0000e+00
       12  1    4    4    0    0 +1.7976094806e+01 +3.6211343709e+00 +1.8855469741e+01 2.6301736402e+01 0.0000000000e+00 0.0000e+00 -1.0000e+00
      -12  1    3    3    0    0 -3.7059662853e+01 +8.8802323504e-01 -2.2570261596e+01 4.3400736222e+01 0.0000000000e+00 0.0000e+00 1.0000e+00
</event>
<event>
 8      4 +3.7482383e-04 9.11880000e+01 7.81616400e-03 1.18400000e-01
      -11 -1    0    0    0    0 +0.0000000000e+00 +0.0000000000e+00 +4.5593999997e+01 4.5594000000e+01 5.1100000000e-04 0.0000e+00 1.0000e+00
       11 -1    0    0    0    0 -0.0000000000e+00 -0.0000000000e+00 -4.5593999997e+01 4.5594000000e+01 5.1100000000e-04 0.0000e+00 -1.0000e+00
       23  2    1    2    0    0 +0.0000000000e+00 +7.1054273576e-15 +0.0000000000e+00 9.1188000000e+01 9.1188000000e+01 1.0040e-13 0.0000e+00
 -9990012  2    3    3    0    0 -7.6244092019e+00 -3.9747026028e+01 +1.5673720222e+01 4.7787271903e+01 2.0000003916e+01 2.0192e-02 0.0000e+00
      -11  1    4    4    0    0 -4.6823458801e-01 -1.8478285688e+01 +1.4903716595e+01 2.3744200433e+01 5.1100000000e-04 0.0000e+00 1.0000e+00
       11  1    4    4    0    0 -5.9043255682e-02 +8.0562939332e-01 -2.1173754952e-01 8.3507956293e-01 5.1100000000e-04 0.0000e+00 -1.0000e+00
      -12  1    4    4    0    0 -7.0971313582e+00 -2.2074369733e+01 +9.8174117671e-01 2.3207991908e+01 0.0000000000e+00 0.0000e+00 1.0000e+00
       12  1    3    3    0    0 +7.6244092019e+00 +3.9747026028e+01 -1.5673720222e+01 4.3400728097e+01 0.0000000000e+00 0.0000e+00 -1.0000e+00
</event>
<event>
 8      4 +3.7482383e-04 9.11880000e+01 7.81616400e-03 1.18400000e-01
      -11 -1    0    0    0    0 +0.0000000000e+00 +0.0000000000e+00 +4.5593999997e+01 4.5594000000e+01 5.1100000000e-04 0.0000e+00 1.0000e+00
       11 -1    0    0    0    0 -0.0000000000e+00 -0.0000000000e+00 -4.5593999997e+01 4.5594000000e+01 5.1100000000e-04 0.0000e+00 -1.0000e+00
       23  2    1    2    0    0 +0.0000000000e+00 -1.7763568394e-15 -4.4408920985e-16 9.1188000000e+01 9.1188000000e+01 3.0414e-14 0.0000e+00
 -9990012  2    3    3    0    0 +4.1211772161e+01 -1.3120648763e+01 -3.6139775502e+00 4.7787280855e+01 2.0000044729e+01 6.0349e-01 0.0000e+00
      -11  1    4    4    0    0 +2.6793367395e+01 -1.6089792254e+01 -5.0428686601e+00 3.1657486882e+01 5.1100000000e-04 0.0000e+00 1.0000e+00
       11  1    4    4    0    0 +9.2162159529e+00 +5.8150327264e-02 +3.4414550650e+00 9.8379688542e+00 5.1100000000e-04 0.0000e+00 -1.0000e+00
      -12  1    4    4    0    0 +5.2021888131e+00 +2.9109931634e+00 -2.0125639552e+00 6.2918251182e+00 0.0000000000e+00 0.0000e+00 1.0000e+00
       12  1    3    3    0    0 -4.1211772161e+01 +1.3120648763e+01 +3.6139775502e+00 4.3400719145e+01 0.0000000000e+00 0.0000e+00 -1.0000e+00
</event>
<event>
 8      3 +3.7482383e-04 9.11880000e+01 7.81616400e-03 1.18400000e-01
      -11 -1    0    0    0    0 +0.0000000000e+00 +0.0000000000e+00 +4.5593999997e+01 4.5594000000e+01 5.1100000000e-04 0.0000e+00 -1.0000e+00
       11 -1    0    0    0    0 -0.0000000000e+00 -0.0000000000e+00 -4.5593999997e+01 4.5594000000e+01 5.1100000000e-04 0.0000e+00 1.0000e+00
       23  2    1    2    0    0 +0.0000000000e+00 +0.0000000000e+00 -3.5527136788e-15 9.1188000000e+01 9.1188000000e+01 9.6911e-14 0.0000e+00
  9990012  2    3    3    0    0 +2.5753402137e+01 -2.3471882573e+01 +2.5873855680e+01 4.7787269581e+01 1.9999993330e+01 2.4407e-02 0.0000e+00
      -11  1    4    4    0    0 +2.1662966316e+00 +7.5732586584e-01 -2.9355027011e-01 2.3135590733e+00 5.1100000000e-04 0.0000e+00 1.0000e+00
       11  1    4    4    0    0 -7.1246829435e-01 +1.5105133186e-01 -1.2637191055e+00 1.4585656701e+00 5.1100000000e-04 0.0000e+00 -1.0000e+00
       12  1    4    4    0    0 +2.4299573799e+01 -2.4380259771e+01 +2.7431125055e+01 4.4015144838e+01 0.0000000000e+00 0.0000e+00 -1.0000e+00
      -12  1    3    3    0    0 -2.5753402137e+01 +2.3471882573e+01 -2.5873855680e+01 4.3400730419e+01 0.0000000000e+00 0.0000e+00 1.0000e+00
</event>
<event>
 8      3 +3.7482383e-04 9.11880000e+01 7.81616400e-03 1.18400000e-01
      -11 -1    0    0    0    0 +0.0000000000e+00 +0.0000000000e+00 +4.5593999997e+01 4.5594000000e+01 5.1100000000e-04 0.0000e+00 -1.0000e+00
       11 -1    0    0    0    0 -0.0000000000e+00 -0.0000000000e+00 -4.5593999997e+01 4.5594000000e+01 5.1100000000e-04 0.0000e+00 1.0000e+00
       23  2    1    2    0    0 +0.0000000000e+00 -8.8817841970e-16 +4.4408920985e-16 9.1188000000e+01 9.1188000000e+01 5.1732e-14 0.0000e+00
  9990012  2    3    3    0    0 -4.3186706665e+01 +2.9679535542e+00 +3.1181617845e+00 4.7787270585e+01 1.9999997903e+01 9.9306e-02 0.0000e+00
      -11  1    4    4    0    0 +1.1954927939e+00 -4.3867441575e-02 +4.4186143551e-01 1.2752917949e+00 5.1100000000e-04 0.0000e+00 1.0000e+00
       11  1    4    4    0    0 -1.4746974212e+01 -3.6385813424e+00 +5.1514830206e+00 1.6039024290e+01 5.1100000000e-04 0.0000e+00 -1.0000e+00
       12  1    4    4    0    0 -2.9635225247e+01 +6.6504023382e+00 -2.4751826716e+00 3.0472954500e+01 0.0000000000e+00 0.0000e+00 -1.0000e+00
      -12  1    3    3    0    0 +4.3186706665e+01 -2.9679535542e+00 -3.1181617845e+00 4.3400729415e+01 0.0000000000e+00 0.0000e+00 1.0000e+00
</event>
<event>
 8      3 +3.7482383e-04 9.11880000e+01 7.81616400e-03 1.18400000e-01
      -11 -1    0    0    0    0 +0.0000000000e+00 +0.0000000000e+00 +4.5593999997e+01 4.5594000000e+01 5.1100000000e-04 0.0000e+00 -1.0000e+00
       11 -1    0    0    0    0 -0.0000000000e+00 -0.0000000000e+00 -4.5593999997e+01 4.5594000000e+01 5.1100000000e-04 0.0000e+00 1.0000e+00
       23  2    1    2    0    0 -3.5527136788e-15 +7.1054273576e-15 +8.8817841970e-16 9.1188000000e+01 9.1188000000e+01 6.1132e-15 0.0000e+00
  9990012  2    3    3    0    0 +1.8042364323e+01 -3.9110486126e+01 -5.3354267584e+00 4.7787264821e+01 1.9999971624e+01 1.6543e-01 0.0000e+00
      -11  1    4    4    0    0 +2.0037222695e+00 -1.3029048973e+00 -3.1100044451e+00 3.9223197236e+00 5.1100000000e-04 0.0000e+00 1.0000e+00
       11  1    4    4    0    0 +1.0332588243e+01 -1.0090702105e+01 -5.3353208151e+00 1.5396437810e+01 5.1100000000e-04 0.0000e+00 -1.0000e+00
       12  1    4    4    0    0 +5.7060538103e+00 -2.7716879124e+01 +3.1098985018e+00 2.8468507287e+01 0.0000000000e+00 0.0000e+00 -1.0000e+00
      -12  1    3    3    0    0 -1.8042364323e+01 +3.9110486126e+01 +5.3354267584e+00 4.3400735179e+01 0.0000000000e+00 0.0000e+00 1.0000e+00
</event>
<event>
 8      3 +3.7482383e-04 9.11880000e+01 7.81616400e-03 1.18400000e-01
      -11 -1    0    0    0    0 +0.0000000000e+00 +0.0000000000e+00 +4.5593999997e+01 4.5594000000e+01 5.1100000000e-04 0.0000e+00 -1.0000e+00
       11 -1    0    0    0    0 -0.0000000000e+00 -0.0000000000e+00 -4.5593999997e+01 4.5594000000e+01 5.1100000000e-04 0.0000e+00 1.0000e+00
       23  2    1    2    0    0 +0.0000000000e+00 +3.5527136788e-15 +0.0000000000e+00 9.1188000000e+01 9.1188000000e+01 1.9064e-13 0.0000e+00
  9990012  2    3    3    0    0 +2.8624993085e+01 +3.1109158927e+01 +9.8210433515e+00 4.7787275458e+01 2.0000020122e+01 3.3609e-01 0.0000e+00
      -11  1    4    4    0    0 +1.0503766907e+00 +1.6313527715e+00 -3.2112311570e+00 3.7518807100e+00 5.1100000000e-04 0.0000e+00 1.0000e+00
       11  1    4    4    0    0 +2.4343755665e+01 +1.8569736164e+01 +1.0608257004e+01 3.2403528481e+01 5.1100000000e-04 0.0000e+00 -1.0000e+00
       12  1    4    4    0    0 +3.2308607295e+00 +1.0908069991e+01 +2.4240175043e+00 1.1631866267e+01 0.0000000000e+00 0.0000e+00 -1.0000e+00
      -12  1    3    3    0    0 -2.8624993085e+01 -3.1109158927e+01 -9.8210433515e+00 4.3400724542e+01 0.0000000000e+00 0.0000e+00 1.0000e+00
</event>
<event>
 8      3 +3.7482383e-04 9.11880000e+01 7.81616400e-03 1.18400000e-01
      -11 -1    0    0    0    0 +0.0000000000e+00 +0.0000000000e+00 +4.5593999997e+01 4.5594000000e+01 5.1100000000e-04 0.0000e+00 -1.0000e+00
       11 -1    0    0    0    0 -0.0000000000e+00 -0.0000000000e+00 -4.5593999997e+01 4.5594000000e+01 5.1100000000e-04 0.0000e+00 1.0000e+00
       23  2    1    2    0    0 +0.0000000000e+00 +0.0000000000e+00 +0.0000000000e+00 9.1188000000e+01 9.1188000000e+01 3.9103e-14 0.0000e+00
  9990012  2    3    3    0    0 -5.9206427322e+00 -2.2614277192e+00 +4.2935453979e+01 4.7787294083e+01 2.0000105044e+01 1.4031e-01 0.0000e+00
      -11  1    4    4    0    0 -1.2500627045e+00 +1.1334212188e-01 -5.4143051338e-02 1.2563578045e+00 5.1100000000e-04 0.0000e+00 1.0000e+00
       11  1    4    4    0    0 -3.9602756081e+00 -9.6769873749e+00 +2.6114259231e+01 2.8129742320e+01 5.1100000000e-04 0.0000e+00 -1.0000e+00
       12  1    4    4    0    0 -7.1030441964e-01 +7.3022175338e+00 +1.6875337799e+01 1.8401193959e+01 0.0000000000e+00 0.0000e+00 -1.0000e+00
      -12  1    3    3    0    0 +5.9206427322e+00 +2.2614277192e+00 -4.2935453979e+01 4.3400705917e+01 0.0000000000e+00 0.0000e+00 1.0000e+00
</event>
<event>
 8      4 +3.7482383e-04 9.11880000e+01 7.81616400e-03 1.18400000e-01
      -11 -1    0    0    0    0 +0.0000000000e+00 +0.0000000000e+00 +4.5593999997e+01 4.5594000000e+01 5.1100000000e-04 0.0000e+00 1.0000e+00
       11 -1    0    0    0    0 -0.0000000000e+00 -0.0000000000e+00 -4.5593999997e+01 4.5594000000e+01 5.1100000000e-04 0.0000e+00 -1.0000e+00
       23  2    1    2    0    0 +0.0000000000e+00 -3.5527136788e-15 +0.0000000000e+00 9.1188000000e+01 9.1188000000e+01 2.1406e-13 0.0000e+00
 -9990012  2    3    3    0    0 +2.7348656955e+01 +2.4949086195e+01 +2.2654305941e+01 4.7787268245e+01 1.9999987237e+01 1.4150e-01 0.0000e+00
      -11  1    4    4    0    0 -7.1142165630e-01 +1.3089649809e+00 -9.5240148585e-01 1.7682134898e+00 5.1100000000e-04 0.0000e+00 1.0000e+00
       11  1    4    4    0    0 +8.4156457944e+00 +4.1477096485e-01 +8.8151668632e+00 1.2194355095e+01 5.1100000000e-04 0.0000e+00 -1.0000e+00
      -12  1    4    4    0    0 +1.9644432816e+01 +2.3225350249e+01 +1.4791540564e+01 3.3824699661e+01 0.0000000000e+00 0.0000e+00 1.0000e+00
       12  1    3    3    0    0 -2.7348656955e+01 -2.4949086195e+01 -2.2654305941e+01 4.3400731755e+01 0.0000000000e+00 0.0000e+00 -1.0000e+00
</event>
<event>
 8      4 +3.7482383e-04 9.11880000e+01 7.81616400e-03 1.18400000e-01
      -11 -1    0    0    0    0 +0.0000000000e+00 +0.0000000000e+00 +4.5593999997e+01 4.5594000000e+01 5.1100000000e-04 0.0000e+00 -1.0000e+00
       11 -1    0    0    0    0 -0.0000000000e+00 -0.0000000000e+00 -4.5593999997e+01 4.5594000000e+01 5.1100000000e-04 0.0000e+00 1.0000e+00
       23  2    1    2    0    0 -8.8817841970e-16 +1.7763568394e-15 +0.0000000000e+00 9.1188000000e+01 9.1188000000e+01 9.2060e-14 0.0000e+00
 -9990012  2    3    3    0    0 -6.9039479651e+00 +1.5791250387e+01 -3.9832087509e+01 4.7787270955e+01 1.9999999592e+01 5.4164e-02 0.0000e+00
      -11  1    4    4    0    0 +2.6773742809e+00 +7.1013376766e+00 -2.8062935448e+01 2.9071045322e+01 5.1100000000e-04 0.0000e+00 1.0000e+00
       11  1    4    4    0    0 -3.3398613606e+00 -5.6741649035e-01 -2.7846240665e+00 4.3852898233e+00 5.1100000000e-04 0.0000e+00 -1.0000e+00
      -12  1    4    4    0    0 -6.2414608853e+00 +9.2573292011e+00 -8.9845279941e+00 1.4330935810e+01 0.0000000000e+00 0.0000e+00 1.0000e+00
       12  1    3    3    0    0 +6.9039479651e+00 -1.5791250387e+01 +3.9832087509e+01 4.3400729045e+01 0.0000000000e+00 0.0000e+00 -1.0000e+00
</event>
<event>
 8      3 +3.7482383e-04 9.11880000e+01 7.81616400e-03 1.18400000e-01
      -11 -1    0    0    0    0 +0.0000000000e+00 +0.0000000000e+00 +4.5593999997e+01 4.5594000000e+01 5.1100000000e-04 0.0000e+00 1.0000e+00
       11 -1    0    0    0    0 -0.0000000000e+00 -0.0000000000e+00 -4.5593999997e+01 4.5594000000e+01 5.1100000000e-04 0.0000e+00 -1.0000e+00
       23  2    1    2    0    0 +0.0000000000e+00 -1.7763568394e-15 +0.0000000000e+00 9.1188000000e+01 9.1188000000e+01 1.1007e-14 0.0000e+00
  9990012  2    3    3    0    0 -2.8370772800e+00 -1.3191790950e+01 -4.1249860231e+01 4.7787270455e+01 1.9999997312e+01 2.7942e-01 0.0000e+00
      -11  1    4    4    0    0 -6.4129365276e+00 -8.2038001406e+00 -1.1925423107e+01 1.5831734213e+01 5.1100000000e-04 0.0000e+00 1.0000e+00
       11  1    4    4    0    0 -2.1122771047e+00 -2.6209910242e+00 -1.9370898182e+00 3.8837643777e+00 5.1100000000e-04 0.0000e+00 -1.0000e+00
       12  1    4    4    0    0 +5.6881363522e+00 -2.3669997852e+00 -2.7387347306e+01 2.8071771864e+01 0.0000000000e+00 0.0000e+00 -1.0000e+00
      -12  1    3    3    0    0 +2.8370772800e+00 +1.3191790950e+01 +4.1249860231e+01 4.3400729545e+01 0.0000000000e+00 0.0000e+00 1.0000e+00
</event>
<event>
 8      4 +3.7482383e-04 9.11880000e+01 7.81616400e-03 1.18400000e-01
      -11 -1    0    0    0    0 +0.0000000000e+00 +0.0000000000e+00 +4.5593999997e+01 4.5594000000e+01 5.1100000000e-04 0.0000e+00 1.0000e+00
       11 -1    0    0    0    0 -0.0000000000e+00 -0.0000000000e+00 -4.5593999997e+01 4.5594000000e+01 5.1100000000e-04 0.0000e+00 -1.0000e+00
       23  2    1    2    0    0 +0.0000000000e+00 +0.0000000000e+00 +0.0000000000e+00 9.1188000000e+01 9.1188000000e+01 1.1781e-13 0.0000e+00
 -9990012  2    3    3    0    0 +3.2489179856e+01 -1.6474384872e+01 +2.3593888516e+01 4.7787265675e+01 1.9999975519e+01 1.3210e-01 0.0000e+00
      -11  1    4    4    0    0 +1.2587376880e+01 -5.4796172585e+00 +1.6063782809e+01 2.1130863219e+01 5.1100000000e-04 0.0000e+00 1.0000e+00
       11  1    4    4    0    0 +1.0673280703e+01 -1.2158803051e+01 +5.8514305905e+00 1.7204495134e+01 5.1100000000e-04 0.0000e+00 -1.0000e+00
      -12  1    4    4    0    0 +9.2285222744e+00 +1.1640354380e+00 +1.6786751162e+00 9.4519073215e+00 0.0000000000e+00 0.0000e+00 1.0000e+00
       12  1    3    3    0    0 -3.2489179856e+01 +1.6474384872e+01 -2.3593888516e+01 4.3400734325e+01 0.0000000000e+00 0.0000e+00 -1.0000e+00
</event>
<event>
 8      3 +3.7482383e-04 9.11880000e+01 7.81616400e-03 1.18400000e-01
      -11 -1    0    0    0    0 +0.0000000000e+00 +0.0000000000e+00 +4.5593999997e+01 4.5594000000e+01 5.1100000000e-04 0.0000e+00 1.0000e+00
       11 -1    0    0    0    0 -0.0000000000e+00 -0.0000000000e+00 -4.5593999997e+01 4.5594000000e+01 5.1100000000e-04 0.0000e+00 -1.0000e+00
       23  2    1    2    0    0 +0.0000000000e+00 +0.0000000000e+00 +0.0000000000e+00 9.1188000000e+01 9.1188000000e+01 7.1665e-14 0.0000e+00
  9990012  2    3    3    0    0 +3.7927937416e+01 -9.9972529512e+00 -1.8578206407e+01 4.7787271244e+01 2.0000000912e+01 6.9369e-02 0.0000e+00
      -11  1    4    4    0    0 +8.1898401380e+00 -2.7454942087e+00 +1.1014319771e+00 8.7077191386e+00 5.1100000000e-04 0.0000e+00 1.0000e+00
       11  1    4    4    0    0 +1.7972370614e+01 -8.0572502594e+00 -5.1344388195e+00 2.0354062235e+01 5.1100000000e-04 0.0000e+00 -1.0000e+00
       12  1    4    4    0    0 +1.1765726665e+01 +8.0549151685e-01 -1.4545199565e+01 1.8725489871e+01 0.0000000000e+00 0.0000e+00 -1.0000e+00
      -12  1    3    3    0    0 -3.7927937416e+01 +9.9972529512e+00 +1.8578206407e+01 4.3400728756e+01 0.0000000000e+00 0.0000e+00 1.0000e+00
</event>
<event>
 8      4 +3.7482383e-04 9.11880000e+01 7.81616400e-03 1.18400000e-01
      -11 -1    0    0    0    0 +0.0000000000e+00 +0.0000000000e+00 +4.5593999997e+01 4.5594000000e+01 5.1100000000e-04 0.0000e+00 1.0000e+00
       11 -1    0    0    0    0 -0.0000000000e+00 -0.0000000000e+00 -4.5593999997e+01 4.5594000000e+01 5.1100000000e-04 0.0000e+00 -1.0000e+00
       23  2    1    2    0    0 +0.0000000000e+00 +0.0000000000e+00 +0.0000000000e+00 9.1188000000e+01 9.1188000000e+01 5.5116e-15 0.0000e+00
 -9990012  2    3    3    0    0 +1.5249269093e+01 -3.4129869534e+01 +2.2050735723e+01 4.7787272492e+01 2.0000006600e+01 1.2679e-02 0.0000e+00
      -11  1    4    4    0    0 +7.5710788995e-01 -9.6798184180e+00 +1.2880561027e+01 1.6130125529e+01 5.1100000000e-04 0.0000e+00 1.0000e+00
       11  1    4    4    0    0 +9.1280577897e+00 -5.9034776133e+00 +4.6791057859e+00 1.1834970138e+01 5.1100000000e-04 0.0000e+00 -1.0000e+00
      -12  1    4    4    0    0 +5.3641034137e+00 -1.8546573503e+01 +4.4910689105e+00 1.9822176825e+01 0.0000000000e+00 0.0000e+00 1.0000e+00
       12  1    3    3    0    0 -1.5249269093e+01 +3.4129869534e+01 -2.2050735723e+01 4.3400727508e+01 0.0000000000e+00 0.0000e+00 -1.0000e+00
</event>
<event>
 8      4 +3.7482383e-04 9.11880000e+01 7.81616400e-03 1.18400000e-01
      -11 -1    0    0    0    0 +0.0000000000e+00 +0.0000000000e+00 +4.5593999997e+01 4.5594000000e+01 5.1100000000e-04 0.0000e+00 -1.0000e+00
       11 -1    0    0    0    0 -0.0000000000e+00 -0.0000000000e+00 -4.5593999997e+01 4.5594000000e+01 5.1100000000e-04 0.0000e+00 1.0000e+00
       23  2    1    2    0    0 +1.7763568394e-15 -7.1054273576e-15 +0.0000000000e+00 9.1188000000e+01 9.1188000000e+01 4.1696e-14 0.0000e+00
 -9990012  2    3    3    0    0 -1.0040714159e+01 -4.1440621855e+01 -8.0920746821e+00 4.7787277043e+01 2.0000027348e+01 1.1212e-01 0.0000e+00
      -11  1    4    4    0    0 +2.3046692142e+00 -7.5611878009e+00 -4.0807763759e+00 8.8958303288e+00 5.1100000000e-04 0.0000e+00 1.0000e+00
       11  1    4    4    0    0 -8.7278239955e+00 -8.5186578143e+00 -5.1727721042e+00 1.3247641834e+01 5.1100000000e-04 0.0000e+00 -1.0000e+00
      -12  1    4    4    0    0 -3.6175593778e+00 -2.5360776240e+01 +1.1614737980e+00 2.5643804880e+01 0.0000000000e+00 0.0000e+00 1.0000e+00
       12  1    3    3    0    0 +1.0040714159e+01 +4.1440621855e+01 +8.0920746821e+00 4.3400722957e+01 0.0000000000e+00 0.0000e+00 -1.0000e+00
</event>
<event>
 8      3 +3.7482383e-04 9.11880000e+01 7.81616400e-03 1.18400000e-01
      -11 -1    0    0    0    0 +0.0000000000e+00 +0.0000000000e+00 +4.5593999997e+01 4.5594000000e+01 5.1100000000e-04 0.0000e+00 -1.0000e+00
       11 -1    0    0    0    0 -0.0000000000e+00 -0.0000000000e+00 -4.5593999997e+01 4.5594000000e+01 5.1100000000e-04 0.0000e+00 1.0000e+00
       23  2    1    2    0    0 -1.4210854715e-14 +0.0000000000e+00 -2.2204460493e-16 9.1188000000e+01 9.1188000000e+01 2.2180e-14 0.0000e+00
  9990012  2    3    3    0    0 -4.2325018779e+01 -9.5898596981e+00 -5.0078135619e-01 4.7787269527e+01 1.9999993080e+01 4.9828e-01 0.0000e+00
      -11  1    4    4    0    0 -1.8618276666e+00 -2.2826123441e+00 -3.5631898402e+00 4.6230989036e+00 5.1100000000e-04 0.0000e+00 1.0000e+00
       11  1    4    4    0    0 -6.7437504521e+00 +2.8880412444e+00 -1.9283658512e+00 7.5853508492e+00 5.1100000000e-04 0.0000e+00 -1.0000e+00
       12  1    4    4    0    0 -3.3719440660e+01 -1.0195288598e+01 +4.9907743352e+00 3.5578819774e+01 0.0000000000e+00 0.0000e+00 -1.0000e+00
      -12  1    3    3    0    0 +4.2325018779e+01 +9.5898596981e+00 +5.0078135619e-01 4.3400730473e+01 0.0000000000e+00 0.0000e+00 1.0000e+00
</event>
<event>
 8      3 +3.7482383e-04 9.11880000e+01 7.81616400e-03 1.18400000e-01
      -11 -1    0    0    0    0 +0.0000000000e+00 +0.0000000000e+00 +4.5593999997e+01 4.5594000000e+01 5.1100000000e-04 0.0000e+00 1.0000e+00
       11 -1    0    0    0    0 -0.0000000000e+00 -0.0000000000e+00 -4.5593999997e+01 4.5594000000e+01 5.1100000000e-04 0.0000e+00 -1.0000e+00
       23  2    1    2    0    0 +1.7763568394e-15 +0.0000000000e+00 +0.0000000000e+00 9.1188000000e+01 9.1188000000e+01 2.1632e-14 0.0000e+00
  9990012  2    3    3    0    0 -8.7569739431e+00 -3.6355595401e+00 -4.2352348892e+01 4.7787270254e+01 1.9999996395e+01 1.3261e-02 0.0000e+00
      -11  1    4    4    0    0 -6.1924970621e+00 +3.0933609152e-01 -2.9851318827e+00 6.8814040209e+00 5.1100000000e-04 0.0000e+00 1.0000e+00
       11  1    4    4    0    0 +2.5841290648e+00 -4.6648913870e+00 -2.6440603104e+01 2.6973031484e+01 5.1100000000e-04 0.0000e+00 -1.0000e+00
       12  1    4    4    0    0 -5.1486059458e+00 +7.1999575537e-01 -1.2926613906e+01 1.3932834749e+01 0.0000000000e+00 0.0000e+00 -1.0000e+00
      -12  1    3    3    0    0 +8.7569739431e+00 +3.6355595401e+00 +4.2352348892e+01 4.3400729746e+01 0.0000000000e+00 0.0000e+00 1.0000e+00
</event>
<event>
 8      3 +3.7482383e-04 9.11880000e+01 7.81616400e-03 1.18400000e-01
      -11 -1    0    0    0    0 +0.0000000000e+00 +0.0000000000e+00 +4.5593999997e+01 4.5594000000e+01 5.1100000000e-04 0.0000e+00 1.0000e+00
       11 -1    0    0    0    0 -0.0000000000e+00 -0.0000000000e+00 -4.5593999997e+01 4.5594000000e+01 5.1100000000e-04 0.0000e+00 -1.0000e+00
       23  2    1    2    0    0 +3.3306690739e-16 -7.1054273576e-15 +0.0000000000e+00 9.1188000000e+01 9.1188000000e+01 7.5578e-14 0.0000e+00
  9990012  2    3    3    0    0 +7.5635024992e-01 +2.2236198178e+01 -3.7263973217e+01 4.7787259511e+01 1.9999947412e+01 1.7324e-01 0.0000e+00
      -11  1    4    4    0    0 -2.9645540796e+00 +1.4786925773e+01 -1.3562857184e+01 2.0282821548e+01 5.1100000000e-04 0.0000e+00 1.0000e+00
       11  1    4    4    0    0 -1.4604871833e+00 +8.5345680445e+00 -1.4436886628e+01 1.6834356843e+01 5.1100000000e-04 0.0000e+00 -1.0000e+00
       12  1    4    4    0    0 +5.1813915128e+00 -1.0852956399e+00 -9.2642294050e+00 1.0670081120e+01 0.0000000000e+00 0.0000e+00 -1.0000e+00
      -12  1    3    3    0    0 -7.5635024992e-01 -2.2236198178e+01 +3.7263973217e+01 4.3400740489e+01 0.0000000000e+00 0.0000e+00 1.0000e+00
</event>
<event>
 8      3 +3.7482383e-04 9.11880000e+01 7.81616400e-03 1.18400000e-01
      -11 -1    0    0    0    0 +0.0000000000e+00 +0.0000000000e+00 +4.5593999997e+01 4.5594000000e+01 5.1100000000e-04 0.0000e+00 1.0000e+00
       11 -1    0    0    0    0 -0.0000000000e+00 -0.0000000000e+00 -4.5593999997e+01 4.5594000000e+01 5.1100000000e-04 0.0000e+00 -1.0000e+00
       23  2    1    2    0    0 -8.8817841970e-16 +0.0000000000e+00 +0.0000000000e+00 9.1188000000e+01 9.1188000000e+01 2.2183e-15 0.0000e+00
  9990012  2    3    3    0    0 -3.6515035665e+00 -1.4979808333e+01 -4.0569636732e+01 4.7787267742e+01 1.9999984941e+01 3.4411e-02 0.0000e+00
      -11  1    4    4    0    0 -2.9629886932e+00 -6.5275638718e+00 -1.1392268816e+00 7.2585281046e+00 5.1100000000e-04 0.0000e+00 1.0000e+00
       11  1    4    4    0    0 +1.0208871080e+00 -6.7243201156e+00 -3.1853366825e+01 3.2571393428e+01 5.1100000000e-04 0.0000e+00 -1.0000e+00
       12  1    4    4    0    0 -1.7094019813e+00 -1.7279243461e+00 -7.5770430252e+00 7.9573462087e+00 0.0000000000e+00 0.0000e+00 -1.0000e+00
      -12  1    3    3    0    0 +3.6515035665e+00 +1.4979808333e+01 +4.0569636732e+01 4.3400732258e+01 0.0000000000e+00 0.0000e+00 1.0000e+00
</event>
<event>
 8      3 +3.7482383e-04 9.11880000e+01 7.81616400e-03 1.18400000e-01
      -11 -1    0    0    0    0 +0.0000000000e+00 +0.0000000000e+00 +4.5593999997e+01 4.5594000000e+01 5.1100000000e-04 0.0000e+00 -1.0000e+00
       11 -1    0    0    0    0 -0.0000000000e+00 -0.0000000000e+00 -4.5593999997e+01 4.5594000000e+01 5.1100000000e-04 0.0000e+00 1.0000e+00
       23  2    1    2    0    0 -4.4408920985e-16 +3.5527136788e-15 -3.5527136788e-15 9.1188000000e+01 9.1188000000e+01 2.8882e-15 0.0000e+00
  9990012  2    3    3    0    0 +2.9718193765e+00 +3.1369858482e+01 -2.9844989330e+01 4.7787272821e+01 2.0000008100e+01 1.3939e-01 0.0000e+00
      -11  1    4    4    0    0 +2.6587539507e-01 +6.4871033105e+00 -6.3860296866e-01 6.5238802180e+00 5.1100000000e-04 0.0000e+00 1.0000e+00
       11  1    4    4    0    0 +5.2815273610e+00 +1.2941425562e+01 -6.3609716324e+00 1.5356984965e+01 5.1100000000e-04 0.0000e+00 -1.0000e+00
       12  1    4    4    0    0 -2.5755833796e+00 +1.1941329609e+01 -2.2845414729e+01 2.5906407638e+01 0.0000000000e+00 0.0000e+00 -1.0000e+00
      -12  1    3    3    0    0 -2.9718193765e+00 -3.1369858482e+01 +2.9844989330e+01 4.3400727179e+01 0.0000000000e+00 0.0000e+00 1.0000e+00
</event>
<event>
 8      3 +3.7482383e-04 9.11880000e+01 7.81616400e-03 1.18400000e-01
      -11 -1    0    0    0    0 +0.0000000000e+00 +0.0000000000e+00 +4.5593999997e+01 4.5594000000e+01 5.1100000000e-04 0.0000e+00 1.0000e+00
       11 -1    0    0    0    0 -0.0000000000e+00 -0.0000000000e+00 -4.5593999997e+01 4.5594000000e+01 5.1100000000e-04 0.0000e+00 -1.0000e+00
       23  2    1    2    0    0 +0.0000000000e+00 +0.0000000000e+00 +7.1054273576e-15 9.1188000000e+01 9.1188000000e+01 3.0068e-14 0.0000e+00
  9990012  2    3    3    0    0 -8.2005076217e+00 +1.2691111873e+01 -4.0685505052e+01 4.7787274578e+01 2.0000016111e+01 1.3572e-01 0.0000e+00
      -11  1    4    4    0    0 -7.4809247995e+00 -1.1897269196e+00 -2.0180856235e+01 2.1555663864e+01 5.1100000000e-04 0.0000e+00 1.0000e+00
       11  1    4    4    0    0 -3.2606284187e+00 +5.4998775380e+00 -3.9845577265e+00 7.5337275737e+00 5.1100000000e-04 0.0000e+00 -1.0000e+00
       12  1    4    4    0    0 +2.5410455965e+00 +8.3809612541e+00 -1.6520091091e+01 1.8697883140e+01 0.0000000000e+00 0.0000e+00 -1.0000e+00
      -12  1    3    3    0    0 +8.2005076217e+00 -1.2691111873e+01 +4.0685505052e+01 4.3400725422e+01 0.0000000000e+00 0.0000e+00 1.0000e+00
</event>
<event>
 8      3 +3.7482383e-04 9.11880000e+01 7.81616400e-03 1.18400000e-01
      -11 -1    0    0    0    0 +0.0000000000e+00 +0.0000000000e+00 +4.5593999997e+01 4.5594000000e+01 5.1100000000e-04 0.0000e+00 1.0000e+00
       11 -1    0    0    0    0 -0.0000000000e+00 -0.0000000000e+00 -4.5593999997e+01 4.5594000000e+01 5.1100000000e-04 0.0000e+00 -1.0000e+00
       23  2    1    2    0    0 +0.0000000000e+00 +0.0000000000e+00 +0.0000000000e+00 9.1188000000e+01 9.1188000000e+01 4.0570e-14 0.0000e+00
  9990012  2    3    3    0    0 -2.8383959131e+01 -3.1757268097e+01 -8.3336620222e+00 4.7787272637e+01 2.0000007262e+01 2.2934e-01 0.0000e+00
      -11  1    4    4    0    0 -1.3297380896e+01 -2.5010035734e+01 -8.1097127726e+00 2.9463361445e+01 5.1100000000e-04 0.0000e+00 -1.0000e+00
       11  1    4    4    0    0 -9.6469375446e+00 -1.9503414318e-01 +1.0783663413e+00 9.7089812304e+00 5.1100000000e-04 0.0000e+00 1.0000e+00
       12  1    4    4    0    0 -5.4396406907e+00 -6.5521982198e+00 -1.3023155909e+00 8.6149299622e+00 0.0000000000e+00 0.0000e+00 -1.0000e+00
      -12  1    3    3    0    0 +2.8383959131e+01 +3.1757268097e+01 +8.3336620222e+00 4.3400727363e+01 0.0000000000e+00 0.0000e+00 1.0000e+00
</event>
<event>
 8      3 +3.7482383e-04 9.11880000e+01 7.81616400e-03 1.18400000e-01
      -11 -1    0    0    0    0 +0.0000000000e+00 +0.0000000000e+00 +4.5593999997e+01 4.5594000000e+01 5.1100000000e-04 0.0000e+00 -1.0000e+00
       11 -1    0    0    0    0 -0.0000000000e+00 -0.0000000000e+00 -4.5593999997e+01 4.5594000000e+01 5.1100000000e-04 0.0000e+00 1.0000e+00
       23  2    1    2    0    0 +0.0000000000e+00 +0.0000000000e+00 +0.0000000000e+00 9.1188000000e+01 9.1188000000e+01 3.2249e-14 0.0000e+00
  9990012  2    3    3    0    0 +3.9176266510e+01 -4.4467143122e+00 +1.8140285844e+01 4.7787273089e+01 2.0000009324e+01 2.2522e-01 0.0000e+00
      -11  1    4    4    0    0 +7.3881399657e+00 +5.8327880590e+00 +5.3334381000e+00 1.0819038355e+01 5.1100000000e-04 0.0000e+00 1.0000e+00
       11  1    4    4    0    0 +2.9846170968e+01 -7.9830105967e+00 +9.1261007083e+00 3.2215029008e+01 5.1100000000e-04 0.0000e+00 -1.0000e+00
       12  1    4    4    0    0 +1.9419555769e+00 -2.2964917746e+00 +3.6807470360e+00 4.7532057263e+00 0.0000000000e+00 0.0000e+00 -1.0000e+00
      -12  1    3    3    0    0 -3.9176266510e+01 +4.4467143122e+00 -1.8140285844e+01 4.3400726911e+01 0.0000000000e+00 0.0000e+00 1.0000e+00
</event>
<event>
 8      4 +3.7482383e-04 9.11880000e+01 7.81616400e-03 1.18400000e-01
      -11 -1    0    0    0    0 +0.0000000000e+00 +0.0000000000e+00 +4.5593999997e+01 4.5594000000e+01 5.1100000000e-04 0.0000e+00 -1.0000e+00
       11 -1    0    0    0    0 -0.0000000000e+00 -0.0000000000e+00 -4.5593999997e+01 4.5594000000e+01 5.1100000000e-04 0.0000e+00 1.0000e+00
       23  2    1    2    0    0 -3.5527136788e-15 +0.0000000000e+00 -7.1054273576e-15 9.1188000000e+01 9.1188000000e+01 1.4894e-14 0.0000e+00
 -9990012  2    3    3    0    0 -2.6337483842e+01 +5.2406895415e+00 -3.4095360143e+01 4.7787291881e+01 2.0000095000e+01 5.8985e-01 0.0000e+00
      -11  1    4    4    0    0 -2.7923920803e+00 +3.5204737517e-01 +8.5763603663e-02 2.8158030011e+00 5.1100000000e-04 0.0000e+00 -1.0000e+00
       11  1    4    4    0    0 -1.0832348087e+00 +5.6353359951e+00 -1.2451313788e+01 1.3710055606e+01 5.1100000000e-04 0.0000e+00 1.0000e+00
      -12  1    4    4    0    0 -2.2461856953e+01 -7.4669382877e-01 -2.1729809959e+01 3.1261433273e+01 0.0000000000e+00 0.0000e+00 1.0000e+00
       12  1    3    3    0    0 +2.6337483842e+01 -5.2406895415e+00 +3.4095360143e+01 4.3400708119e+01 0.0000000000e+00 0.0000e+00 -1.0000e+00
</event>
<event>
 8      4 +3.7482383e-04 9.11880000e+01 7.81616400e-03 1.18400000e-01
      -11 -1    0    0    0    0 +0.0000000000e+00 +0.0000000000e+00 +4.5593999997e+01 4.5594000000e+01 5.1100000000e-04 0.0000e+00 1.0000e+00
       11 -1    0    0    0    0 -0.0000000000e+00 -0.0000000000e+00 -4.5593999997e+01 4.5594000000e+01 5.1100000000e-04 0.0000e+00 -1.0000e+00
       23  2    1    2    0    0 -3.5527136788e-15 +0.0000000000e+00 +0.0000000000e+00 9.1188000000e+01 9.1188000000e+01 1.2922e-14 0.0000e+00
 -9990012  2    3    3    0    0 -1.7207548152e+01 +7.5881835016e+00 +3.9114490193e+01 4.7787267457e+01 1.9999983642e+01 3.3588e-01 0.0000e+00
      -11  1    4    4    0    0 -4.1859366335e-01 +9.3549231957e+00 +2.0856725870e+01 2.2862476308e+01 5.1100000000e-04 0.0000e+00 1.0000e+00
       11  1    4    4    0    0 -9.7536492204e+00 -9.3256156346e-01 +9.3525685927e+00 1.3545253181e+01 5.1100000000e-04 0.0000e+00 -1.0000e+00
      -12  1    4    4    0    0 -7.0353052686e+00 -8.3417813069e-01 +8.9051957299e+00 1.1379537968e+01 0.0000000000e+00 0.0000e+00 1.0000e+00
       12  1    3    3    0    0 +1.7207548152e+01 -7.5881835016e+00 -3.9114490193e+01 4.3400732543e+01 0.0000000000e+00 0.0000e+00 -1.0000e+00
</event>
<event>
 8      3 +3.7482383e-04 9.11880000e+01 7.81616400e-03 1.18400000e-01
      -11 -1    0    0    0    0 +0.0000000000e+00 +0.0000000000e+00 +4.5593999997e+01 4.5594000000e+01 5.1100000000e-04 0.0000e+00 -1.0000e+00
       11 -1    0    0    0    0 -0.0000000000e+00 -0.0000000000e+00 -4.5593999997e+01 4.5594000000e+01 5.1100000000e-04 0.0000e+00 1.0000e+00
       23  2    1    2    0    0 +0.0000000000e+00 +0.0000000000e+00 +0.0000000000e+00 9.1188000000e+01 9.1188000000e+01 2.7826e-15 0.0000e+00
  9990012  2    3    3    0    0 -4.1608512945e+01 +1.0182237195e+01 +6.9768154273e+00 4.7787282756e+01 2.0000053398e+01 1.1540e-01 0.0000e+00
      -11  1    4    4    0    0 -1.0783809867e+01 +4.1583594977e+00 -5.4702091600e+00 1.2786934639e+01 5.1100000000e-04 0.0000e+00 1.0000e+00
       11  1    4    4    0    0 -1.8038125783e+01 +6.7692922804e+00 +1.0798784504e+01 2.2086444864e+01 5.1100000000e-04 0.0000e+00 -1.0000e+00
       12  1    4    4    0    0 -1.2786577295e+01 -7.4541458336e-01 +1.6482400837e+00 1.2913903252e+01 0.0000000000e+00 0.0000e+00 -1.0000e+00
      -12  1    3    3    0    0 +4.1608512945e+01 -1.0182237195e+01 -6.9768154273e+00 4.3400717244e+01 0.0000000000e+00 0.0000e+00 1.0000e+00
</event>
<event>
 8      4 +3.7482383e-04 9.11880000e+01 7.81616400e-03 1.18400000e-01
      -11 -1    0    0    0    0 +0.0000000000e+00 +0.0000000000e+00 +4.5593999997e+01 4.5594000000e+01 5.1100000000e-04 0.0000e+00 1.0000e+00
       11 -1    0    0    0    0 -0.0000000000e+00 -0.0000000000e+00 -4.5593999997e+01 4.5594000000e+01 5.1100000000e-04 0.0000e+00 -1.0000e+00
       23  2    1    2    0    0 -1.7763568394e-15 +7.1054273576e-15 +0.0000000000e+00 9.1188000000e+01 9.1188000000e+01 6.1991e-14 0.0000e+00
 -9990012  2    3    3    0    0 -1.2072547766e+01 -4.1430399382e+01 -4.6258481849e+00 4.7787275652e+01 2.0000021006e+01 2.9202e-01 0.0000e+00
      -11  1    4    4    0    0 +1.5227690344e-01 -1.8819369228e+01 +5.8660650341e+00 1.9713004988e+01 5.1100000000e-04 0.0000e+00 1.0000e+00
       11  1    4    4    0    0 -1.9658474296e+00 -7.2700332538e+00 -3.8681872816e+00 8.4664521928e+00 5.1100000000e-04 0.0000e+00 -1.0000e+00
      -12  1    4    4    0    0 -1.0258977240e+01 -1.5340996900e+01 -6.6237259375e+00 1.9607818471e+01 0.0000000000e+00 0.0000e+00 1.0000e+00
       12  1    3    3    0    0 +1.2072547766e+01 +4.1430399382e+01 +4.6258481849e+00 4.3400724348e+01 0.0000000000e+00 0.0000e+00 -1.0000e+00
</event>
<event>
 8      4 +3.7482383e-04 9.11880000e+01 7.81616400e-03 1.18400000e-01
      -11 -1    0    0    0    0 +0.0000000000e+00 +0.0000000000e+00 +4.5593999997e+01 4.5594000000e+01 5.1100000000e-04 0.0000e+00 1.0000e+00
       11 -1    0    0    0    0 -0.0000000000e+00 -0.0000000000e+00 -4.5593999997e+01 4.5594000000e+01 5.1100000000e-04 0.0000e+00 -1.0000e+00
       23  2    1    2    0    0 +3.5527136788e-15 +7.1054273576e-15 -3.5527136788e-15 9.1188000000e+01 9.1188000000e+01 1.7653e-13 0.0000e+00
 -9990012  2    3    3    0    0 -2.7242224297e+01 -2.1971620186e+01 +2.5665787579e+01 4.7787268090e+01 1.9999986531e+01 1.4706e-01 0.0000e+00
      -11  1    4    4    0    0 -1.2508897262e+01 -4.1763577877e+00 +1.0641343580e+01 1.6945579616e+01 5.1100000000e-04 0.0000e+00 1.0000e+00
       11  1    4    4    0    0 -1.8121040296e-01 -1.1986801132e-01 -2.1876215945e+00 2.1983844186e+00 5.1100000000e-04 0.0000e+00 -1.0000e+00
      -12  1    4    4    0    0 -1.4552116632e+01 -1.7675394387e+01 +1.7212065593e+01 2.8643304055e+01 0.0000000000e+00 0.0000e+00 1.0000e+00
       12  1    3    3    0    0 +2.7242224297e+01 +2.1971620186e+01 -2.5665787579e+01 4.3400731910e+01 0.0000000000e+00 0.0000e+00 -1.0000e+00
</event>
<event>
 8      4 +3.7482383e-04 9.11880000e+01 7.81616400e-03 1.18400000e-01
      -11 -1    0    0    0    0 +0.0000000000e+00 +0.0000000000e+00 +4.5593999997e+01 4.5594000000e+01 5.1100000000e-04 0.0000e+00 -1.0000e+00
       11 -1    0    0    0    0 -0.0000000000e+00 -0.0000000000e+00 -4.5593999997e+01 4.5594000000e+01 5.1100000000e-04 0.0000e+00 1.0000e+00
       23  2    1    2    0    0 +0.0000000000e+00 +0.0000000000e+00 +1.7763568394e-15 9.1188000000e+01 9.1188000000e+01 4.3362e-14 0.0000e+00
 -9990012  2    3    3    0    0 -3.2711684290e+01 +2.8334694164e+01 +3.2732095994e+00 4.7787273237e+01 2.0000009998e+01 1.0860e-02 0.0000e+00
      -11  1    4    4    0    0 -1.1889354084e+01 +3.8047737390e+00 -6.5389551406e+00 1.4092231134e+01 5.1100000000e-04 0.0000e+00 1.0000e+00
       11  1    4    4    0    0 -5.7093021267e+00 +6.2418735690e+00 +3.4206258614e+00 9.1245711116e+00 5.1100000000e-04 0.0000e+00 -1.0000e+00
      -12  1    4    4    0    0 -1.5113028080e+01 +1.8288046856e+01 +6.3915388787e+00 2.4570470992e+01 0.0000000000e+00 0.0000e+00 1.0000e+00
       12  1    3    3    0    0 +3.2711684290e+01 -2.8334694164e+01 -3.2732095994e+00 4.3400726763e+01 0.0000000000e+00 0.0000e+00 -1.0000e+00
</event>
<event>
 8      4 +3.7482383e-04 9.11880000e+01 7.81616400e-03 1.18400000e-01
      -11 -1    0    0    0    0 +0.0000000000e+00 +0.0000000000e+00 +4.5593999997e+01 4.5594000000e+01 5.1100000000e-04 0.0000e+00 1.0000e+00
       11 -1    0    0    0    0 -0.0000000000e+00 -0.0000000000e+00 -4.5593999997e+01 4.5594000000e+01 5.1100000000e-04 0.0000e+00 -1.0000e+00
       23  2    1    2    0    0 -3.5527136788e-15 +3.5527136788e-15 +0.0000000000e+00 9.1188000000e+01 9.1188000000e+01 1.3899e-14 0.0000e+00
 -9990012  2    3    3    0    0 +2.6967292703e+01 -2.7860448751e+01 +1.9498302565e+01 4.7787270937e+01 1.9999999508e+01 2.1161e-01 0.0000e+00
      -11  1    4    4    0    0 +7.0511408794e+00 -2.0844069373e+00 +1.0003460611e+01 1.2415013670e+01 5.1100000000e-04 0.0000e+00 1.0000e+00
       11  1    4    4    0    0 +1.2579296185e+00 -6.3615015415e+00 -8.2221117514e-01 6.5365985241e+00 5.1100000000e-04 0.0000e+00 -1.0000e+00
      -12  1    4    4    0    0 +1.8658222205e+01 -1.9414540272e+01 +1.0317053129e+01 2.8835658742e+01 0.0000000000e+00 0.0000e+00 1.0000e+00
       12  1    3    3    0    0 -2.6967292703e+01 +2.7860448751e+01 -1.9498302565e+01 4.3400729063e+01 0.0000000000e+00 0.0000e+00 -1.0000e+00
</event>
<event>
 8      3 +3.7482383e-04 9.11880000e+01 7.81616400e-03 1.18400000e-01
      -11 -1    0    0    0    0 +0.0000000000e+00 +0.0000000000e+00 +4.5593999997e+01 4.5594000000e+01 5.1100000000e-04 0.0000e+00 1.0000e+00
       11 -1    0    0    0    0 -0.0000000000e+00 -0.0000000000e+00 -4.5593999997e+01 4.5594000000e+01 5.1100000000e-04 0.0000e+00 -1.0000e+00
       23  2    1    2    0    0 +0.0000000000e+00 +0.0000000000e+00 +1.7763568394e-15 9.1188000000e+01 9.1188000000e+01 1.0329e-13 0.0000e+00
  9990012  2    3    3    0    0 -3.5752327045e+01 +2.3651202333e+01 -6.7834608444e+00 4.7787267265e+01 1.9999982767e+01 5.5630e-01 0.0000e+00
      -11  1    4    4    0    0 -1.6355470875e+01 +4.9142020161e+00 +5.1676876561e+00 1.7842527987e+01 5.1100000000e-04 0.0000e+00 1.0000e+00
       11  1    4    4    0    0 -1.8718673566e-01 +1.8951893419e+00 -6.8737842694e-01 2.0246656215e+00 5.1100000000e-04 0.0000e+00 -1.0000e+00
       12  1    4    4    0    0 -1.9209669434e+01 +1.6841810975e+01 -1.1263770074e+01 2.7920073656e+01 0.0000000000e+00 0.0000e+00 -1.0000e+00
      -12  1    3    3    0    0 +3.5752327045e+01 -2.3651202333e+01 +6.7834608444e+00 4.3400732735e+01 0.0000000000e+00 0.0000e+00 1.0000e+00
</event>
<event>
 8      3 +3.7482383e-04 9.11880000e+01 7.81616400e-03 1.18400000e-01
      -11 -1    0    0    0    0 +0.0000000000e+00 +0.0000000000e+00 +4.5593999997e+01 4.5594000000e+01 5.1100000000e-04 0.0000e+00 -1.0000e+00
       11 -1    0    0    0    0 -0.0000000000e+00 -0.0000000000e+00 -4.5593999997e+01 4.5594000000e+01 5.1100000000e-04 0.0000e+00 1.0000e+00
       23  2    1    2    0    0 +7.1054273576e-15 +0.0000000000e+00 +0.0000000000e+00 9.1188000000e+01 9.1188000000e+01 9.0647e-14 0.0000e+00
  9990012  2    3    3    0    0 +3.9772392064e+01 +1.4750141293e+01 +9.1767849376e+00 4.7787271660e+01 2.0000002806e+01 3.9884e-01 0.0000e+00
      -11  1    4    4    0    0 +2.0296712965e+01 +1.6935790826e+00 +4.1112530009e+00 2.0778045355e+01 5.1100000000e-04 0.0000e+00 1.0000e+00
       11  1    4    4    0    0 +1.8143189768e+01 +5.6540761652e+00 +3.3992830256e+00 1.9305414722e+01 5.1100000000e-04 0.0000e+00 -1.0000e+00
       12  1    4    4    0    0 +1.3324893313e+00 +7.4024860451e+00 +1.6662489111e+00 7.7038115825e+00 0.0000000000e+00 0.0000e+00 -1.0000e+00
      -12  1    3    3    0    0 -3.9772392064e+01 -1.4750141293e+01 -9.1767849376e+00 4.3400728340e+01 0.0000000000e+00 0.0000e+00 1.0000e+00
</event>
<event>
 8      3 +3.7482383e-04 9.11880000e+01 7.81616400e-03 1.18400000e-01
      -11 -1    0    0    0    0 +0.0000000000e+00 +0.0000000000e+00 +4.5593999997e+01 4.5594000000e+01 5.1100000000e-04 0.0000e+00 -1.0000e+00
       11 -1    0    0    0    0 -0.0000000000e+00 -0.0000000000e+00 -4.5593999997e+01 4.5594000000e+01 5.1100000000e-04 0.0000e+00 1.0000e+00
       23  2    1    2    0    0 +0.0000000000e+00 +0.0000000000e+00 +0.0000000000e+00 9.1188000000e+01 9.1188000000e+01 1.2028e-16 0.0000e+00
  9990012  2    3    3    0    0 +1.1380844292e+01 +3.2739089484e+01 -2.6119948400e+01 4.7787270727e+01 1.9999998554e+01 2.1093e-01 0.0000e+00
      -11  1    4    4    0    0 +4.3514901949e+00 +1.0801519973e+00 -3.1590445180e+00 5.4846839272e+00 5.1100000000e-04 0.0000e+00 1.0000e+00
       11  1    4    4    0    0 -4.4312949987e+00 +9.4110436206e+00 -5.3192458073e+00 1.1683256978e+01 5.1100000000e-04 0.0000e+00 -1.0000e+00
       12  1    4    4    0    0 +1.1460649095e+01 +2.2247893866e+01 -1.7641658074e+01 3.0619329822e+01 0.0000000000e+00 0.0000e+00 -1.0000e+00
      -12  1    3    3    0    0 -1.1380844292e+01 -3.2739089484e+01 +2.6119948400e+01 4.3400729273e+01 0.0000000000e+00 0.0000e+00 1.0000e+00
</event>
<event>
 8      4 +3.7482383e-04 9.11880000e+01 7.81616400e-03 1.18400000e-01
      -11 -1    0    0    0    0 +0.0000000000e+00 +0.0000000000e+00 +4.5593999997e+01 4.5594000000e+01 5.1100000000e-04 0.0000e+00 1.0000e+00
       11 -1    0    0    0    0 -0.0000000000e+00 -0.0000000000e+00 -4.5593999997e+01 4.5594000000e+01 5.1100000000e-04 0.0000e+00 -1.0000e+00
       23  2    1    2    0    0 +0.0000000000e+00 +0.0000000000e+00 +0.0000000000e+00 9.1188000000e+01 9.1188000000e+01 5.2905e-14 0.0000e+00
 -9990012  2    3    3    0    0 +2.1915565470e+01 -1.9023894547e+00 +3.7412726882e+01 4.7787271570e+01 2.0000002397e+01 2.7326e-01 0.0000e+00
      -11  1    4    4    0    0 +8.5722790369e+00 -2.2518241708e+00 +1.1846096572e+01 1.4794751915e+01 5.1100000000e-04 0.0000e+00 1.0000e+00
       11  1    4    4    0    0 +1.5946563243e+01 +2.0884902950e+00 +1.5073645273e+01 2.2042446621e+01 5.1100000000e-04 0.0000e+00 -1.0000e+00
      -12  1    4    4    0    0 -2.6032768102e+00 -1.7390555789e+00 +1.0492985037e+01 1.0950073034e+01 0.0000000000e+00 0.0000e+00 1.0000e+00
       12  1    3    3    0    0 -2.1915565470e+01 +1.9023894547e+00 -3.7412726882e+01 4.3400728430e+01 0.0000000000e+00 0.0000e+00 -1.0000e+00
</event>
<event>
 8      4 +3.7482383e-04 9.11880000e+01 7.81616400e-03 1.18400000e-01
      -11 -1    0    0    0    0 +0.0000000000e+00 +0.0000000000e+00 +4.5593999997e+01 4.5594000000e+01 5.1100000000e-04 0.0000e+00 -1.0000e+00
       11 -1    0    0    0    0 -0.0000000000e+00 -0.0000000000e+00 -4.5593999997e+01 4.5594000000e+01 5.1100000000e-04 0.0000e+00 1.0000e+00
       23  2    1    2    0    0 +3.5527136788e-15 +0.0000000000e+00 -7.1054273576e-15 9.1188000000e+01 9.1188000000e+01 4.5315e-14 0.0000e+00
 -9990012  2    3    3    0    0 +2.0882134573e+01 -7.1135373883e+00 -3.7375895383e+01 4.7787268276e+01 1.9999987378e+01 4.0019e-01 0.0000e+00
      -11  1    4    4    0    0 +8.6891476676e+00 -5.2367575076e+00 -8.6325272445e+00 1.3320864960e+01 5.1100000000e-04 0.0000e+00 1.0000e+00
       11  1    4    4    0    0 -1.0921455459e+00 +4.8963111768e-01 +1.1553506223e+00 1.6635371491e+00 5.1100000000e-04 0.0000e+00 -1.0000e+00
      -12  1    4    4    0    0 +1.3285132451e+01 -2.3664109984e+00 -2.9898718761e+01 3.2802866167e+01 0.0000000000e+00 0.0000e+00 1.0000e+00
       12  1    3    3    0    0 -2.0882134573e+01 +7.1135373883e+00 +3.7375895383e+01 4.3400731724e+01 0.0000000000e+00 0.0000e+00 -1.0000e+00
</event>
<event>
 8      3 +3.7482383e-04 9.11880000e+01 7.81616400e-03 1.18400000e-01
      -11 -1    0    0    0    0 +0.0000000000e+00 +0.0000000000e+00 +4.5593999997e+01 4.5594000000e+01 5.1100000000e-04 0.0000e+00 -1.0000e+00
       11 -1    0    0    0    0 -0.0000000000e+00 -0.0000000000e+00 -4.5593999997e+01 4.5594000000e+01 5.1100000000e-04 0.0000e+00 1.0000e+00
       23  2    1    2    0    0 -7.1054273576e-15 +7.1054273576e-15 +8.8817841970e-16 9.1188000000e+01 9.1188000000e+01 1.1520e-16 0.0000e+00
  9990012  2    3    3    0    0 +2.9377165551e+01 -3.1198247638e+01 -6.8756582009e+00 4.7787272043e+01 2.0000004554e+01 2.1015e-04 0.0000e+00
      -11  1    4    4    0    0 +1.4709754181e+00 -1.3711824168e+01 -1.2917971645e+00 1.3850871123e+01 5.1100000000e-04 0.0000e+00 1.0000e+00
       11  1    4    4    0    0 +6.2406916160e+00 -7.0431747211e+00 -1.9887911379e+00 9.6180992119e+00 5.1100000000e-04 0.0000e+00 -1.0000e+00
       12  1    4    4    0    0 +2.1665498517e+01 -1.0443248749e+01 -3.5950698985e+00 2.4318301709e+01 0.0000000000e+00 0.0000e+00 -1.0000e+00
      -12  1    3    3    0    0 -2.9377165551e+01 +3.1198247638e+01 +6.8756582009e+00 4.3400727957e+01 0.0000000000e+00 0.0000e+00 1.0000e+00
</event>
<event>
 8      3 +3.7482383e-04 9.11880000e+01 7.81616400e-03 1.18400000e-01
      -11 -1    0    0    0    0 +0.0000000000e+00 +0.0000000000e+00 +4.5593999997e+01 4.5594000000e+01 5.1100000000e-04 0.0000e+00 1.0000e+00
       11 -1    0    0    0    0 -0.0000000000e+00 -0.0000000000e+00 -4.5593999997e+01 4.5594000000e+01 5.1100000000e-04 0.0000e+00 -1.0000e+00
       23  2    1    2    0    0 +0.0000000000e+00 +0.0000000000e+00 +0.0000000000e+00 9.1188000000e+01 9.1188000000e+01 1.8969e-14 0.0000e+00
  9990012  2    3    3    0    0 +3.8718575851e+01 -8.9723815862e+00 -1.7435349239e+01 4.7787272468e+01 2.0000006490e+01 9.5059e-03 0.0000e+00
      -11  1    4    4    0    0 +6.8221210545e+00 -4.8559490751e+00 -1.3594661857e+00 8.4834972549e+00 5.1100000000e-04 0.0000e+00 -1.0000e+00
       11  1    4    4    0    0 +7.4834473898e+00 -7.8151993839e+00 -7.4992053558e+00 1.3165006930e+01 5.1100000000e-04 0.0000e+00 1.0000e+00
       12  1    4    4    0    0 +2.4413007406e+01 +3.6987668728e+00 -8.5766776979e+00 2.6138768283e+01 0.0000000000e+00 0.0000e+00 -1.0000e+00
      -12  1    3    3    0    0 -3.8718575851e+01 +8.9723815862e+00 +1.7435349239e+01 4.3400727532e+01 0.0000000000e+00 0.0000e+00 1.0000e+00
</event>
<event>
 8      3 +3.7482383e-04 9.11880000e+01 7.81616400e-03 1.18400000e-01
      -11 -1    0    0    0    0 +0.0000000000e+00 +0.0000000000e+00 +4.5593999997e+01 4.5594000000e+01 5.1100000000e-04 0.0000e+00 -1.0000e+00
       11 -1    0    0    0    0 -0.0000000000e+00 -0.0000000000e+00 -4.5593999997e+01 4.5594000000e+01 5.1100000000e-04 0.0000e+00 1.0000e+00
       23  2    1    2    0    0 +1.7763568394e-15 -3.5527136788e-15 +0.0000000000e+00 9.1188000000e+01 9.1188000000e+01 2.0637e-14 0.0000e+00
  9990012  2    3    3    0    0 +1.5772066414e+01 -1.8685634637e+01 +3.5856821053e+01 4.7787278384e+01 2.0000033465e+01 3.0188e-02 0.0000e+00
      -11  1    4    4    0    0 +1.2676102252e+01 -9.4056793548e+00 +3.1020569733e+01 3.4805547248e+01 5.1100000000e-04 0.0000e+00 1.0000e+00
       11  1    4    4    0    0 -1.6830676189e+00 -6.0469626163e+00 +2.5819480385e+00 6.7871149561e+00 5.1100000000e-04 0.0000e+00 -1.0000e+00
       12  1    4    4    0    0 +4.7790317802e+00 -3.2329926657e+00 +2.2543032818e+00 6.1946161801e+00 0.0000000000e+00 0.0000e+00 -1.0000e+00
      -12  1    3    3    0    0 -1.5772066414e+01 +1.8685634637e+01 -3.5856821053e+01 4.3400721616e+01 0.0000000000e+00 0.0000e+00 1.0000e+00
</event>
<event>
 8      4 +3.7482383e-04 9.11880000e+01 7.81616400e-03 1.18400000e-01
      -11 -1    0    0    0    0 +0.0000000000e+00 +0.0000000000e+00 +4.5593999997e+01 4.5594000000e+01 5.1100000000e-04 0.0000e+00 1.0000e+00
       11 -1    0    0    0    0 -0.0000000000e+00 -0.0000000000e+00 -4.5593999997e+01 4.5594000000e+01 5.1100000000e-04 0.0000e+00 -1.0000e+00
       23  2    1    2    0    0 +0.0000000000e+00 -3.0878077872e-16 +0.0000000000e+00 9.1188000000e+01 9.1188000000e+01 3.6445e-14 0.0000e+00
 -9990012  2    3    3    0    0 +1.6314580246e+01 +1.7021603609e-02 +4.0217626990e+01 4.7787270294e+01 1.9999996577e+01 4.6618e-01 0.0000e+00
      -11  1    4    4    0    0 -2.2208100058e+00 -1.3540679367e+00 +5.3507109600e+00 5.9494205682e+00 5.1100000000e-04 0.0000e+00 -1.0000e+00
       11  1    4    4    0    0 +5.9002802777e+00 -2.3454666800e+00 +2.3808321977e+01 2.4640428505e+01 5.1100000000e-04 0.0000e+00 1.0000e+00
      -12  1    4    4    0    0 +1.2635109975e+01 +3.7165562203e+00 +1.1058594053e+01 1.7197421221e+01 0.0000000000e+00 0.0000e+00 1.0000e+00
       12  1    3    3    0    0 -1.6314580246e+01 -1.7021603609e-02 -4.0217626990e+01 4.3400729706e+01 0.0000000000e+00 0.0000e+00 -1.0000e+00
</event>
<event>
 8      4 +3.7482383e-04 9.11880000e+01 7.81616400e-03 1.18400000e-01
      -11 -1    0    0    0    0 +0.0000000000e+00 +0.0000000000e+00 +4.5593999997e+01 4.5594000000e+01 5.1100000000e-04 0.0000e+00 1.0000e+00
       11 -1    0    0    0    0 -0.0000000000e+00 -0.0000000000e+00 -4.5593999997e+01 4.5594000000e+01 5.1100000000e-04 0.0000e+00 -1.0000e+00
       23  2    1    2    0    0 +4.4408920985e-16 +0.0000000000e+00 +3.5527136788e-15 9.1188000000e+01 9.1188000000e+01 7.4831e-16 0.0000e+00
 -9990012  2    3    3    0    0 +2.0254339073e+00 +3.5918832809e+01 +2.4276699708e+01 4.7787273260e+01 2.0000010100e+01 3.1507e-01 0.0000e+00
      -11  1    4    4    0    0 -4.6272629154e+00 +5.9363606138e+00 +1.0917262876e+00 7.6055115524e+00 5.1100000000e-04 0.0000e+00 1.0000e+00
       11  1    4    4    0    0 +3.0635779704e+00 +5.1494119933e-01 +1.7398162281e+00 3.5605666948e+00 5.1100000000e-04 0.0000e+00 -1.0000e+00
      -12  1    4    4    0    0 +3.5891188523e+00 +2.9467530996e+01 +2.1445157192e+01 3.6621195012e+01 0.0000000000e+00 0.0000e+00 1.0000e+00
       12  1    3    3    0    0 -2.0254339073e+00 -3.5918832809e+01 -2.4276699708e+01 4.3400726740e+01 0.0000000000e+00 0.0000e+00 -1.0000e+00
</event>
<event>
 8      4 +3.7482383e-04 9.11880000e+01 7.81616400e-03 1.18400000e-01
      -11 -1    0    0    0    0 +0.0000000000e+00 +0.0000000000e+00 +4.5593999997e+01 4.5594000000e+01 5.1100000000e-04 0.0000e+00 -1.0000e+00
       11 -1    0    0    0    0 -0.0000000000e+00 -0.0000000000e+00 -4.5593999997e+01 4.5594000000e+01 5.1100000000e-04 0.0000e+00 1.0000e+00
       23  2    1    2    0    0 +3.5527136788e-15 +3.5527136788e-15 -3.5527136788e-15 9.1188000000e+01 9.1188000000e+01 2.1685e-13 0.0000e+00
 -9990012  2    3    3    0    0 +2.7370817952e+01 +1.9219690521e+01 -2.7659811832e+01 4.7787269941e+01 1.9999994970e+01 2.0009e-01 0.0000e+00
      -11  1    4    4    0    0 +1.7180866632e+01 +1.4158724104e+01 -1.1606245765e+01 2.5106903184e+01 5.1100000000e-04 0.0000e+00 1.0000e+00
       11  1    4    4    0    0 +7.9000249299e+00 +3.2722844380e-01 -2.7435983875e+00 8.3692774312e+00 5.1100000000e-04 0.0000e+00 -1.0000e+00
      -12  1    4    4    0    0 +2.2899263897e+00 +4.7337379740e+00 -1.3309967679e+01 1.4311089326e+01 0.0000000000e+00 0.0000e+00 1.0000e+00
       12  1    3    3    0    0 -2.7370817952e+01 -1.9219690521e+01 +2.7659811832e+01 4.3400730059e+01 0.0000000000e+00 0.0000e+00 -1.0000e+00
</event>
<event>
 8      3 +3.7482383e-04 9.11880000e+01 7.81616400e-03 1.18400000e-01
      -11 -1    0    0    0    0 +0.0000000000e+00 +0.0000000000e+00 +4.5593999997e+01 4.5594000000e+01 5.1100000000e-04 0.0000e+00 -1.0000e+00
       11 -1    0    0    0    0 -0.0000000000e+00 -0.0000000000e+00 -4.5593999997e+01 4.5594000000e+01 5.1100000000e-04 0.0000e+00 1.0000e+00
       23  2    1    2    0    0 -3.5527136788e-15 +6.6613381478e-16 +0.0000000000e+00 9.1188000000e+01 9.1188000000e+01 1.2320e-13 0.0000e+00
  9990012  2    3    3    0    0 -2.6799486179e+01 -1.5326731896e+00 +3.4103694791e+01 4.7787267921e+01 1.9999985759e+01 4.3140e-01 0.0000e+00
      -11  1    4    4    0    0 -4.5636985198e-01 -3.5211962647e+00 +3.2892610984e+00 4.8400759716e+00 5.1100000000e-04 0.0000e+00 1.0000e+00
       11  1    4    4    0    0 -6.2253099706e-01 -3.1688505889e+00 +1.3583627479e+00 3.5034709237e+00 5.1100000000e-04 0.0000e+00 -1.0000e+00
       12  1    4    4    0    0 -2.5720585330e+01 +5.1573736640e+00 +2.9456070945e+01 3.9443721026e+01 0.0000000000e+00 0.0000e+00 -1.0000e+00
      -12  1    3    3    0    0 +2.6799486179e+01 +1.5326731896e+00 -3.4103694791e+01 4.3400732079e+01 0.0000000000e+00 0.0000e+00 1.0000e+00
</event>
<event>
 8      3 +3.7482383e-04 9.11880000e+01 7.81616400e-03 1.18400000e-01
      -11 -1    0    0    0    0 +0.0000000000e+00 +0.0000000000e+00 +4.5593999997e+01 4.5594000000e+01 5.1100000000e-04 0.0000e+00 1.0000e+00
       11 -1    0    0    0    0 -0.0000000000e+00 -0.0000000000e+00 -4.5593999997e+01 4.5594000000e+01 5.1100000000e-04 0.0000e+00 -1.0000e+00
       23  2    1    2    0    0 +0.0000000000e+00 +1.7763568394e-15 +0.0000000000e+00 9.1188000000e+01 9.1188000000e+01 1.9825e-14 0.0000e+00
  9990012  2    3    3    0    0 -2.3631085095e+01 -1.0516591926e+01 -3.4851054076e+01 4.7787275827e+01 2.0000021806e+01 1.7780e-01 0.0000e+00
      -11  1    4    4    0    0 -4.1158166050e-01 -9.3638991954e-01 +1.4339232763e+00 1.7613522555e+00 5.1100000000e-04 0.0000e+00 1.0000e+00
       11  1    4    4    0    0 -3.5322757462e+00 -1.4302894634e+00 +1.5454268202e-01 3.8139983741e+00 5.1100000000e-04 0.0000e+00 -1.0000e+00
       12  1    4    4    0    0 -1.9687227689e+01 -8.1499125427e+00 -3.6439520034e+01 4.2211925197e+01 0.0000000000e+00 0.0000e+00 -1.0000e+00
      -12  1    3    3    0    0 +2.3631085095e+01 +1.0516591926e+01 +3.4851054076e+01 4.3400724173e+01 0.0000000000e+00 0.0000e+00 1.0000e+00
</event>
<event>
 8      4 +3.7482383e-04 9.11880000e+01 7.81616400e-03 1.18400000e-01
      -11 -1    0    0    0    0 +0.0000000000e+00 +0.0000000000e+00 +4.5593999997e+01 4.5594000000e+01 5.1100000000e-04 0.0000e+00 -1.0000e+00
       11 -1    0    0    0    0 -0.0000000000e+00 -0.0000000000e+00 -4.5593999997e+01 4.5594000000e+01 5.1100000000e-04 0.0000e+00 1.0000e+00
       23  2    1    2    0    0 +0.0000000000e+00 +0.0000000000e+00 +3.5527136788e-15 9.1188000000e+01 9.1188000000e+01 1.4002e-13 0.0000e+00
 -9990012  2    3    3    0    0 -2.6721564316e+01 +2.1396732996e+01 -2.6678847502e+01 4.7787273204e+01 2.0000009845e+01 9.6710e-02 0.0000e+00
      -11  1    4    4    0    0 -1.2275919067e+01 +2.1208409817e+01 -1.9767750940e+01 3.1484262948e+01 5.1100000000e-04 0.0000e+00 1.0000e+00
       11  1    4    4    0    0 -3.0002285907e+00 -1.0740758769e+00 -8.8826208064e-01 3.3081747794e+00 5.1100000000e-04 0.0000e+00 -1.0000e+00
      -12  1    4    4    0    0 -1.1445416658e+01 +1.2623990561e+00 -6.0228344813e+00 1.2994835476e+01 0.0000000000e+00 0.0000e+00 1.0000e+00
       12  1    3    3    0    0 +2.6721564316e+01 -2.1396732996e+01 +2.6678847502e+01 4.3400726796e+01 0.0000000000e+00 0.0000e+00 -1.0000e+00
</event>
<event>
 8      3 +3.7482383e-04 9.11880000e+01 7.81616400e-03 1.18400000e-01
      -11 -1    0    0    0    0 +0.0000000000e+00 +0.0000000000e+00 +4.5593999997e+01 4.5594000000e+01 5.1100000000e-04 0.0000e+00 -1.0000e+00
       11 -1    0    0    0    0 -0.0000000000e+00 -0.0000000000e+00 -4.5593999997e+01 4.5594000000e+01 5.1100000000e-04 0.0000e+00 1.0000e+00
       23  2    1    2    0    0 +0.0000000000e+00 +0.0000000000e+00 -1.7763568394e-15 9.1188000000e+01 9.1188000000e+01 3.7450e-14 0.0000e+00
  9990012  2    3    3    0    0 -7.2975641218e+00 +3.9972337940e+01 -1.5250603956e+01 4.7787272315e+01 2.0000005795e+01 2.1635e-01 0.0000e+00
      -11  1    4    4    0    0 -8.8902091655e+00 +1.6549038369e+01 +1.2953098590e-01 1.8786252114e+01 5.1100000000e-04 0.0000e+00 1.0000e+00
       11  1    4    4    0    0 +3.2734405903e+00 +8.9390702711e+00 -8.9449497281e+00 1.3062714745e+01 5.1100000000e-04 0.0000e+00 -1.0000e+00
       12  1    4    4    0    0 -1.6807955466e+00 +1.4484229300e+01 -6.4351852139e+00 1.5938305456e+01 0.0000000000e+00 0.0000e+00 -1.0000e+00
      -12  1    3    3    0    0 +7.2975641218e+00 -3.9972337940e+01 +1.5250603956e+01 4.3400727685e+01 0.0000000000e+00 0.0000e+00 1.0000e+00
</event>
<event>
 8      3 +3.7482383e-04 9.11880000e+01 7.81616400e-03 1.18400000e-01
      -11 -1    0    0    0    0 +0.0000000000e+00 +0.0000000000e+00 +4.5593999997e+01 4.5594000000e+01 5.1100000000e-04 0.0000e+00 1.0000e+00
       11 -1    0    0    0    0 -0.0000000000e+00 -0.0000000000e+00 -4.5593999997e+01 4.5594000000e+01 5.1100000000e-04 0.0000e+00 -1.0000e+00
       23  2    1    2    0    0 -1.7763568394e-15 +1.7763568394e-15 +0.0000000000e+00 9.1188000000e+01 9.1188000000e+01 3.8086e-13 0.0000e+00
  9990012  2    3    3    0    0 +1.2382697785e+01 -9.4704661777e+00 -4.0504348661e+01 4.7787271958e+01 2.0000004167e+01 3.9648e-03 0.0000e+00
      -11  1    4    4    0    0 +2.1882996444e+00 -1.9152301635e+00 -8.4090909005e-01 3.0271918128e+00 5.1100000000e-04 0.0000e+00 1.0000e+00
       11  1    4    4    0    0 +1.7282823819e+00 +4.9373846504e+00 -1.4542618803e+01 1.5454853254e+01 5.1100000000e-04 0.0000e+00 -1.0000e+00
       12  1    4    4    0    0 +8.4661157587e+00 -1.2492620665e+01 -2.5120820768e+01 2.9305226892e+01 0.0000000000e+00 0.0000e+00 -1.0000e+00
      -12  1    3    3    0    0 -1.2382697785e+01 +9.4704661777e+00 +4.0504348661e+01 4.3400728042e+01 0.0000000000e+00 0.0000e+00 1.0000e+00
</event>
<event>
 8      4 +3.7482383e-04 9.11880000e+01 7.81616400e-03 1.18400000e-01
      -11 -1    0    0    0    0 +0.0000000000e+00 +0.0000000000e+00 +4.5593999997e+01 4.5594000000e+01 5.1100000000e-04 0.0000e+00 -1.0000e+00
       11 -1    0    0    0    0 -0.0000000000e+00 -0.0000000000e+00 -4.5593999997e+01 4.5594000000e+01 5.1100000000e-04 0.0000e+00 1.0000e+00
       23  2    1    2    0    0 +1.4210854715e-14 -8.8817841970e-16 +0.0000000000e+00 9.1188000000e+01 9.1188000000e+01 1.4266e-14 0.0000e+00
 -9990012  2    3    3    0    0 +4.1943667437e+01 -4.9587233303e+00 -9.9882227360e+00 4.7787253825e+01 1.9999921488e+01 5.0809e-01 0.0000e+00
      -11  1    4    4    0    0 +4.2322135930e+01 -6.7438642431e+00 -7.9775536890e+00 4.3592249973e+01 5.1100000000e-04 0.0000e+00 1.0000e+00
       11  1    4    4    0    0 -1.0097932094e+00 +2.6266539060e-04 +4.3724075986e-01 1.1003918111e+00 5.1100000000e-04 0.0000e+00 -1.0000e+00
      -12  1    4    4    0    0 +6.3132471663e-01 +1.7848782475e+00 -2.4479098069e+00 3.0946120401e+00 0.0000000000e+00 0.0000e+00 1.0000e+00
       12  1    3    3    0    0 -4.1943667437e+01 +4.9587233303e+00 +9.9882227360e+00 4.3400746175e+01 0.0000000000e+00 0.0000e+00 -1.0000e+00
</event>
<event>
 8      3 +3.7482383e-04 9.11880000e+01 7.81616400e-03 1.18400000e-01
      -11 -1    0    0    0    0 +0.0000000000e+00 +0.0000000000e+00 +4.5593999997e+01 4.5594000000e+01 5.1100000000e-04 0.0000e+00 -1.0000e+00
       11 -1    0    0    0    0 -0.0000000000e+00 -0.0000000000e+00 -4.5593999997e+01 4.5594000000e+01 5.1100000000e-04 0.0000e+00 1.0000e+00
       23  2    1    2    0    0 -1.7763568394e-15 +3.0531133177e-16 +0.0000000000e+00 9.1188000000e+01 9.1188000000e+01 6.4000e-14 0.0000e+00
  9990012  2    3    3    0    0 +1.4755478714e+01 +2.3816949191e-02 +4.0815417707e+01 4.7787273717e+01 2.0000012185e+01 2.5905e-01 0.0000e+00
      -11  1    4    4    0    0 +4.3987036286e+00 -6.1904700982e+00 +7.1486795394e+00 1.0429483835e+01 5.1100000000e-04 0.0000e+00 1.0000e+00
       11  1    4    4    0    0 +1.2016212424e+00 -1.0748083912e+00 -1.0537091674e-01 1.6156144278e+00 5.1100000000e-04 0.0000e+00 -1.0000e+00
       12  1    4    4    0    0 +9.1551538426e+00 +7.2890954385e+00 +3.3772109084e+01 3.5742175454e+01 0.0000000000e+00 0.0000e+00 -1.0000e+00
      -12  1    3    3    0    0 -1.4755478714e+01 -2.3816949191e-02 -4.0815417707e+01 4.3400726283e+01 0.0000000000e+00 0.0000e+00 1.0000e+00
</event>
<event>
 8      3 +3.7482383e-04 9.11880000e+01 7.81616400e-03 1.18400000e-01
      -11 -1    0    0    0    0 +0.0000000000e+00 +0.0000000000e+00 +4.5593999997e+01 4.5594000000e+01 5.1100000000e-04 0.0000e+00 -1.0000e+00
       11 -1    0    0    0    0 -0.0000000000e+00 -0.0000000000e+00 -4.5593999997e+01 4.5594000000e+01 5.1100000000e-04 0.0000e+00 1.0000e+00
       23  2    1    2    0    0 +4.4408920985e-16 -1.7763568394e-15 +0.0000000000e+00 9.1188000000e+01 9.1188000000e+01 1.5420e-13 0.0000e+00
  9990012  2    3    3    0    0 -2.7032758972e+00 +8.2868083245e+00 +4.2516397412e+01 4.7787274871e+01 2.0000017447e+01 1.9559e-01 0.0000e+00
      -11  1    4    4    0    0 +2.6800620331e+00 -5.0806099577e-01 +1.4102262984e+00 3.0707648804e+00 5.1100000000e-04 0.0000e+00 1.0000e+00
       11  1    4    4    0    0 -2.5420445429e+00 -3.8587806256e+00 +1.1568339631e+01 1.2457072708e+01 5.1100000000e-04 0.0000e+00 -1.0000e+00
       12  1    4    4    0    0 -2.8412933875e+00 +1.2653649946e+01 +2.9537831484e+01 3.2259437283e+01 0.0000000000e+00 0.0000e+00 -1.0000e+00
      -12  1    3    3    0    0 +2.7032758972e+00 -8.2868083245e+00 -4.2516397412e+01 4.3400725129e+01 0.0000000000e+00 0.0000e+00 1.0000e+00
</event>
<event>
 8      3 +3.7482383e-04 9.11880000e+01 7.81616400e-03 1.18400000e-01
      -11 -1    0    0    0    0 +0.0000000000e+00 +0.0000000000e+00 +4.5593999997e+01 4.5594000000e+01 5.1100000000e-04 0.0000e+00 1.0000e+00
       11 -1    0    0    0    0 -0.0000000000e+00 -0.0000000000e+00 -4.5593999997e+01 4.5594000000e+01 5.1100000000e-04 0.0000e+00 -1.0000e+00
       23  2    1    2    0    0 +0.0000000000e+00 +0.0000000000e+00 +0.0000000000e+00 9.1188000000e+01 9.1188000000e+01 1.7993e-14 0.0000e+00
  9990012  2    3    3    0    0 -4.5483204121e+00 -8.0409061208e+00 -4.2406114859e+01 4.7787286097e+01 2.0000068631e+01 4.8771e-01 0.0000e+00
      -11  1    4    4    0    0 -4.0362706436e-01 -8.3095110336e+00 -7.5288852793e+00 1.1220294213e+01 5.1100000000e-04 0.0000e+00 1.0000e+00
       11  1    4    4    0    0 -2.7202536458e+00 -4.6366541355e+00 -2.3315607704e+01 2.3927304578e+01 5.1100000000e-04 0.0000e+00 -1.0000e+00
       12  1    4    4    0    0 -1.4244397019e+00 +4.9052590482e+00 -1.1561621876e+01 1.2639687306e+01 0.0000000000e+00 0.0000e+00 -1.0000e+00
      -12  1    3    3    0    0 +4.5483204121e+00 +8.0409061208e+00 +4.2406114859e+01 4.3400713903e+01 0.0000000000e+00 0.0000e+00 1.0000e+00
</event>
<event>
 8      4 +3.7482383e-04 9.11880000e+01 7.81616400e-03 1.18400000e-01
      -11 -1    0    0    0    0 +0.0000000000e+00 +0.0000000000e+00 +4.5593999997e+01 4.5594000000e+01 5.1100000000e-04 0.0000e+00 -1.0000e+00
       11 -1    0    0    0    0 -0.0000000000e+00 -0.0000000000e+00 -4.5593999997e+01 4.5594000000e+01 5.1100000000e-04 0.0000e+00 1.0000e+00
       23  2    1    2    0    0 +7.1054273576e-15 +0.0000000000e+00 +0.0000000000e+00 9.1188000000e+01 9.1188000000e+01 6.5940e-14 0.0000e+00
 -9990012  2    3    3    0    0 +3.8797117999e+01 +1.8691365604e+01 -5.3889180045e+00 4.7787263250e+01 1.9999964463e+01 4.4804e-02 0.0000e+00
      -11  1    4    4    0    0 +1.4885865113e+01 +1.0195981822e+00 -1.8848641972e+00 1.5039324250e+01 5.1100000000e-04 0.0000e+00 1.0000e+00
       11  1    4    4    0    0 +1.5804935043e+00 +5.1294762065e-01 +3.3716947624e+00 3.7589095241e+00 5.1100000000e-04 0.0000e+00 -1.0000e+00
      -12  1    4    4    0    0 +2.2330759382e+01 +1.7158819801e+01 -6.8757485697e+00 2.8989029476e+01 0.0000000000e+00 0.0000e+00 1.0000e+00
       12  1    3    3    0    0 -3.8797117999e+01 -1.8691365604e+01 +5.3889180045e+00 4.3400736750e+01 0.0000000000e+00 0.0000e+00 -1.0000e+00
</event>
<event>
 8      4 +3.7482383e-04 9.11880000e+01 7.81616400e-03 1.18400000e-01
      -11 -1    0    0    0    0 +0.0000000000e+00 +0.0000000000e+00 +4.5593999997e+01 4.5594000000e+01 5.1100000000e-04 0.0000e+00 1.0000e+00
       11 -1    0    0    0    0 -0.0000000000e+00 -0.0000000000e+00 -4.5593999997e+01 4.5594000000e+01 5.1100000000e-04 0.0000e+00 -1.0000e+00
       23  2    1    2    0    0 +1.7763568394e-15 +0.0000000000e+00 -3.5527136788e-15 9.1188000000e+01 9.1188000000e+01 8.3366e-14 0.0000e+00
 -9990012  2    3    3    0    0 -1.4890966844e+01 -3.1381687951e+01 +2.6020605935e+01 4.7787272294e+01 2.0000005696e+01 6.5183e-02 0.0000e+00
      -11  1    4    4    0    0 -4.4958815052e+00 +2.1802329038e-01 +6.8550125951e+00 8.2007123229e+00 5.1100000000e-04 0.0000e+00 1.0000e+00
       11  1    4    4    0    0 -5.0584701130e+00 -5.8458450546e+00 +1.4228240632e+00 7.8604359206e+00 5.1100000000e-04 0.0000e+00 -1.0000e+00
      -12  1    4    4    0    0 -5.3366152263e+00 -2.5753866187e+01 +1.7742769277e+01 3.1726124050e+01 0.0000000000e+00 0.0000e+00 1.0000e+00
       12  1    3    3    0    0 +1.4890966844e+01 +3.1381687951e+01 -2.6020605935e+01 4.3400727706e+01 0.0000000000e+00 0.0000e+00 -1.0000e+00
</event>
<event>
 8      4 +3.7482383e-04 9.11880000e+01 7.81616400e-03 1.18400000e-01
      -11 -1    0    0    0    0 +0.0000000000e+00 +0.0000000000e+00 +4.5593999997e+01 4.5594000000e+01 5.1100000000e-04 0.0000e+00 1.0000e+00
       11 -1    0    0    0    0 -0.0000000000e+00 -0.0000000000e+00 -4.5593999997e+01 4.5594000000e+01 5.1100000000e-04 0.0000e+00 -1.0000e+00
       23  2    1    2    0    0 +0.0000000000e+00 +0.0000000000e+00 +0.0000000000e+00 9.1188000000e+01 9.1188000000e+01 3.8772e-13 0.0000e+00
 -9990012  2    3    3    0    0 -1.2229228768e+01 +4.0003389108e+01 -1.1567123061e+01 4.7787268298e+01 1.9999987478e+01 2.3952e-01 0.0000e+00
      -11  1    4    4    0    0 -5.0198062817e+00 +2.8947018824e+01 -1.1831472529e+01 3.1671944941e+01 5.1100000000e-04 0.0000e+00 1.0000e+00
       11  1    4    4    0    0 -2.0737261976e+00 -3.8088197728e-01 -2.5065417182e+00 3.2753874686e+00 5.1100000000e-04 0.0000e+00 -1.0000e+00
      -12  1    4    4    0    0 -5.1356962889e+00 +1.1437252261e+01 +2.7708911856e+00 1.2839935888e+01 0.0000000000e+00 0.0000e+00 1.0000e+00
       12  1    3    3    0    0 +1.2229228768e+01 -4.0003389108e+01 +1.1567123061e+01 4.3400731702e+01 0.0000000000e+00 0.0000e+00 -1.0000e+00
</event>
<event>
 8      3 +3.7482383e-04 9.11880000e+01 7.81616400e-03 1.18400000e-01
      -11 -1    0    0    0    0 +0.0000000000e+00 +0.0000000000e+00 +4.5593999997e+01 4.5594000000e+01 5.1100000000e-04 0.0000e+00 1.0000e+00
       11 -1    0    0    0    0 -0.0000000000e+00 -0.0000000000e+00 -4.5593999997e+01 4.5594000000e+01 5.1100000000e-04 0.0000e+00 -1.0000e+00
       23  2    1    2    0    0 -7.1054273576e-15 -1.7763568394e-15 +0.0000000000e+00 9.1188000000e+01 9.1188000000e+01 1.6063e-13 0.0000e+00
  9990012  2    3    3    0    0 -3.4837223958e+01 -1.5115318514e+01 -2.1012332682e+01 4.7787272453e+01 2.0000006423e+01 6.0648e-01 0.0000e+00
      -11  1    4    4    0    0 -1.0758746383e+01 +2.3695228991e-01 -2.3268740822e-01 1.0763870763e+01 5.1100000000e-04 0.0000e+00 1.0000e+00
       11  1    4    4    0    0 -1.6275904616e+01 -1.1203341764e+01 -7.6318000577e+00 2.1181697527e+01 5.1100000000e-04 0.0000e+00 -1.0000e+00
       12  1    4    4    0    0 -7.8025729588e+00 -4.1489290398e+00 -1.3147845216e+01 1.5841704163e+01 0.0000000000e+00 0.0000e+00 -1.0000e+00
      -12  1    3    3    0    0 +3.4837223958e+01 +1.5115318514e+01 +2.1012332682e+01 4.3400727547e+01 0.0000000000e+00 0.0000e+00 1.0000e+00
</event>
<event>
 8      4 +3.7482383e-04 9.11880000e+01 7.81616400e-03 1.18400000e-01
      -11 -1    0    0    0    0 +0.0000000000e+00 +0.0000000000e+00 +4.5593999997e+01 4.5594000000e+01 5.1100000000e-04 0.0000e+00 -1.0000e+00
       11 -1    0    0    0    0 -0.0000000000e+00 -0.0000000000e+00 -4.5593999997e+01 4.5594000000e+01 5.1100000000e-04 0.0000e+00 1.0000e+00
       23  2    1    2    0    0 -2.6645352591e-15 +0.0000000000e+00 +0.0000000000e+00 9.1188000000e+01 9.1188000000e+01 1.0271e-13 0.0000e+00
 -9990012  2    3    3    0    0 -5.2034910369e+00 -2.3094930437e+01 -3.6375414763e+01 4.7787275006e+01 2.0000018062e+01 1.0055e-01 0.0000e+00
      -11  1    4    4    0    0 +3.5911223043e+00 +6.7377559278e-01 -1.1162086462e+00 3.8204783676e+00 5.1100000000e-04 0.0000e+00 1.0000e+00
       11  1    4    4    0    0 -9.5123055122e-01 -8.4829036061e-01 -1.1168557699e-01 1.2794178468e+00 5.1100000000e-04 0.0000e+00 -1.0000e+00
      -12  1    4    4    0    0 -7.8433827900e+00 -2.2920415669e+01 -3.5147520540e+01 4.2687378792e+01 0.0000000000e+00 0.0000e+00 1.0000e+00
       12  1    3    3    0    0 +5.2034910369e+00 +2.3094930437e+01 +3.6375414763e+01 4.3400724994e+01 0.0000000000e+00 0.0000e+00 -1.0000e+00
</event>
<event>
 8      3 +3.7482383e-04 9.11880000e+01 7.81616400e-03 1.18400000e-01
      -11 -1    0    0    0    0 +0.0000000000e+00 +0.0000000000e+00 +4.5593999997e+01 4.5594000000e+01 5.1100000000e-04 0.0000e+00 1.0000e+00
       11 -1    0    0    0    0 -0.0000000000e+00 -0.0000000000e+00 -4.5593999997e+01 4.5594000000e+01 5.1100000000e-04 0.0000e+00 -1.0000e+00
       23  2    1    2    0    0 -1.7763568394e-15 +1.4210854715e-14 +0.0000000000e+00 9.1188000000e+01 9.1188000000e+01 1.7221e-13 0.0000e+00
  9990012  2    3    3    0    0 +8.5180400514e+00 -3.7854966258e+01 -1.9443964724e+01 4.7787271424e+01 2.0000001733e+01 3.7643e-02 0.0000e+00
      -11  1    4    4    0    0 -1.7264436226e-01 -6.5116786300e+00 +1.5652526748e+00 6.6993866027e+00 5.1100000000e-04 0.0000e+00 1.0000e+00
       11  1    4    4    0    0 +1.0170932132e+00 -2.3923500396e-01 -5.3092223371e+00 5.4110584988e+00 5.1100000000e-04 0.0000e+00 -1.0000e+00
       12  1    4    4    0    0 +7.6735912005e+00 -3.1104052624e+01 -1.5699995062e+01 3.5676826323e+01 0.0000000000e+00 0.0000e+00 -1.0000e+00
      -12  1    3    3    0    0 -8.5180400514e+00 +3.7854966258e+01 +1.9443964724e+01 4.3400728576e+01 0.0000000000e+00 0.0000e+00 1.0000e+00
</event>
<event>
 8      4 +3.7482383e-04 9.11880000e+01 7.81616400e-03 1.18400000e-01
      -11 -1    0    0    0    0 +0.0000000000e+00 +0.0000000000e+00 +4.5593999997e+01 4.5594000000e+01 5.1100000000e-04 0.0000e+00 1.0000e+00
       11 -1    0    0    0    0 -0.0000000000e+00 -0.0000000000e+00 -4.5593999997e+01 4.5594000000e+01 5.1100000000e-04 0.0000e+00 -1.0000e+00
       23  2    1    2    0    0 +4.4408920985e-16 +0.0000000000e+00 +0.0000000000e+00 9.1188000000e+01 9.1188000000e+01 2.7854e-14 0.0000e+00
 -9990012  2    3    3    0    0 +1.0165863201e+00 -2.8483539557e+01 +3.2730379725e+01 4.7787271545e+01 2.0000002283e+01 2.4653e-02 0.0000e+00
      -11  1    4    4    0    0 +3.2450460467e+00 -8.3481239066e+00 +1.8086586361e+00 9.1374363433e+00 5.1100000000e-04 0.0000e+00 1.0000e+00
       11  1    4    4    0    0 -6.3766570183e+00 -1.6003388976e+01 +2.1405079177e+01 2.7476310310e+01 5.1100000000e-04 0.0000e+00 -1.0000e+00
      -12  1    4    4    0    0 +4.1481972916e+00 -4.1320266745e+00 +9.5166419123e+00 1.1173524891e+01 0.0000000000e+00 0.0000e+00 1.0000e+00
       12  1    3    3    0    0 -1.0165863201e+00 +2.8483539557e+01 -3.2730379725e+01 4.3400728455e+01 0.0000000000e+00 0.0000e+00 -1.0000e+00
</event>
<event>
 8      4 +3.7482383e-04 9.11880000e+01 7.81616400e-03 1.18400000e-01
      -11 -1    0    0    0    0 +0.0000000000e+00 +0.0000000000e+00 +4.5593999997e+01 4.5594000000e+01 5.1100000000e-04 0.0000e+00 -1.0000e+00
       11 -1    0    0    0    0 -0.0000000000e+00 -0.0000000000e+00 -4.5593999997e+01 4.5594000000e+01 5.1100000000e-04 0.0000e+00 1.0000e+00
       23  2    1    2    0    0 +0.0000000000e+00 +0.0000000000e+00 +0.0000000000e+00 9.1188000000e+01 9.1188000000e+01 3.7868e-16 0.0000e+00
 -9990012  2    3    3    0    0 +4.7644501228e+00 +2.5736670345e+01 -3.4620039921e+01 4.7787270172e+01 1.9999996024e+01 1.9411e-01 0.0000e+00
      -11  1    4    4    0    0 +4.2887762134e+00 +1.6233107256e+01 -1.3360389980e+01 2.1457105893e+01 5.1100000000e-04 0.0000e+00 1.0000e+00
       11  1    4    4    0    0 -5.0168587026e+00 +8.2149841689e-01 -5.2522780999e+00 7.3095934491e+00 5.1100000000e-04 0.0000e+00 -1.0000e+00
      -12  1    4    4    0    0 +5.4925326120e+00 +8.6820646714e+00 -1.6007371841e+01 1.9020570830e+01 0.0000000000e+00 0.0000e+00 1.0000e+00
       12  1    3    3    0    0 -4.7644501228e+00 -2.5736670345e+01 +3.4620039921e+01 4.3400729828e+01 0.0000000000e+00 0.0000e+00 -1.0000e+00
</event>
<event>
 8      4 +3.7482383e-04 9.11880000e+01 7.81616400e-03 1.18400000e-01
      -11 -1    0    0    0    0 +0.0000000000e+00 +0.0000000000e+00 +4.5593999997e+01 4.5594000000e+01 5.1100000000e-04 0.0000e+00 -1.0000e+00
       11 -1    0    0    0    0 -0.0000000000e+00 -0.0000000000e+00 -4.5593999997e+01 4.5594000000e+01 5.1100000000e-04 0.0000e+00 1.0000e+00
       23  2    1    2    0    0 -7.1054273576e-15 +0.0000000000e+00 +2.2204460493e-16 9.1188000000e+01 9.1188000000e+01 2.1599e-14 0.0000e+00
 -9990012  2    3    3    0    0 -3.3966362263e+01 -2.6973464182e+01 -1.5305996997e+00 4.7787259559e+01 1.9999947634e+01 1.8133e-01 0.0000e+00
      -11  1    4    4    0    0 -1.5994827433e+01 -1.5551788427e+01 +7.3668827598e+00 2.3493905374e+01 5.1100000000e-04 0.0000e+00 1.0000e+00
       11  1    4    4    0    0 -1.9023263940e+00 +1.1320903069e+00 -8.8925786636e-01 2.3856349231e+00 5.1100000000e-04 0.0000e+00 -1.0000e+00
      -12  1    4    4    0    0 -1.6069208437e+01 -1.2553766062e+01 -8.0082245931e+00 2.1907719262e+01 0.0000000000e+00 0.0000e+00 1.0000e+00
       12  1    3    3    0    0 +3.3966362263e+01 +2.6973464182e+01 +1.5305996997e+00 4.3400740441e+01 0.0000000000e+00 0.0000e+00 -1.0000e+00
</event>
<event>
 8      4 +3.7482383e-04 9.11880000e+01 7.81616400e-03 1.18400000e-01
      -11 -1    0    0    0    0 +0.0000000000e+00 +0.0000000000e+00 +4.5593999997e+01 4.5594000000e+01 5.1100000000e-04 0.0000e+00 1.0000e+00
       11 -1    0    0    0    0 -0.0000000000e+00 -0.0000000000e+00 -4.5593999997e+01 4.5594000000e+01 5.1100000000e-04 0.0000e+00 -1.0000e+00
       23  2    1    2    0    0 +3.5527136788e-15 +0.0000000000e+00 +0.0000000000e+00 9.1188000000e+01 9.1188000000e+01 2.5721e-13 0.0000e+00
 -9990012  2    3    3    0    0 -2.5172342791e+01 -3.3805032395e+01 +1.0353557271e+01 4.7787271838e+01 2.0000003619e+01 8.5759e-02 0.0000e+00
      -11  1    4    4    0    0 -9.4573247638e+00 -2.0760781328e+01 +9.5160808210e+00 2.4718552293e+01 5.1100000000e-04 0.0000e+00 1.0000e+00
       11  1    4    4    0    0 -1.4205851867e+00 -7.4707893670e+00 -7.6333535101e-01 7.6428683855e+00 5.1100000000e-04 0.0000e+00 -1.0000e+00
      -12  1    4    4    0    0 -1.4294432841e+01 -5.5734617000e+00 +1.6008118010e+00 1.5425851159e+01 0.0000000000e+00 0.0000e+00 1.0000e+00
       12  1    3    3    0    0 +2.5172342791e+01 +3.3805032395e+01 -1.0353557271e+01 4.3400728162e+01 0.0000000000e+00 0.0000e+00 -1.0000e+00
</event>
<event>
 8      4 +3.7482383e-04 9.11880000e+01 7.81616400e-03 1.18400000e-01
      -11 -1    0    0    0    0 +0.0000000000e+00 +0.0000000000e+00 +4.5593999997e+01 4.5594000000e+01 5.1100000000e-04 0.0000e+00 -1.0000e+00
       11 -1    0    0    0    0 -0.0000000000e+00 -0.0000000000e+00 -4.5593999997e+01 4.5594000000e+01 5.1100000000e-04 0.0000e+00 1.0000e+00
       23  2    1    2    0    0 +0.0000000000e+00 +0.0000000000e+00 +0.0000000000e+00 9.1188000000e+01 9.1188000000e+01 8.1528e-14 0.0000e+00
 -9990012  2    3    3    0    0 +3.4883937411e+01 -2.1703071681e+01 -1.3989668120e+01 4.7787271621e+01 2.0000002630e+01 3.5171e-02 0.0000e+00
      -11  1    4    4    0    0 +2.0584235488e+00 -9.5493909622e+00 -2.6797100488e-01 9.7723990901e+00 5.1100000000e-04 0.0000e+00 1.0000e+00
       11  1    4    4    0    0 +1.2999947594e+01 -4.5931816879e+00 -8.3804236077e+00 1.6134666268e+01 5.1100000000e-04 0.0000e+00 -1.0000e+00
      -12  1    4    4    0    0 +1.9825566268e+01 -7.5604990313e+00 -5.3412735074e+00 2.1880206264e+01 0.0000000000e+00 0.0000e+00 1.0000e+00
       12  1    3    3    0    0 -3.4883937411e+01 +2.1703071681e+01 +1.3989668120e+01 4.3400728379e+01 0.0000000000e+00 0.0000e+00 -1.0000e+00
</event>
<event>
 8      4 +3.7482383e-04 9.11880000e+01 7.81616400e-03 1.18400000e-01
      -11 -1    0    0    0    0 +0.0000000000e+00 +0.0000000000e+00 +4.5593999997e+01 4.5594000000e+01 5.1100000000e-04 0.0000e+00 1.0000e+00
       11 -1    0    0    0    0 -0.0000000000e+00 -0.0000000000e+00 -4.5593999997e+01 4.5594000000e+01 5.1100000000e-04 0.0000e+00 -1.0000e+00
       23  2    1    2    0    0 -7.1054273576e-15 +1.7763568394e-15 +0.0000000000e+00 9.1188000000e+01 9.1188000000e+01 4.7692e-14 0.0000e+00
 -9990012  2    3    3    0    0 -4.2301733104e+01 +8.6416824086e+00 +4.4167722368e+00 4.7787272178e+01 2.0000005171e+01 3.1149e-01 0.0000e+00
      -11  1    4    4    0    0 -4.8198361124e+00 +3.5143095894e+00 -3.1877321322e+00 6.7633444720e+00 5.1100000000e-04 0.0000e+00 1.0000e+00
       11  1    4    4    0    0 -1.4412623330e+01 +8.8614457077e+00 +3.9005212702e+00 1.7362689818e+01 5.1100000000e-04 0.0000e+00 -1.0000e+00
      -12  1    4    4    0    0 -2.3069273662e+01 -3.7340728884e+00 +3.7039830987e+00 2.3661237888e+01 0.0000000000e+00 0.0000e+00 1.0000e+00
       12  1    3    3    0    0 +4.2301733104e+01 -8.6416824086e+00 -4.4167722368e+00 4.3400727822e+01 0.0000000000e+00 0.0000e+00 -1.0000e+00
</event>
<event>
 8      3 +3.7482383e-04 9.11880000e+01 7.81616400e-03 1.18400000e-01
      -11 -1    0    0    0    0 +0.0000000000e+00 +0.0000000000e+00 +4.5593999997e+01 4.5594000000e+01 5.1100000000e-04 0.0000e+00 -1.0000e+00
       11 -1    0    0    0    0 -0.0000000000e+00 -0.0000000000e+00 -4.5593999997e+01 4.5594000000e+01 5.1100000000e-04 0.0000e+00 1.0000e+00
       23  2    1    2    0    0 +7.1054273576e-15 +0.0000000000e+00 +0.0000000000e+00 9.1188000000e+01 9.1188000000e+01 4.0546e-14 0.0000e+00
  9990012  2    3    3    0    0 +3.6273216249e+01 +1.0677444748e+01 +2.1304224848e+01 4.7787262221e+01 1.9999959771e+01 1.6557e-01 0.0000e+00
      -11  1    4    4    0    0 -1.2370770429e+00 +2.3200831295e+00 +1.3791920797e+00 2.9690598498e+00 5.1100000000e-04 0.0000e+00 1.0000e+00
       11  1    4    4    0    0 +2.3468266710e+01 +6.7758653802e+00 +1.8447895579e+01 3.0610402572e+01 5.1100000000e-04 0.0000e+00 -1.0000e+00
       12  1    4    4    0    0 +1.4042026582e+01 +1.5814962386e+00 +1.4771371886e+00 1.4207799800e+01 0.0000000000e+00 0.0000e+00 -1.0000e+00
      -12  1    3    3    0    0 -3.6273216249e+01 -1.0677444748e+01 -2.1304224848e+01 4.3400737779e+01 0.0000000000e+00 0.0000e+00 1.0000e+00
</event>
<event>
 8      3 +3.7482383e-04 9.11880000e+01 7.81616400e-03 1.18400000e-01
      -11 -1    0    0    0    0 +0.0000000000e+00 +0.0000000000e+00 +4.5593999997e+01 4.5594000000e+01 5.1100000000e-04 0.0000e+00 -1.0000e+00
       11 -1    0    0    0    0 -0.0000000000e+00 -0.0000000000e+00 -4.5593999997e+01 4.5594000000e+01 5.1100000000e-04 0.0000e+00 1.0000e+00
       23  2    1    2    0    0 -1.7763568394e-15 +0.0000000000e+00 +0.0000000000e+00 9.1188000000e+01 9.1188000000e+01 1.1123e-14 0.0000e+00
  9990012  2    3    3    0    0 -1.5246013271e+01 -1.1837016545e+01 +3.8872451296e+01 4.7787270154e+01 1.9999995942e+01 1.7286e-01 0.0000e+00
      -11  1    4    4    0    0 +3.5947332756e+00 -3.5249131255e+00 +7.3107870392e+00 8.8766394125e+00 5.1100000000e-04 0.0000e+00 1.0000e+00
       11  1    4    4    0    0 -1.1079595020e+01 -9.8519246010e+00 +1.9819921449e+01 2.4751709651e+01 5.1100000000e-04 0.0000e+00 -1.0000e+00
       12  1    4    4    0    0 -7.7611515265e+00 +1.5398211812e+00 +1.1741742808e+01 1.4158921091e+01 0.0000000000e+00 0.0000e+00 -1.0000e+00
      -12  1    3    3    0    0 +1.5246013271e+01 +1.1837016545e+01 -3.8872451296e+01 4.3400729846e+01 0.0000000000e+00 0.0000e+00 1.0000e+00
</event>
<event>
 8      3 +3.7482383e-04 9.11880000e+01 7.81616400e-03 1.18400000e-01
      -11 -1    0    0    0    0 +0.0000000000e+00 +0.0000000000e+00 +4.5593999997e+01 4.5594000000e+01 5.1100000000e-04 0.0000e+00 1.0000e+00
       11 -1    0    0    0    0 -0.0000000000e+00 -0.0000000000e+00 -4.5593999997e+01 4.5594000000e+01 5.1100000000e-04 0.0000e+00 -1.0000e+00
       23  2    1    2    0    0 +0.0000000000e+00 +0.0000000000e+00 +0.0000000000e+00 9.1188000000e+01 9.1188000000e+01 8.1307e-15 0.0000e+00
  9990012  2    3    3    0    0 -4.0715136103e+01 -9.4852750355e+00 -1.1658946111e+01 4.7787265274e+01 1.9999973688e+01 1.3261e-01 0.0000e+00
      -11  1    4    4    0    0 -1.3161544017e+01 +3.6923898708e+00 +1.7912563117e-01 1.3670847454e+01 5.1100000000e-04 0.0000e+00 -1.0000e+00
       11  1    4    4    0    0 -1.9642429589e+01 -7.7593580054e+00 -3.4961962091e+00 2.1406916289e+01 5.1100000000e-04 0.0000e+00 1.0000e+00
       12  1    4    4    0    0 -7.9111624967e+00 -5.4183069009e+00 -8.3418755335e+00 1.2709501530e+01 0.0000000000e+00 0.0000e+00 -1.0000e+00
      -12  1    3    3    0    0 +4.0715136103e+01 +9.4852750355e+00 +1.1658946111e+01 4.3400734726e+01 0.0000000000e+00 0.0000e+00 1.0000e+00
</event>
<event>
 8      4 +3.7482383e-04 9.11880000e+01 7.81616400e-03 1.18400000e-01
      -11 -1    0    0    0    0 +0.0000000000e+00 +0.0000000000e+00 +4.5593999997e+01 4.5594000000e+01 5.1100000000e-04 0.0000e+00 1.0000e+00
       11 -1    0    0    0    0 -0.0000000000e+00 -0.0000000000e+00 -4.5593999997e+01 4.5594000000e+01 5.1100000000e-04 0.0000e+00 -1.0000e+00
       23  2    1    2    0    0 +0.0000000000e+00 +0.0000000000e+00 -3.5527136788e-15 9.1188000000e+01 9.1188000000e+01 2.1746e-16 0.0000e+00
 -9990012  2    3    3    0    0 -4.9110882139e+00 -3.9336772081e+01 +1.7666897801e+01 4.7787312181e+01 2.0000187558e+01 2.4700e-01 0.0000e+00
      -11  1    4    4    0    0 +2.7708285047e+00 -1.6430071695e+01 +4.3615691456e+00 1.7223473291e+01 5.1100000000e-04 0.0000e+00 1.0000e+00
       11  1    4    4    0    0 +2.1724240407e+00 -1.0023353504e+01 +1.2030268954e+00 1.0326389284e+01 5.1100000000e-04 0.0000e+00 -1.0000e+00
      -12  1    4    4    0    0 -9.8543407593e+00 -1.2883346882e+01 +1.2102301760e+01 2.0237449606e+01 0.0000000000e+00 0.0000e+00 1.0000e+00
       12  1    3    3    0    0 +4.9110882139e+00 +3.9336772081e+01 -1.7666897801e+01 4.3400687819e+01 0.0000000000e+00 0.0000e+00 -1.0000e+00
</event>
<event>
 8      4 +3.7482383e-04 9.11880000e+01 7.81616400e-03 1.18400000e-01
      -11 -1    0    0    0    0 +0.0000000000e+00 +0.0000000000e+00 +4.5593999997e+01 4.5594000000e+01 5.1100000000e-04 0.0000e+00 1.0000e+00
       11 -1    0    0    0    0 -0.0000000000e+00 -0.0000000000e+00 -4.5593999997e+01 4.5594000000e+01 5.1100000000e-04 0.0000e+00 -1.0000e+00
       23  2    1    2    0    0 +0.0000000000e+00 +0.0000000000e+00 +1.7763568394e-15 9.1188000000e+01 9.1188000000e+01 2.3524e-13 0.0000e+00
 -9990012  2    3    3    0    0 +4.0270437728e+01 -2.7456855377e+00 +1.5949138599e+01 4.7787286113e+01 2.0000068702e+01 2.8892e-01 0.0000e+00
      -11  1    4    4    0    0 +1.5260810119e+01 -5.1821624457e+00 +7.2964535110e+00 1.7691392461e+01 5.1100000000e-04 0.0000e+00 -1.0000e+00
       11  1    4    4    0    0 +6.2259200133e+00 -3.2336510739e+00 -2.5945688958e+00 7.4799978139e+00 5.1100000000e-04 0.0000e+00 1.0000e+00
      -12  1    4    4    0    0 +1.8783707596e+01 +5.6701279819e+00 +1.1247253984e+01 2.2615895838e+01 0.0000000000e+00 0.0000e+00 1.0000e+00
       12  1    3    3    0    0 -4.0270437728e+01 +2.7456855377e+00 -1.5949138599e+01 4.3400713887e+01 0.0000000000e+00 0.0000e+00 -1.0000e+00
</event>
<event>
 8      4 +3.7482383e-04 9.11880000e+01 7.81616400e-03 1.18400000e-01
      -11 -1    0    0    0    0 +0.0000000000e+00 +0.0000000000e+00 +4.5593999997e+01 4.5594000000e+01 5.1100000000e-04 0.0000e+00 -1.0000e+00
       11 -1    0    0    0    0 -0.0000000000e+00 -0.0000000000e+00 -4.5593999997e+01 4.5594000000e+01 5.1100000000e-04 0.0000e+00 1.0000e+00
       23  2    1    2    0    0 +8.8817841970e-16 +0.0000000000e+00 +0.0000000000e+00 9.1188000000e+01 9.1188000000e+01 2.4986e-14 0.0000e+00
 -9990012  2    3    3    0    0 +4.8736088165e+00 -3.4140560063e+01 -2.6349451253e+01 4.7787268605e+01 1.9999988877e+01 2.1543e-02 0.0000e+00
      -11  1    4    4    0    0 -1.8378377224e-01 -2.2892837345e+01 -2.3640007339e+01 3.2908444591e+01 5.1100000000e-04 0.0000e+00 1.0000e+00
       11  1    4    4    0    0 -1.2902331358e-01 -9.2807980340e-01 -3.1844379381e+00 3.3194313337e+00 5.1100000000e-04 0.0000e+00 -1.0000e+00
      -12  1    4    4    0    0 +5.1864159023e+00 -1.0319642915e+01 +4.7499402462e-01 1.1559392680e+01 0.0000000000e+00 0.0000e+00 1.0000e+00
       12  1    3    3    0    0 -4.8736088165e+00 +3.4140560063e+01 +2.6349451253e+01 4.3400731395e+01 0.0000000000e+00 0.0000e+00 -1.0000e+00
</event>
<event>
 8      4 +3.7482383e-04 9.11880000e+01 7.81616400e-03 1.18400000e-01
      -11 -1    0    0    0    0 +0.0000000000e+00 +0.0000000000e+00 +4.5593999997e+01 4.5594000000e+01 5.1100000000e-04 0.0000e+00 -1.0000e+00
       11 -1    0    0    0    0 -0.0000000000e+00 -0.0000000000e+00 -4.5593999997e+01 4.5594000000e+01 5.1100000000e-04 0.0000e+00 1.0000e+00
       23  2    1    2    0    0 +0.0000000000e+00 +0.0000000000e+00 +0.0000000000e+00 9.1188000000e+01 9.1188000000e+01 5.1510e-15 0.0000e+00
 -9990012  2    3    3    0    0 -2.1213409022e+01 -3.1078762452e+01 -2.1626946672e+01 4.7787273966e+01 2.0000013321e+01 1.5443e-02 0.0000e+00
      -11  1    4    4    0    0 +2.0919436051e+00 -1.9131744037e+00 -5.6461303159e+00 6.3178518621e+00 5.1100000000e-04 0.0000e+00 1.0000e+00
       11  1    4    4    0    0 -7.8296230572e+00 -8.6856362355e+00 -9.3100407092e+00 1.4947244974e+01 5.1100000000e-04 0.0000e+00 -1.0000e+00
      -12  1    4    4    0    0 -1.5475729570e+01 -2.0479951813e+01 -6.6707756471e+00 2.6522177130e+01 0.0000000000e+00 0.0000e+00 1.0000e+00
       12  1    3    3    0    0 +2.1213409022e+01 +3.1078762452e+01 +2.1626946672e+01 4.3400726034e+01 0.0000000000e+00 0.0000e+00 -1.0000e+00
</event>
<event>
 8      4 +3.7482383e-04 9.11880000e+01 7.81616400e-03 1.18400000e-01
      -11 -1    0    0    0    0 +0.0000000000e+00 +0.0000000000e+00 +4.5593999997e+01 4.5594000000e+01 5.1100000000e-04 0.0000e+00 1.0000e+00
       11 -1    0    0    0    0 -0.0000000000e+00 -0.0000000000e+00 -4.5593999997e+01 4.5594000000e+01 5.1100000000e-04 0.0000e+00 -1.0000e+00
       23  2    1    2    0    0 -8.8817841970e-16 +0.0000000000e+00 -1.4210854715e-14 9.1188000000e+01 9.1188000000e+01 8.3987e-14 0.0000e+00
 -9990012  2    3    3    0    0 +5.3186285624e+00 -5.3357306740e+00 +4.2741846212e+01 4.7787271329e+01 2.0000001295e+01 2.4350e-02 0.0000e+00
      -11  1    4    4    0    0 +9.7111825682e-01 -6.4705999471e+00 +5.8632517139e+00 8.7857529709e+00 5.1100000000e-04 0.0000e+00 1.0000e+00
       11  1    4    4    0    0 -6.7342621274e-01 +5.3579569126e+00 +1.0354498777e+01 1.1678049936e+01 5.1100000000e-04 0.0000e+00 -1.0000e+00
      -12  1    4    4    0    0 +5.0209365183e+00 -4.2230876395e+00 +2.6524095721e+01 2.7323468421e+01 0.0000000000e+00 0.0000e+00 1.0000e+00
       12  1    3    3    0    0 -5.3186285624e+00 +5.3357306740e+00 -4.2741846212e+01 4.3400728671e+01 0.0000000000e+00 0.0000e+00 -1.0000e+00
</event>
<event>
 8      3 +3.7482383e-04 9.11880000e+01 7.81616400e-03 1.18400000e-01
      -11 -1    0    0    0    0 +0.0000000000e+00 +0.0000000000e+00 +4.5593999997e+01 4.5594000000e+01 5.1100000000e-04 0.0000e+00 1.0000e+00
       11 -1    0    0    0    0 -0.0000000000e+00 -0.0000000000e+00 -4.5593999997e+01 4.5594000000e+01 5.1100000000e-04 0.0000e+00 -1.0000e+00
       23  2    1    2    0    0 +0.0000000000e+00 +0.0000000000e+00 +0.0000000000e+00 9.1188000000e+01 9.1188000000e+01 5.8183e-15 0.0000e+00
  9990012  2    3    3    0    0 +2.0914202288e+01 -3.2582086802e+01 -1.9611908560e+01 4.7787271952e+01 2.0000004138e+01 6.3852e-02 0.0000e+00
      -11  1    4    4    0    0 +1.0117727301e+01 -7.1017408294e+00 -1.5623002970e+00 1.2459691450e+01 5.1100000000e-04 0.0000e+00 1.0000e+00
       11  1    4    4    0    0 +7.0921370119e+00 -2.5292915703e+01 -1.7534169195e+01 3.1582860570e+01 5.1100000000e-04 0.0000e+00 -1.0000e+00
       12  1    4    4    0    0 +3.7043379746e+00 -1.8743026987e-01 -5.1543906810e-01 3.7447199319e+00 0.0000000000e+00 0.0000e+00 -1.0000e+00
      -12  1    3    3    0    0 -2.0914202288e+01 +3.2582086802e+01 +1.9611908560e+01 4.3400728048e+01 0.0000000000e+00 0.0000e+00 1.0000e+00
</event>
<event>
 8      3 +3.7482383e-04 9.11880000e+01 7.81616400e-03 1.18400000e-01
      -11 -1    0    0    0    0 +0.0000000000e+00 +0.0000000000e+00 +4.5593999997e+01 4.5594000000e+01 5.1100000000e-04 0.0000e+00 1.0000e+00
       11 -1    0    0    0    0 -0.0000000000e+00 -0.0000000000e+00 -4.5593999997e+01 4.5594000000e+01 5.1100000000e-04 0.0000e+00 -1.0000e+00
       23  2    1    2    0    0 +5.5511151231e-16 +0.0000000000e+00 +2.2204460493e-16 9.1188000000e+01 9.1188000000e+01 1.6491e-14 0.0000e+00
  9990012  2    3    3    0    0 -5.6397636725e-01 +4.3354070279e+01 -1.9313522190e+00 4.7787267281e+01 1.9999982842e+01 6.9846e-02 0.0000e+00
      -11  1    4    4    0    0 -2.5602661203e+00 +5.5854276795e+00 +1.9799379066e+00 6.4553945925e+00 5.1100000000e-04 0.0000e+00 1.0000e+00
       11  1    4    4    0    0 +7.7983622101e+00 +1.1042970155e+01 +9.6086601000e-01 1.3553040498e+01 5.1100000000e-04 0.0000e+00 -1.0000e+00
       12  1    4    4    0    0 -5.8020724571e+00 +2.6725672445e+01 -4.8721561357e+00 2.7778832190e+01 0.0000000000e+00 0.0000e+00 -1.0000e+00
      -12  1    3    3    0    0 +5.6397636725e-01 -4.3354070279e+01 +1.9313522190e+00 4.3400732719e+01 0.0000000000e+00 0.0000e+00 1.0000e+00
</event>
<event>
 8      3 +3.7482383e-04 9.11880000e+01 7.81616400e-03 1.18400000e-01
      -11 -1    0    0    0    0 +0.0000000000e+00 +0.0000000000e+00 +4.5593999997e+01 4.5594000000e+01 5.1100000000e-04 0.0000e+00 1.0000e+00
       11 -1    0    0    0    0 -0.0000000000e+00 -0.0000000000e+00 -4.5593999997e+01 4.5594000000e+01 5.1100000000e-04 0.0000e+00 -1.0000e+00
       23  2    1    2    0    0 +0.0000000000e+00 +0.0000000000e+00 +0.0000000000e+00 9.1188000000e+01 9.1188000000e+01 8.2005e-14 0.0000e+00
  9990012  2    3    3    0    0 -3.6349517616e+00 -1.4321956116e+01 -4.0807988450e+01 4.7787271635e+01 2.0000002691e+01 1.1501e+00 0.0000e+00
      -11  1    4    4    0    0 +4.9649109677e+00 -1.1680818500e+01 -1.8829075892e+01 2.2707398816e+01 5.1100000000e-04 0.0000e+00 1.0000e+00
       11  1    4    4    0    0 -3.6733847685e+00 +2.3694514479e+00 -4.6579500159e+00 6.3878442712e+00 5.1100000000e-04 0.0000e+00 -1.0000e+00
       12  1    4    4    0    0 -4.9264779608e+00 -5.0105890643e+00 -1.7320962542e+01 1.8692028548e+01 0.0000000000e+00 0.0000e+00 -1.0000e+00
      -12  1    3    3    0    0 +3.6349517616e+00 +1.4321956116e+01 +4.0807988450e+01 4.3400728365e+01 0.0000000000e+00 0.0000e+00 1.0000e+00
</event>
<event>
 8      4 +3.7482383e-04 9.11880000e+01 7.81616400e-03 1.18400000e-01
      -11 -1    0    0    0    0 +0.0000000000e+00 +0.0000000000e+00 +4.5593999997e+01 4.5594000000e+01 5.1100000000e-04 0.0000e+00 -1.0000e+00
       11 -1    0    0    0    0 -0.0000000000e+00 -0.0000000000e+00 -4.5593999997e+01 4.5594000000e+01 5.1100000000e-04 0.0000e+00 1.0000e+00
       23  2    1    2    0    0 +0.0000000000e+00 +8.8817841970e-16 +0.0000000000e+00 9.1188000000e+01 9.1188000000e+01 1.3413e-13 0.0000e+00
 -9990012  2    3    3    0    0 +2.0806147176e+01 -7.7790541061e+00 -3.7285578054e+01 4.7787265284e+01 1.9999973736e+01 5.9895e-01 0.0000e+00
      -11  1    4    4    0    0 +5.0124491351e+00 +8.0233800270e-01 -3.3365879883e+00 6.0746368012e+00 5.1100000000e-04 0.0000e+00 1.0000e+00
       11  1    4    4    0    0 +4.0011031713e+00 -3.0032954044e+00 -2.5911491468e+01 2.6390036003e+01 5.1100000000e-04 0.0000e+00 -1.0000e+00
      -12  1    4    4    0    0 +1.1792594870e+01 -5.5780967044e+00 -8.0374985972e+00 1.5322592480e+01 0.0000000000e+00 0.0000e+00 1.0000e+00
       12  1    3    3    0    0 -2.0806147176e+01 +7.7790541061e+00 +3.7285578054e+01 4.3400734716e+01 0.0000000000e+00 0.0000e+00 -1.0000e+00
</event>
<event>
 8      4 +3.7482383e-04 9.11880000e+01 7.81616400e-03 1.18400000e-01
      -11 -1    0    0    0    0 +0.0000000000e+00 +0.0000000000e+00 +4.5593999997e+01 4.5594000000e+01 5.1100000000e-04 0.0000e+00 -1.0000e+00
       11 -1    0    0    0    0 -0.0000000000e+00 -0.0000000000e+00 -4.5593999997e+01 4.5594000000e+01 5.1100000000e-04 0.0000e+00 1.0000e+00
       23  2    1    2    0    0 +0.0000000000e+00 +0.0000000000e+00 +0.0000000000e+00 9.1188000000e+01 9.1188000000e+01 5.3106e-14 0.0000e+00
 -9990012  2    3    3    0    0 +2.4729076432e+01 +1.4599320788e+00 -3.5636566169e+01 4.7787268771e+01 1.9999989636e+01 4.1386e-02 0.0000e+00
      -11  1    4    4    0    0 +1.4896096665e+01 -4.4409888897e+00 -1.2801295392e+01 2.0136763448e+01 5.1100000000e-04 0.0000e+00 1.0000e+00
       11  1    4    4    0    0 -1.9885087676e+00 +1.7524751131e+00 -6.8212659877e+00 7.3181285912e+00 5.1100000000e-04 0.0000e+00 -1.0000e+00
      -12  1    4    4    0    0 +1.1821488535e+01 +4.1484458554e+00 -1.6014004790e+01 2.0332376732e+01 0.0000000000e+00 0.0000e+00 1.0000e+00
       12  1    3    3    0    0 -2.4729076432e+01 -1.4599320788e+00 +3.5636566169e+01 4.3400731229e+01 0.0000000000e+00 0.0000e+00 -1.0000e+00
</event>
<event>
 8      3 +3.7482383e-04 9.11880000e+01 7.81616400e-03 1.18400000e-01
      -11 -1    0    0    0    0 +0.0000000000e+00 +0.0000000000e+00 +4.5593999997e+01 4.5594000000e+01 5.1100000000e-04 0.0000e+00 -1.0000e+00
       11 -1    0    0    0    0 -0.0000000000e+00 -0.0000000000e+00 -4.5593999997e+01 4.5594000000e+01 5.1100000000e-04 0.0000e+00 1.0000e+00
       23  2    1    2    0    0 +0.0000000000e+00 -1.7763568394e-15 +0.0000000000e+00 9.1188000000e+01 9.1188000000e+01 4.6526e-14 0.0000e+00
  9990012  2    3    3    0    0 +3.3123239183e+01 +1.4947485675e+01 +2.3728614241e+01 4.7787269179e+01 1.9999991495e+01 2.9640e-02 0.0000e+00
      -11  1    4    4    0    0 +3.9177870408e-01 -1.5698233625e+00 -1.4783586650e+00 2.1916615948e+00 5.1100000000e-04 0.0000e+00 1.0000e+00
       11  1    4    4    0    0 +1.1824345173e+01 +4.1338980126e+00 +1.4153361564e+01 1.8900314690e+01 5.1100000000e-04 0.0000e+00 -1.0000e+00
       12  1    4    4    0    0 +2.0907115306e+01 +1.2383411025e+01 +1.1053611343e+01 2.6695292895e+01 0.0000000000e+00 0.0000e+00 -1.0000e+00
      -12  1    3    3    0    0 -3.3123239183e+01 -1.4947485675e+01 -2.3728614241e+01 4.3400730821e+01 0.0000000000e+00 0.0000e+00 1.0000e+00
</event>
<event>
 8      4 +3.7482383e-04 9.11880000e+01 7.81616400e-03 1.18400000e-01
      -11 -1    0    0    0    0 +0.0000000000e+00 +0.0000000000e+00 +4.5593999997e+01 4.5594000000e+01 5.1100000000e-04 0.0000e+00 1.0000e+00
       11 -1    0    0    0    0 -0.0000000000e+00 -0.0000000000e+00 -4.5593999997e+01 4.5594000000e+01 5.1100000000e-04 0.0000e+00 -1.0000e+00
       23  2    1    2    0    0 +0.0000000000e+00 +7.1054273576e-15 -1.7763568394e-15 9.1188000000e+01 9.1188000000e+01 8.6834e-14 0.0000e+00
 -9990012  2    3    3    0    0 +2.4413417406e+01 -3.4119502498e+01 +1.1111642849e+01 4.7787262599e+01 1.9999961493e+01 1.7401e-01 0.0000e+00
      -11  1    4    4    0    0 +3.3278093275e-01 -1.2861498862e+01 +4.7768568530e+00 1.3723966547e+01 5.1100000000e-04 0.0000e+00 1.0000e+00
       11  1    4    4    0    0 +1.6789382549e+00 -4.4550157692e+00 -1.4880114808e+00 4.9880033676e+00 5.1100000000e-04 0.0000e+00 -1.0000e+00
      -12  1    4    4    0    0 +2.2401698219e+01 -1.6802987867e+01 +7.8227974763e+00 2.9075292685e+01 0.0000000000e+00 0.0000e+00 1.0000e+00
       12  1    3    3    0    0 -2.4413417406e+01 +3.4119502498e+01 -1.1111642849e+01 4.3400737401e+01 0.0000000000e+00 0.0000e+00 -1.0000e+00
</event>
<event>
 8      3 +3.7482383e-04 9.11880000e+01 7.81616400e-03 1.18400000e-01
      -11 -1    0    0    0    0 +0.0000000000e+00 +0.0000000000e+00 +4.5593999997e+01 4.5594000000e+01 5.1100000000e-04 0.0000e+00 -1.0000e+00
       11 -1    0    0    0    0 -0.0000000000e+00 -0.0000000000e+00 -4.5593999997e+01 4.5594000000e+01 5.1100000000e-04 0.0000e+00 1.0000e+00
       23  2    1    2    0    0 -3.8857805862e-16 +0.0000000000e+00 +0.0000000000e+00 9.1188000000e+01 9.1188000000e+01 3.6154e-14 0.0000e+00
  9990012  2    3    3    0    0 +4.9442499548e-01 -3.4711799815e+01 +2.6047467235e+01 4.7787262082e+01 1.9999959137e+01 4.7175e-02 0.0000e+00
      -11  1    4    4    0    0 -4.4504047997e+00 -1.1806828873e+01 +1.3842438619e+00 1.2693440914e+01 5.1100000000e-04 0.0000e+00 1.0000e+00
       11  1    4    4    0    0 +5.3224015648e+00 -9.3057725668e+00 +1.4868543569e+01 1.8330274128e+01 5.1100000000e-04 0.0000e+00 -1.0000e+00
       12  1    4    4    0    0 -3.7757176953e-01 -1.3599198375e+01 +9.7946798047e+00 1.6763547040e+01 0.0000000000e+00 0.0000e+00 -1.0000e+00
      -12  1    3    3    0    0 -4.9442499548e-01 +3.4711799815e+01 -2.6047467235e+01 4.3400737918e+01 0.0000000000e+00 0.0000e+00 1.0000e+00
</event>
<event>
 8      4 +3.7482383e-04 9.11880000e+01 7.81616400e-03 1.18400000e-01
      -11 -1    0    0    0    0 +0.0000000000e+00 +0.0000000000e+00 +4.5593999997e+01 4.5594000000e+01 5.1100000000e-04 0.0000e+00 -1.0000e+00
       11 -1    0    0    0    0 -0.0000000000e+00 -0.0000000000e+00 -4.5593999997e+01 4.5594000000e+01 5.1100000000e-04 0.0000e+00 1.0000e+00
       23  2    1    2    0    0 +0.0000000000e+00 +0.0000000000e+00 +7.1054273576e-15 9.1188000000e+01 9.1188000000e+01 2.4442e-14 0.0000e+00
 -9990012  2    3    3    0    0 +8.4966554800e+00 -1.6682274862e+01 -3.9155229839e+01 4.7787268755e+01 1.9999989560e+01 4.5309e-01 0.0000e+00
      -11  1    4    4    0    0 -3.7269296863e+00 -5.6475757921e-01 -1.4017960301e+00 4.0216897420e+00 5.1100000000e-04 0.0000e+00 -1.0000e+00
       11  1    4    4    0    0 +1.2524435089e+01 -1.5410718349e+01 -3.0018081171e+01 3.5992178480e+01 5.1100000000e-04 0.0000e+00 1.0000e+00
      -12  1    4    4    0    0 -3.0084992253e-01 -7.0679893425e-01 -7.7353526379e+00 7.7734005327e+00 0.0000000000e+00 0.0000e+00 1.0000e+00
       12  1    3    3    0    0 -8.4966554800e+00 +1.6682274862e+01 +3.9155229839e+01 4.3400731245e+01 0.0000000000e+00 0.0000e+00 -1.0000e+00
</event>
<event>
 8      4 +3.7482383e-04 9.11880000e+01 7.81616400e-03 1.18400000e-01
      -11 -1    0    0    0    0 +0.0000000000e+00 +0.0000000000e+00 +4.5593999997e+01 4.5594000000e+01 5.1100000000e-04 0.0000e+00 -1.0000e+00
       11 -1    0    0    0    0 -0.0000000000e+00 -0.0000000000e+00 -4.5593999997e+01 4.5594000000e+01 5.1100000000e-04 0.0000e+00 1.0000e+00
       23  2    1    2    0    0 +0.0000000000e+00 +0.0000000000e+00 +4.4408920985e-16 9.1188000000e+01 9.1188000000e+01 1.2082e-14 0.0000e+00
 -9990012  2    3    3    0    0 +4.1904853122e+01 -1.0727513070e+01 +3.5392720659e+00 4.7787277671e+01 2.0000030215e+01 3.2190e-01 0.0000e+00
      -11  1    4    4    0    0 +3.9569456749e+01 -7.0923231731e+00 -9.7927919613e-01 4.0211962690e+01 5.1100000000e-04 0.0000e+00 1.0000e+00
       11  1    4    4    0    0 +2.4997459287e+00 -2.6816812480e+00 +8.2583962577e-01 3.7579456320e+00 5.1100000000e-04 0.0000e+00 -1.0000e+00
      -12  1    4    4    0    0 -1.6434955528e-01 -9.5350864891e-01 +3.6927116363e+00 3.8173693492e+00 0.0000000000e+00 0.0000e+00 1.0000e+00
       12  1    3    3    0    0 -4.1904853122e+01 +1.0727513070e+01 -3.5392720659e+00 4.3400722329e+01 0.0000000000e+00 0.0000e+00 -1.0000e+00
</event>
<event>
 8      4 +3.7482383e-04 9.11880000e+01 7.81616400e-03 1.18400000e-01
      -11 -1    0    0    0    0 +0.0000000000e+00 +0.0000000000e+00 +4.5593999997e+01 4.5594000000e+01 5.1100000000e-04 0.0000e+00 1.0000e+00
       11 -1    0    0    0    0 -0.0000000000e+00 -0.0000000000e+00 -4.5593999997e+01 4.5594000000e+01 5.1100000000e-04 0.0000e+00 -1.0000e+00
       23  2    1    2    0    0 -1.7763568394e-15 +0.0000000000e+00 -3.5527136788e-15 9.1188000000e+01 9.1188000000e+01 3.7837e-14 0.0000e+00
 -9990012  2    3    3    0    0 +1.0122311064e+01 -2.8484953056e+01 +3.1141121817e+01 4.7787271897e+01 2.0000003886e+01 3.0425e-01 0.0000e+00
      -11  1    4    4    0    0 +3.6745356114e+00 -3.1955712379e+00 +2.7470303463e+00 5.5910699763e+00 5.1100000000e-04 0.0000e+00 1.0000e+00
       11  1    4    4    0    0 +5.8104512435e+00 -9.9665492977e+00 +2.0558383836e+00 1.1718358259e+01 5.1100000000e-04 0.0000e+00 -1.0000e+00
      -12  1    4    4    0    0 +6.3732420951e-01 -1.5322832521e+01 +2.6338253087e+01 3.0477843662e+01 0.0000000000e+00 0.0000e+00 1.0000e+00
       12  1    3    3    0    0 -1.0122311064e+01 +2.8484953056e+01 -3.1141121817e+01 4.3400728103e+01 0.0000000000e+00 0.0000e+00 -1.0000e+00
</event>
<event>
 8      4 +3.7482383e-04 9.11880000e+01 7.81616400e-03 1.18400000e-01
      -11 -1    0    0    0    0 +0.0000000000e+00 +0.0000000000e+00 +4.5593999997e+01 4.5594000000e+01 5.1100000000e-04 0.0000e+00 1.0000e+00
       11 -1    0    0    0    0 -0.0000000000e+00 -0.0000000000e+00 -4.5593999997e+01 4.5594000000e+01 5.1100000000e-04 0.0000e+00 -1.0000e+00
       23  2    1    2    0    0 +0.0000000000e+00 +0.0000000000e+00 +4.4408920985e-16 9.1188000000e+01 9.1188000000e+01 1.2377e-13 0.0000e+00
 -9990012  2    3    3    0    0 -2.0232977309e+01 +3.8263042996e+01 +3.1918421438e+00 4.7787289333e+01 2.0000083387e+01 7.6789e-02 0.0000e+00
      -11  1    4    4    0    0 -2.4842384589e+00 +4.0524999054e+00 +3.5914277662e+00 5.9575624096e+00 5.1100000000e-04 0.0000e+00 1.0000e+00
       11  1    4    4    0    0 -1.8284423579e+01 +2.1025432439e+01 -4.0048798356e+00 2.8150098004e+01 5.1100000000e-04 0.0000e+00 -1.0000e+00
      -12  1    4    4    0    0 +5.3568472884e-01 +1.3185110652e+01 +3.6052942131e+00 1.3679628920e+01 0.0000000000e+00 0.0000e+00 1.0000e+00
       12  1    3    3    0    0 +2.0232977309e+01 -3.8263042996e+01 -3.1918421438e+00 4.3400710667e+01 0.0000000000e+00 0.0000e+00 -1.0000e+00
</event>
<event>
 8      4 +3.7482383e-04 9.11880000e+01 7.81616400e-03 1.18400000e-01
      -11 -1    0    0    0    0 +0.0000000000e+00 +0.0000000000e+00 +4.5593999997e+01 4.5594000000e+01 5.1100000000e-04 0.0000e+00 -1.0000e+00
       11 -1    0    0    0    0 -0.0000000000e+00 -0.0000000000e+00 -4.5593999997e+01 4.5594000000e+01 5.1100000000e-04 0.0000e+00 1.0000e+00
       23  2    1    2    0    0 +0.0000000000e+00 -1.7763568394e-15 +7.1054273576e-15 9.1188000000e+01 9.1188000000e+01 6.7626e-14 0.0000e+00
 -9990012  2    3    3    0    0 -1.3972724347e+01 +7.1262219207e+00 -4.0467303729e+01 4.7787277245e+01 2.0000028272e+01 6.1872e-02 0.0000e+00
      -11  1    4    4    0    0 -7.6043697970e+00 -2.1845095528e+00 -1.0061752794e+01 1.2799898107e+01 5.1100000000e-04 0.0000e+00 1.0000e+00
       11  1    4    4    0    0 -5.5379059662e+00 -1.9215531864e+00 -8.0877484038e+00 9.9886157020e+00 5.1100000000e-04 0.0000e+00 -1.0000e+00
      -12  1    4    4    0    0 -8.3044858380e-01 +1.1232284660e+01 -2.2317802531e+01 2.4998763436e+01 0.0000000000e+00 0.0000e+00 1.0000e+00
       12  1    3    3    0    0 +1.3972724347e+01 -7.1262219207e+00 +4.0467303729e+01 4.3400722755e+01 0.0000000000e+00 0.0000e+00 -1.0000e+00
</event>
<event>
 8      3 +3.7482383e-04 9.11880000e+01 7.81616400e-03 1.18400000e-01
      -11 -1    0    0    0    0 +0.0000000000e+00 +0.0000000000e+00 +4.5593999997e+01 4.5594000000e+01 5.1100000000e-04 0.0000e+00 1.0000e+00
       11 -1    0    0    0    0 -0.0000000000e+00 -0.0000000000e+00 -4.5593999997e+01 4.5594000000e+01 5.1100000000e-04 0.0000e+00 -1.0000e+00
       23  2    1    2    0    0 +0.0000000000e+00 +1.7763568394e-15 -7.1054273576e-15 9.1188000000e+01 9.1188000000e+01 9.9856e-14 0.0000e+00
  9990012  2    3    3    0    0 -2.0815383396e+01 -1.3241846038e+01 -3.5707099874e+01 4.7787266667e+01 1.9999980042e+01 1.2057e-01 0.0000e+00
      -11  1    4    4    0    0 -1.5346696975e+00 +1.8476139578e+00 -5.1977488126e+00 5.7258607560e+00 5.1100000000e-04 0.0000e+00 1.0000e+00
       11  1    4    4    0    0 -8.0432825165e+00 -7.2792661728e+00 -2.8726467024e+00 1.1222041213e+01 5.1100000000e-04 0.0000e+00 -1.0000e+00
       12  1    4    4    0    0 -1.1237431182e+01 -7.8101938230e+00 -2.7636704359e+01 3.0839364698e+01 0.0000000000e+00 0.0000e+00 -1.0000e+00
      -12  1    3    3    0    0 +2.0815383396e+01 +1.3241846038e+01 +3.5707099874e+01 4.3400733333e+01 0.0000000000e+00 0.0000e+00 1.0000e+00
</event>
<event>
 8      3 +3.7482383e-04 9.11880000e+01 7.81616400e-03 1.18400000e-01
      -11 -1    0    0    0    0 +0.0000000000e+00 +0.0000000000e+00 +4.5593999997e+01 4.5594000000e+01 5.1100000000e-04 0.0000e+00 1.0000e+00
       11 -1    0    0    0    0 -0.0000000000e+00 -0.0000000000e+00 -4.5593999997e+01 4.5594000000e+01 5.1100000000e-04 0.0000e+00 -1.0000e+00
       23  2    1    2    0    0 +0.0000000000e+00 +0.0000000000e+00 +3.5527136788e-15 9.1188000000e+01 9.1188000000e+01 3.5208e-15 0.0000e+00
  9990012  2    3    3    0    0 +1.9609329043e+01 -3.1715771000e+01 -2.2208314251e+01 4.7787249575e+01 1.9999902110e+01 1.0532e-01 0.0000e+00
      -11  1    4    4    0    0 -1.5670336618e+00 -2.9323398702e-01 -2.4578371719e+00 2.9295980088e+00 5.1100000000e-04 0.0000e+00 1.0000e+00
       11  1    4    4    0    0 +7.9618154114e-01 -1.0872918733e+01 -8.4273489888e+00 1.3779494840e+01 5.1100000000e-04 0.0000e+00 -1.0000e+00
       12  1    4    4    0    0 +2.0380181163e+01 -2.0549618280e+01 -1.1323128090e+01 3.1078156725e+01 0.0000000000e+00 0.0000e+00 -1.0000e+00
      -12  1    3    3    0    0 -1.9609329043e+01 +3.1715771000e+01 +2.2208314251e+01 4.3400750425e+01 0.0000000000e+00 0.0000e+00 1.0000e+00
</event>
<event>
 8      4 +3.7482383e-04 9.11880000e+01 7.81616400e-03 1.18400000e-01
      -11 -1    0    0    0    0 +0.0000000000e+00 +0.0000000000e+00 +4.5593999997e+01 4.5594000000e+01 5.1100000000e-04 0.0000e+00 1.0000e+00
       11 -1    0    0    0    0 -0.0000000000e+00 -0.0000000000e+00 -4.5593999997e+01 4.5594000000e+01 5.1100000000e-04 0.0000e+00 -1.0000e+00
       23  2    1    2    0    0 +0.0000000000e+00 +7.1054273576e-15 -3.5527136788e-15 9.1188000000e+01 9.1188000000e+01 3.2252e-14 0.0000e+00
 -9990012  2    3    3    0    0 -7.2342133166e+00 -3.5597598231e+01 +2.3750795527e+01 4.7787272699e+01 2.0000007543e+01 2.9554e-02 0.0000e+00
      -11  1    4    4    0    0 -7.0497279796e+00 -7.8734228488e+00 +7.1659973454e-01 1.0592590211e+01 5.1100000000e-04 0.0000e+00 1.0000e+00
       11  1    4    4    0    0 +1.0851624785e+00 -3.0251221708e-01 +3.0169941222e+00 3.2204572720e+00 5.1100000000e-04 0.0000e+00 -1.0000e+00
      -12  1    4    4    0    0 -1.2696478156e+00 -2.7421663165e+01 +2.0017201670e+01 3.3974225216e+01 0.0000000000e+00 0.0000e+00 1.0000e+00
       12  1    3    3    0    0 +7.2342133166e+00 +3.5597598231e+01 -2.3750795527e+01 4.3400727301e+01 0.0000000000e+00 0.0000e+00 -1.0000e+00
</event>
<event>
 8      3 +3.7482383e-04 9.11880000e+01 7.81616400e-03 1.18400000e-01
      -11 -1    0    0    0    0 +0.0000000000e+00 +0.0000000000e+00 +4.5593999997e+01 4.5594000000e+01 5.1100000000e-04 0.0000e+00 1.0000e+00
       11 -1    0    0    0    0 -0.0000000000e+00 -0.0000000000e+00 -4.5593999997e+01 4.5594000000e+01 5.1100000000e-04 0.0000e+00 -1.0000e+00
       23  2    1    2    0    0 -3.5527136788e-15 +1.7763568394e-15 +0.0000000000e+00 9.1188000000e+01 9.1188000000e+01 5.9074e-14 0.0000e+00
  9990012  2    3    3    0    0 +3.0726800228e+01 -1.4383905117e+01 -2.7066409833e+01 4.7787268210e+01 1.9999987078e+01 1.2245e-01 0.0000e+00
      -11  1    4    4    0    0 +1.0616859938e+00 -1.3275689142e+00 +2.6554030139e+00 3.1529005374e+00 5.1100000000e-04 0.0000e+00 1.0000e+00
       11  1    4    4    0    0 +8.9667856390e-01 +6.5281336056e-01 -2.4530876577e+00 2.6921807235e+00 5.1100000000e-04 0.0000e+00 -1.0000e+00
       12  1    4    4    0    0 +2.8768435670e+01 -1.3709149563e+01 -2.7268725189e+01 4.1942186949e+01 0.0000000000e+00 0.0000e+00 -1.0000e+00
      -12  1    3    3    0    0 -3.0726800228e+01 +1.4383905117e+01 +2.7066409833e+01 4.3400731790e+01 0.0000000000e+00 0.0000e+00 1.0000e+00
</event>
<event>
 8      3 +3.7482383e-04 9.11880000e+01 7.81616400e-03 1.18400000e-01
      -11 -1    0    0    0    0 +0.0000000000e+00 +0.0000000000e+00 +4.5593999997e+01 4.5594000000e+01 5.1100000000e-04 0.0000e+00 -1.0000e+00
       11 -1    0    0    0    0 -0.0000000000e+00 -0.0000000000e+00 -4.5593999997e+01 4.5594000000e+01 5.1100000000e-04 0.0000e+00 1.0000e+00
       23  2    1    2    0    0 +0.0000000000e+00 +3.5527136788e-15 -3.5527136788e-15 9.1188000000e+01 9.1188000000e+01 3.1282e-15 0.0000e+00
  9990012  2    3    3    0    0 -1.0587481872e+01 +3.1699457822e+01 +2.7688855649e+01 4.7787272751e+01 2.0000007781e+01 5.0247e-01 0.0000e+00
      -11  1    4    4    0    0 -9.9090334779e+00 +8.5393534580e+00 +3.8341363300e+00 1.3631217980e+01 5.1100000000e-04 0.0000e+00 1.0000e+00
       11  1    4    4    0    0 +2.4626886484e+00 +2.6250428286e+00 +2.6384034689e+00 4.4628307560e+00 5.1100000000e-04 0.0000e+00 -1.0000e+00
       12  1    4    4    0    0 -3.1411370426e+00 +2.0535061535e+01 +2.1216315850e+01 2.9693224015e+01 0.0000000000e+00 0.0000e+00 -1.0000e+00
      -12  1    3    3    0    0 +1.0587481872e+01 -3.1699457822e+01 -2.7688855649e+01 4.3400727249e+01 0.0000000000e+00 0.0000e+00 1.0000e+00
</event>
<event>
 8      4 +3.7482383e-04 9.11880000e+01 7.81616400e-03 1.18400000e-01
      -11 -1    0    0    0    0 +0.0000000000e+00 +0.0000000000e+00 +4.5593999997e+01 4.5594000000e+01 5.1100000000e-04 0.0000e+00 1.0000e+00
       11 -1    0    0    0    0 -0.0000000000e+00 -0.0000000000e+00 -4.5593999997e+01 4.5594000000e+01 5.1100000000e-04 0.0000e+00 -1.0000e+00
       23  2    1    2    0    0 +7.1054273576e-15 +0.0000000000e+00 +0.0000000000e+00 9.1188000000e+01 9.1188000000e+01 2.0789e-14 0.0000e+00
 -9990012  2    3    3    0    0 -4.0165993333e+01 -6.0083400143e+00 +1.5304141710e+01 4.7787263558e+01 1.9999965868e+01 3.5754e-01 0.0000e+00
      -11  1    4    4    0    0 -1.1570910645e+01 -3.4864456677e+00 -1.9991707349e+00 1.2248998344e+01 5.1100000000e-04 0.0000e+00 1.0000e+00
       11  1    4    4    0    0 +8.0224833025e-02 +1.8826877462e+00 +2.9152275561e-01 1.9068127731e+00 5.1100000000e-04 0.0000e+00 -1.0000e+00
      -12  1    4    4    0    0 -2.8675307522e+01 -4.4045820928e+00 +1.7011789689e+01 3.3631452441e+01 0.0000000000e+00 0.0000e+00 1.0000e+00
       12  1    3    3    0    0 +4.0165993333e+01 +6.0083400143e+00 -1.5304141710e+01 4.3400736442e+01 0.0000000000e+00 0.0000e+00 -1.0000e+00
</event>
<event>
 8      4 +3.7482383e-04 9.11880000e+01 7.81616400e-03 1.18400000e-01
      -11 -1    0    0    0    0 +0.0000000000e+00 +0.0000000000e+00 +4.5593999997e+01 4.5594000000e+01 5.1100000000e-04 0.0000e+00 1.0000e+00
       11 -1    0    0    0    0 -0.0000000000e+00 -0.0000000000e+00 -4.5593999997e+01 4.5594000000e+01 5.1100000000e-04 0.0000e+00 -1.0000e+00
       23  2    1    2    0    0 +0.0000000000e+00 +4.4408920985e-16 +0.0000000000e+00 9.1188000000e+01 9.1188000000e+01 1.3125e-14 0.0000e+00
 -9990012  2    3    3    0    0 -3.7563027479e+01 -2.5169504759e+00 +2.1594144533e+01 4.7787272458e+01 2.0000006445e+01 4.9925e-03 0.0000e+00
      -11  1    4    4    0    0 -1.4279229114e+01 -4.4882367619e+00 +2.9811187532e+00 1.5261969814e+01 5.1100000000e-04 0.0000e+00 1.0000e+00
       11  1    4    4    0    0 +4.7020313774e-01 +2.8254796574e+00 +1.4749202525e+00 3.2217722293e+00 5.1100000000e-04 0.0000e+00 -1.0000e+00
      -12  1    4    4    0    0 -2.3754001503e+01 -8.5419337139e-01 +1.7138105527e+01 2.9303530415e+01 0.0000000000e+00 0.0000e+00 1.0000e+00
       12  1    3    3    0    0 +3.7563027479e+01 +2.5169504759e+00 -2.1594144533e+01 4.3400727542e+01 0.0000000000e+00 0.0000e+00 -1.0000e+00
</event>
<event>
 8      3 +3.7482383e-04 9.11880000e+01 7.81616400e-03 1.18400000e-01
      -11 -1    0    0    0    0 +0.0000000000e+00 +0.0000000000e+00 +4.5593999997e+01 4.5594000000e+01 5.1100000000e-04 0.0000e+00 -1.0000e+00
       11 -1    0    0    0    0 -0.0000000000e+00 -0.0000000000e+00 -4.5593999997e+01 4.5594000000e+01 5.1100000000e-04 0.0000e+00 1.0000e+00
       23  2    1    2    0    0 +7.1054273576e-15 +0.0000000000e+00 +0.0000000000e+00 9.1188000000e+01 9.1188000000e+01 5.2993e-14 0.0000e+00
  9990012  2    3    3    0    0 +3.9410707932e+01 -8.8467600117e+00 +1.5879355000e+01 4.7787274457e+01 2.0000015561e+01 3.1717e-01 0.0000e+00
      -11  1    4    4    0    0 +1.6747621827e-01 +2.0712734087e+00 +3.4269559999e+00 4.0077736343e+00 5.1100000000e-04 0.0000e+00 1.0000e+00
       11  1    4    4    0    0 +8.1154028740e+00 -2.1564464231e+00 -1.5531073074e+00 8.5394477311e+00 5.1100000000e-04 0.0000e+00 -1.0000e+00
       12  1    4    4    0    0 +3.1127828840e+01 -8.7615869973e+00 +1.4005506307e+01 3.5240053092e+01 0.0000000000e+00 0.0000e+00 -1.0000e+00
      -12  1    3    3    0    0 -3.9410707932e+01 +8.8467600117e+00 -1.5879355000e+01 4.3400725543e+01 0.0000000000e+00 0.0000e+00 1.0000e+00
</event>
<event>
 8      4 +3.7482383e-04 9.11880000e+01 7.81616400e-03 1.18400000e-01
      -11 -1    0    0    0    0 +0.0000000000e+00 +0.0000000000e+00 +4.5593999997e+01 4.5594000000e+01 5.1100000000e-04 0.0000e+00 1.0000e+00
       11 -1    0    0    0    0 -0.0000000000e+00 -0.0000000000e+00 -4.5593999997e+01 4.5594000000e+01 5.1100000000e-04 0.0000e+00 -1.0000e+00
       23  2    1    2    0    0 +0.0000000000e+00 +4.4408920985e-16 -3.5527136788e-15 9.1188000000e+01 9.1188000000e+01 1.2372e-13 0.0000e+00
 -9990012  2    3    3    0    0 +3.4743528863e+01 +3.5060641302e+00 +2.5772428901e+01 4.7787269879e+01 1.9999994688e+01 1.1610e-01 0.0000e+00
      -11  1    4    4    0    0 +2.3363358308e+01 +6.1608566774e+00 +1.6121193470e+01 2.9046437744e+01 5.1100000000e-04 0.0000e+00 1.0000e+00
       11  1    4    4    0    0 +1.0650622206e+00 +2.3705304888e+00 -1.2767127624e+00 2.8954737213e+00 5.1100000000e-04 0.0000e+00 -1.0000e+00
      -12  1    4    4    0    0 +1.0315108334e+01 -5.0253230360e+00 +1.0927948193e+01 1.5845358414e+01 0.0000000000e+00 0.0000e+00 1.0000e+00
       12  1    3    3    0    0 -3.4743528863e+01 -3.5060641302e+00 -2.5772428901e+01 4.3400730121e+01 0.0000000000e+00 0.0000e+00 -1.0000e+00
</event>
<event>
 8      4 +3.7482383e-04 9.11880000e+01 7.81616400e-03 1.18400000e-01
      -11 -1    0    0    0    0 +0.0000000000e+00 +0.0000000000e+00 +4.5593999997e+01 4.5594000000e+01 5.1100000000e-04 0.0000e+00 1.0000e+00
       11 -1    0    0    0    0 -0.0000000000e+00 -0.0000000000e+00 -4.5593999997e+01 4.5594000000e+01 5.1100000000e-04 0.0000e+00 -1.0000e+00
       23  2    1    2    0    0 +0.0000000000e+00 +0.0000000000e+00 +7.1054273576e-15 9.1188000000e+01 9.1188000000e+01 8.6969e-15 0.0000e+00
 -9990012  2    3    3    0    0 -8.0296083666e+00 +3.8070033734e+00 +4.2481230736e+01 4.7787275927e+01 2.0000022260e+01 3.2561e-01 0.0000e+00
      -11  1    4    4    0    0 +9.7975183272e-01 +4.3203889879e+00 +2.9568718659e+01 2.9898742416e+01 5.1100000000e-04 0.0000e+00 1.0000e+00
       11  1    4    4    0    0 -8.6092553283e+00 +2.6497728588e+00 +1.0801765976e+01 1.4064804370e+01 5.1100000000e-04 0.0000e+00 -1.0000e+00
      -12  1    4    4    0    0 -4.0010487099e-01 -3.1631584733e+00 +2.1107461017e+00 3.8237291406e+00 0.0000000000e+00 0.0000e+00 1.0000e+00
       12  1    3    3    0    0 +8.0296083666e+00 -3.8070033734e+00 -4.2481230736e+01 4.3400724073e+01 0.0000000000e+00 0.0000e+00 -1.0000e+00
</event>
<event>
 8      4 +3.7482383e-04 9.11880000e+01 7.81616400e-03 1.18400000e-01
      -11 -1    0    0    0    0 +0.0000000000e+00 +0.0000000000e+00 +4.5593999997e+01 4.5594000000e+01 5.1100000000e-04 0.0000e+00 1.0000e+00
       11 -1    0    0    0    0 -0.0000000000e+00 -0.0000000000e+00 -4.5593999997e+01 4.5594000000e+01 5.1100000000e-04 0.0000e+00 -1.0000e+00
       23  2    1    2    0    0 +0.0000000000e+00 +3.5527136788e-15 +0.0000000000e+00 9.1188000000e+01 9.1188000000e+01 3.4958e-14 0.0000e+00
 -9990012  2    3    3    0    0 -2.5321529529e+01 +2.9283382632e+01 +1.9619447082e+01 4.7787319592e+01 2.0000221346e+01 1.0374e-01 0.0000e+00
      -11  1    4    4    0    0 -1.1286759297e+01 +8.6823288314e+00 +3.1414535008e+00 1.4582266618e+01 5.1100000000e-04 0.0000e+00 1.0000e+00
       11  1    4    4    0    0 -8.7166797972e+00 +6.3414641873e+00 +7.0048545572e-03 1.0779365661e+01 5.1100000000e-04 0.0000e+00 -1.0000e+00
      -12  1    4    4    0    0 -5.3180904350e+00 +1.4259589614e+01 +1.6470988727e+01 2.2425687313e+01 0.0000000000e+00 0.0000e+00 1.0000e+00
       12  1    3    3    0    0 +2.5321529529e+01 -2.9283382632e+01 -1.9619447082e+01 4.3400680408e+01 0.0000000000e+00 0.0000e+00 -1.0000e+00
</event>
<event>
 8      3 +3.7482383e-04 9.11880000e+01 7.81616400e-03 1.18400000e-01
      -11 -1    0    0    0    0 +0.0000000000e+00 +0.0000000000e+00 +4.5593999997e+01 4.5594000000e+01 5.1100000000e-04 0.0000e+00 -1.0000e+00
       11 -1    0    0    0    0 -0.0000000000e+00 -0.0000000000e+00 -4.5593999997e+01 4.5594000000e+01 5.1100000000e-04 0.0000e+00 1.0000e+00
       23  2    1    2    0    0 -3.5527136788e-15 -3.5527136788e-15 +3.5527136788e-15 9.1188000000e+01 9.1188000000e+01 3.9748e-14 0.0000e+00
  9990012  2    3    3    0    0 -3.0797690873e+01 -1.8944430605e+01 +2.4004873417e+01 4.7787272335e+01 2.0000005885e+01 5.2726e-01 0.0000e+00
      -11  1    4    4    0    0 -1.9480150364e+00 +2.4055805390e+00 +3.1161437542e+00 4.3922582426e+00 5.1100000000e-04 0.0000e+00 1.0000e+00
       11  1    4    4    0    0 -2.8788218902e+01 -1.8786407331e+01 +2.1763147049e+01 4.0685688118e+01 5.1100000000e-04 0.0000e+00 -1.0000e+00
       12  1    4    4    0    0 -6.1456935243e-02 -2.5636038138e+00 -8.7441738638e-01 2.7093259743e+00 0.0000000000e+00 0.0000e+00 -1.0000e+00
      -12  1    3    3    0    0 +3.0797690873e+01 +1.8944430605e+01 -2.4004873417e+01 4.3400727665e+01 0.0000000000e+00 0.0000e+00 1.0000e+00
</event>
<event>
 8      4 +3.7482383e-04 9.11880000e+01 7.81616400e-03 1.18400000e-01
      -11 -1    0    0    0    0 +0.0000000000e+00 +0.0000000000e+00 +4.5593999997e+01 4.5594000000e+01 5.1100000000e-04 0.0000e+00 1.0000e+00
       11 -1    0    0    0    0 -0.0000000000e+00 -0.0000000000e+00 -4.5593999997e+01 4.5594000000e+01 5.1100000000e-04 0.0000e+00 -1.0000e+00
       23  2    1    2    0    0 +0.0000000000e+00 -3.5527136788e-15 -7.1054273576e-15 9.1188000000e+01 9.1188000000e+01 2.2451e-13 0.0000e+00
 -9990012  2    3    3    0    0 -1.6217788188e+01 +1.7212062964e+01 +3.6391637638e+01 4.7787273565e+01 2.0000011490e+01 3.9936e-02 0.0000e+00
      -11  1    4    4    0    0 -2.2218784128e+00 +4.3424520707e+00 +1.0128212128e+01 1.1241633104e+01 5.1100000000e-04 0.0000e+00 1.0000e+00
       11  1    4    4    0    0 -2.8467602455e-01 +1.0987791535e+01 +7.8309282256e+00 1.3495778613e+01 5.1100000000e-04 0.0000e+00 -1.0000e+00
      -12  1    4    4    0    0 -1.3711233751e+01 +1.8818193584e+00 +1.8432497284e+01 2.3049861847e+01 0.0000000000e+00 0.0000e+00 1.0000e+00
       12  1    3    3    0    0 +1.6217788188e+01 -1.7212062964e+01 -3.6391637638e+01 4.3400726435e+01 0.0000000000e+00 0.0000e+00 -1.0000e+00
</event>
<event>
 8      4 +3.7482383e-04 9.11880000e+01 7.81616400e-03 1.18400000e-01
      -11 -1    0    0    0    0 +0.0000000000e+00 +0.0000000000e+00 +4.5593999997e+01 4.5594000000e+01 5.1100000000e-04 0.0000e+00 -1.0000e+00
       11 -1    0    0    0    0 -0.0000000000e+00 -0.0000000000e+00 -4.5593999997e+01 4.5594000000e+01 5.1100000000e-04 0.0000e+00 1.0000e+00
       23  2    1    2    0    0 +0.0000000000e+00 +4.4408920985e-16 +0.0000000000e+00 9.1188000000e+01 9.1188000000e+01 3.9085e-13 0.0000e+00
 -9990012  2    3    3    0    0 +3.2885608302e+01 +2.1850458685e+00 -2.8238020392e+01 4.7787268963e+01 1.9999990511e+01 4.3496e-01 0.0000e+00
      -11  1    4    4    0    0 +5.3653970819e+00 -3.7166693566e+00 -4.1272884008e+00 7.7224106830e+00 5.1100000000e-04 0.0000e+00 1.0000e+00
       11  1    4    4    0    0 +2.6546056478e+01 +2.2155789754e+00 -1.5927112886e+01 3.1036669117e+01 5.1100000000e-04 0.0000e+00 -1.0000e+00
      -12  1    4    4    0    0 +9.7415474288e-01 +3.6861362496e+00 -8.1836191053e+00 9.0281891636e+00 0.0000000000e+00 0.0000e+00 1.0000e+00
       12  1    3    3    0    0 -3.2885608302e+01 -2.1850458685e+00 +2.8238020392e+01 4.3400731037e+01 0.0000000000e+00 0.0000e+00 -1.0000e+00
</event>
<event>
 8      3 +3.7482383e-04 9.11880000e+01 7.81616400e-03 1.18400000e-01
      -11 -1    0    0    0    0 +0.0000000000e+00 +0.0000000000e+00 +4.5593999997e+01 4.5594000000e+01 5.1100000000e-04 0.0000e+00 1.0000e+00
       11 -1    0    0    0    0 -0.0000000000e+00 -0.0000000000e+00 -4.5593999997e+01 4.5594000000e+01 5.1100000000e-04 0.0000e+00 -1.0000e+00
       23  2    1    2    0    0 +0.0000000000e+00 +0.0000000000e+00 -3.5527136788e-15 9.1188000000e+01 9.1188000000e+01 1.3944e-13 0.0000e+00
  9990012  2    3    3    0    0 -1.6695277614e+01 +3.6569901125e+01 -1.6356435513e+01 4.7787274826e+01 2.0000017242e+01 9.1557e-01 0.0000e+00
      -11  1    4    4    0    0 +3.0017154572e+00 +7.4227779177e-01 -1.7358348236e+00 3.5460393120e+00 5.1100000000e-04 0.0000e+00 1.0000e+00
       11  1    4    4    0    0 -9.3070315473e+00 +1.9356609074e+01 -3.3408329681e+00 2.1736152287e+01 5.1100000000e-04 0.0000e+00 -1.0000e+00
       12  1    4    4    0    0 -1.0389961523e+01 +1.6471014260e+01 -1.1279767722e+01 2.2505083227e+01 0.0000000000e+00 0.0000e+00 -1.0000e+00
      -12  1    3    3    0    0 +1.6695277614e+01 -3.6569901125e+01 +1.6356435513e+01 4.3400725174e+01 0.0000000000e+00 0.0000e+00 1.0000e+00
</event>
<event>
 8      4 +3.7482383e-04 9.11880000e+01 7.81616400e-03 1.18400000e-01
      -11 -1    0    0    0    0 +0.0000000000e+00 +0.0000000000e+00 +4.5593999997e+01 4.5594000000e+01 5.1100000000e-04 0.0000e+00 -1.0000e+00
       11 -1    0    0    0    0 -0.0000000000e+00 -0.0000000000e+00 -4.5593999997e+01 4.5594000000e+01 5.1100000000e-04 0.0000e+00 1.0000e+00
       23  2    1    2    0    0 +0.0000000000e+00 -7.1054273576e-15 +1.7763568394e-15 9.1188000000e+01 9.1188000000e+01 3.0627e-14 0.0000e+00
 -9990012  2    3    3    0    0 -2.0446953501e+00 +4.0902774244e+01 -1.4366836396e+01 4.7787266044e+01 1.9999977200e+01 8.6426e-03 0.0000e+00
      -11  1    4    4    0    0 +1.4258627935e+00 +3.0722909444e+01 -8.7562808704e+00 3.1978159803e+01 5.1100000000e-04 0.0000e+00 1.0000e+00
       11  1    4    4    0    0 +3.0508122703e+00 +4.5172960529e+00 +1.0574805267e-01 5.4520273339e+00 5.1100000000e-04 0.0000e+00 -1.0000e+00
      -12  1    4    4    0    0 -6.5213704138e+00 +5.6625687466e+00 -5.7163035785e+00 1.0357078907e+01 0.0000000000e+00 0.0000e+00 1.0000e+00
       12  1    3    3    0    0 +2.0446953501e+00 -4.0902774244e+01 +1.4366836396e+01 4.3400733956e+01 0.0000000000e+00 0.0000e+00 -1.0000e+00
</event>
<event>
 8      3 +3.7482383e-04 9.11880000e+01 7.81616400e-03 1.18400000e-01
      -11 -1    0    0    0    0 +0.0000000000e+00 +0.0000000000e+00 +4.5593999997e+01 4.5594000000e+01 5.1100000000e-04 0.0000e+00 1.0000e+00
       11 -1    0    0    0    0 -0.0000000000e+00 -0.0000000000e+00 -4.5593999997e+01 4.5594000000e+01 5.1100000000e-04 0.0000e+00 -1.0000e+00
       23  2    1    2    0    0 +0.0000000000e+00 +7.1054273576e-15 +1.7763568394e-15 9.1188000000e+01 9.1188000000e+01 1.5488e-13 0.0000e+00
  9990012  2    3    3    0    0 +2.5629955769e+01 +3.2245759780e+01 -1.3672536157e+01 4.7787286856e+01 2.0000072090e+01 2.4326e-01 0.0000e+00
      -11  1    4    4    0    0 +3.1821545461e+00 +9.9192506612e+00 -6.6948673540e+00 1.2383008131e+01 5.1100000000e-04 0.0000e+00 1.0000e+00
       11  1    4    4    0    0 +1.8499445910e+01 +2.3047342463e+01 -9.0221060724e+00 3.0899965888e+01 5.1100000000e-04 0.0000e+00 -1.0000e+00
       12  1    4    4    0    0 +3.9483553121e+00 -7.2083334471e-01 +2.0444372696e+00 4.5043128367e+00 0.0000000000e+00 0.0000e+00 -1.0000e+00
      -12  1    3    3    0    0 -2.5629955769e+01 -3.2245759780e+01 +1.3672536157e+01 4.3400713144e+01 0.0000000000e+00 0.0000e+00 1.0000e+00
</event>
<event>
 8      3 +3.7482383e-04 9.11880000e+01 7.81616400e-03 1.18400000e-01
      -11 -1    0    0    0    0 +0.0000000000e+00 +0.0000000000e+00 +4.5593999997e+01 4.5594000000e+01 5.1100000000e-04 0.0000e+00 1.0000e+00
       11 -1    0    0    0    0 -0.0000000000e+00 -0.0000000000e+00 -4.5593999997e+01 4.5594000000e+01 5.1100000000e-04 0.0000e+00 -1.0000e+00
       23  2    1    2    0    0 +0.0000000000e+00 +0.0000000000e+00 +6.6613381478e-16 9.1188000000e+01 9.1188000000e+01 4.0921e-14 0.0000e+00
  9990012  2    3    3    0    0 -4.2668248689e+01 -7.8705309336e+00 -1.0481578181e+00 4.7787270304e+01 1.9999996622e+01 2.2004e-01 0.0000e+00
      -11  1    4    4    0    0 -9.1792949948e+00 -6.2435804997e+00 +4.9032792190e+00 1.2136057903e+01 5.1100000000e-04 0.0000e+00 1.0000e+00
       11  1    4    4    0    0 -8.9378478719e-01 -2.1514701081e+00 -1.4458760700e+00 2.7419395950e+00 5.1100000000e-04 0.0000e+00 -1.0000e+00
       12  1    4    4    0    0 -3.2595168907e+01 +5.2451967424e-01 -4.5055609671e+00 3.2909272806e+01 0.0000000000e+00 0.0000e+00 -1.0000e+00
      -12  1    3    3    0    0 +4.2668248689e+01 +7.8705309336e+00 +1.0481578181e+00 4.3400729696e+01 0.0000000000e+00 0.0000e+00 1.0000e+00
</event>
<event>
 8      4 +3.7482383e-04 9.11880000e+01 7.81616400e-03 1.18400000e-01
      -11 -1    0    0    0    0 +0.0000000000e+00 +0.0000000000e+00 +4.5593999997e+01 4.5594000000e+01 5.1100000000e-04 0.0000e+00 -1.0000e+00
       11 -1    0    0    0    0 -0.0000000000e+00 -0.0000000000e+00 -4.5593999997e+01 4.5594000000e+01 5.1100000000e-04 0.0000e+00 1.0000e+00
       23  2    1    2    0    0 +0.0000000000e+00 -3.5527136788e-15 +0.0000000000e+00 9.1188000000e+01 9.1188000000e+01 1.1440e-13 0.0000e+00
 -9990012  2    3    3    0    0 -1.9985498464e+01 +3.1401893626e+01 -2.2318696943e+01 4.7787270681e+01 1.9999998344e+01 3.2130e-01 0.0000e+00
      -11  1    4    4    0    0 -6.2527793659e+00 +1.6481398705e+01 -1.0701299062e+01 2.0621628329e+01 5.1100000000e-04 0.0000e+00 1.0000e+00
       11  1    4    4    0    0 -1.4036314633e+01 +1.5401926287e+01 -6.2320597617e+00 2.1750311054e+01 5.1100000000e-04 0.0000e+00 -1.0000e+00
      -12  1    4    4    0    0 +3.0359553485e-01 -4.8143136533e-01 -5.3853381193e+00 5.4153312980e+00 0.0000000000e+00 0.0000e+00 1.0000e+00
       12  1    3    3    0    0 +1.9985498464e+01 -3.1401893626e+01 +2.2318696943e+01 4.3400729319e+01 0.0000000000e+00 0.0000e+00 -1.0000e+00
</event>
<event>
 8      3 +3.7482383e-04 9.11880000e+01 7.81616400e-03 1.18400000e-01
      -11 -1    0    0    0    0 +0.0000000000e+00 +0.0000000000e+00 +4.5593999997e+01 4.5594000000e+01 5.1100000000e-04 0.0000e+00 1.0000e+00
       11 -1    0    0    0    0 -0.0000000000e+00 -0.0000000000e+00 -4.5593999997e+01 4.5594000000e+01 5.1100000000e-04 0.0000e+00 -1.0000e+00
       23  2    1    2    0    0 -3.5527136788e-15 +0.0000000000e+00 +3.5527136788e-15 9.1188000000e+01 9.1188000000e+01 2.2969e-14 0.0000e+00
  9990012  2    3    3    0    0 -2.3217724222e+01 +1.9533906603e+01 -3.1032032099e+01 4.7787271419e+01 2.0000001706e+01 3.0039e-02 0.0000e+00
      -11  1    4    4    0    0 +1.5890708993e+00 +2.4269640867e+00 -2.2762748097e+00 3.6873741703e+00 5.1100000000e-04 0.0000e+00 1.0000e+00
       11  1    4    4    0    0 -4.4674302146e+00 +1.0501416209e+01 -6.0797780837e+00 1.2930637143e+01 5.1100000000e-04 0.0000e+00 -1.0000e+00
       12  1    4    4    0    0 -2.0339364907e+01 +6.6055263077e+00 -2.2675979205e+01 3.1169260106e+01 0.0000000000e+00 0.0000e+00 -1.0000e+00
      -12  1    3    3    0    0 +2.3217724222e+01 -1.9533906603e+01 +3.1032032099e+01 4.3400728581e+01 0.0000000000e+00 0.0000e+00 1.0000e+00
</event>
<event>
 8      3 +3.7482383e-04 9.11880000e+01 7.81616400e-03 1.18400000e-01
      -11 -1    0    0    0    0 +0.0000000000e+00 +0.0000000000e+00 +4.5593999997e+01 4.5594000000e+01 5.1100000000e-04 0.0000e+00 1.0000e+00
       11 -1    0    0    0    0 -0.0000000000e+00 -0.0000000000e+00 -4.5593999997e+01 4.5594000000e+01 5.1100000000e-04 0.0000e+00 -1.0000e+00
       23  2    1    2    0    0 +0.0000000000e+00 +0.0000000000e+00 +0.0000000000e+00 9.1188000000e+01 9.1188000000e+01 3.8208e-13 0.0000e+00
  9990012  2    3    3    0    0 -4.1804834738e+01 -1.0888190283e+01 +4.1745532881e+00 4.7787265096e+01 1.9999972877e+01 9.7854e-03 0.0000e+00
      -11  1    4    4    0    0 -1.7046400088e+01 -1.2090338697e+01 +1.3353753782e+00 2.0941329314e+01 5.1100000000e-04 0.0000e+00 1.0000e+00
       11  1    4    4    0    0 -1.0287077976e+00 -8.9743088335e-01 +2.6972968894e+00 3.0230833091e+00 5.1100000000e-04 0.0000e+00 -1.0000e+00
       12  1    4    4    0    0 -2.3729726852e+01 +2.0995792974e+00 +1.4188102052e-01 2.3822852472e+01 0.0000000000e+00 0.0000e+00 -1.0000e+00
      -12  1    3    3    0    0 +4.1804834738e+01 +1.0888190283e+01 -4.1745532881e+00 4.3400734904e+01 0.0000000000e+00 0.0000e+00 1.0000e+00
</event>
<event>
 8      4 +3.7482383e-04 9.11880000e+01 7.81616400e-03 1.18400000e-01
      -11 -1    0    0    0    0 +0.0000000000e+00 +0.0000000000e+00 +4.5593999997e+01 4.5594000000e+01 5.1100000000e-04 0.0000e+00 1.0000e+00
       11 -1    0    0    0    0 -0.0000000000e+00 -0.0000000000e+00 -4.5593999997e+01 4.5594000000e+01 5.1100000000e-04 0.0000e+00 -1.0000e+00
       23  2    1    2    0    0 -7.1054273576e-15 -8.8817841970e-16 +3.5527136788e-15 9.1188000000e+01 9.1188000000e+01 2.8245e-13 0.0000e+00
 -9990012  2    3    3    0    0 -3.3406905216e+01 -2.7359532517e+00 +2.7570206342e+01 4.7787273808e+01 2.0000012598e+01 6.4175e-03 0.0000e+00
      -11  1    4    4    0    0 -7.7931794226e+00 -7.1880553851e+00 +7.8546841570e+00 1.3194614401e+01 5.1100000000e-04 0.0000e+00 1.0000e+00
       11  1    4    4    0    0 -1.2990894869e+01 +2.5336083964e+00 +3.0220574415e+00 1.3576279035e+01 5.1100000000e-04 0.0000e+00 -1.0000e+00
      -12  1    4    4    0    0 -1.2622830925e+01 +1.9184937370e+00 +1.6693464743e+01 2.1016380371e+01 0.0000000000e+00 0.0000e+00 1.0000e+00
       12  1    3    3    0    0 +3.3406905216e+01 +2.7359532517e+00 -2.7570206342e+01 4.3400726192e+01 0.0000000000e+00 0.0000e+00 -1.0000e+00
</event>
<event>
 8      4 +3.7482383e-04 9.11880000e+01 7.81616400e-03 1.18400000e-01
      -11 -1    0    0    0    0 +0.0000000000e+00 +0.0000000000e+00 +4.5593999997e+01 4.5594000000e+01 5.1100000000e-04 0.0000e+00 1.0000e+00
       11 -1    0    0    0    0 -0.0000000000e+00 -0.0000000000e+00 -4.5593999997e+01 4.5594000000e+01 5.1100000000e-04 0.0000e+00 -1.0000e+00
       23  2    1    2    0    0 +0.0000000000e+00 +0.0000000000e+00 -3.5527136788e-15 9.1188000000e+01 9.1188000000e+01 9.9019e-14 0.0000e+00
 -9990012  2    3    3    0    0 -1.4781389318e+01 -2.8350066930e+01 +2.9349741380e+01 4.7787273230e+01 2.0000009964e+01 2.6386e-02 0.0000e+00
      -11  1    4    4    0    0 -3.0697163889e-01 -8.5671983164e+00 +1.2262535614e+01 1.4961981772e+01 5.1100000000e-04 0.0000e+00 -1.0000e+00
       11  1    4    4    0    0 +4.1334982819e-01 -1.0444319135e+01 +6.2763965033e+00 1.2192120964e+01 5.1100000000e-04 0.0000e+00 1.0000e+00
      -12  1    4    4    0    0 -1.4887767508e+01 -9.3385494783e+00 +1.0810809262e+01 2.0633170494e+01 0.0000000000e+00 0.0000e+00 1.0000e+00
       12  1    3    3    0    0 +1.4781389318e+01 +2.8350066930e+01 -2.9349741380e+01 4.3400726770e+01 0.0000000000e+00 0.0000e+00 -1.0000e+00
</event>
<event>
 8      3 +3.7482383e-04 9.11880000e+01 7.81616400e-03 1.18400000e-01
      -11 -1    0    0    0    0 +0.0000000000e+00 +0.0000000000e+00 +4.5593999997e+01 4.5594000000e+01 5.1100000000e-04 0.0000e+00 1.0000e+00
       11 -1    0    0    0    0 -0.0000000000e+00 -0.0000000000e+00 -4.5593999997e+01 4.5594000000e+01 5.1100000000e-04 0.0000e+00 -1.0000e+00
       23  2    1    2    0    0 +0.0000000000e+00 +0.0000000000e+00 +7.1054273576e-15 9.1188000000e+01 9.1188000000e+01 8.7886e-14 0.0000e+00
  9990012  2    3    3    0    0 +1.4876271556e+01 +1.0701167805e+00 -4.0757507313e+01 4.7787274111e+01 2.0000013982e+01 7.0011e-02 0.0000e+00
      -11  1    4    4    0    0 +1.2562493793e+01 +6.0634095562e+00 -1.9899330169e+01 2.4301533432e+01 5.1100000000e-04 0.0000e+00 1.0000e+00
       11  1    4    4    0    0 +5.1869602121e+00 -2.5061926101e+00 -6.7464684765e+00 8.8713242983e+00 5.1100000000e-04 0.0000e+00 -1.0000e+00
       12  1    4    4    0    0 -2.8731824491e+00 -2.4871001656e+00 -1.4111708668e+01 1.4614416380e+01 0.0000000000e+00 0.0000e+00 -1.0000e+00
      -12  1    3    3    0    0 -1.4876271556e+01 -1.0701167805e+00 +4.0757507313e+01 4.3400725889e+01 0.0000000000e+00 0.0000e+00 1.0000e+00
</event>
<event>
 8      3 +3.7482383e-04 9.11880000e+01 7.81616400e-03 1.18400000e-01
      -11 -1    0    0    0    0 +0.0000000000e+00 +0.0000000000e+00 +4.5593999997e+01 4.5594000000e+01 5.1100000000e-04 0.0000e+00 1.0000e+00
       11 -1    0    0    0    0 -0.0000000000e+00 -0.0000000000e+00 -4.5593999997e+01 4.5594000000e+01 5.1100000000e-04 0.0000e+00 -1.0000e+00
       23  2    1    2    0    0 +8.8817841970e-16 +0.0000000000e+00 +0.0000000000e+00 9.1188000000e+01 9.1188000000e+01 7.8199e-15 0.0000e+00
  9990012  2    3    3    0    0 +7.2360566378e+00 -3.2845423820e+01 -2.7430658964e+01 4.7787269214e+01 1.9999991652e+01 6.8126e-01 0.0000e+00
      -11  1    4    4    0    0 +3.1788538745e+00 -1.2306702203e+00 -4.4529757864e-01 3.4377247332e+00 5.1100000000e-04 0.0000e+00 1.0000e+00
       11  1    4    4    0    0 -4.7762835096e+00 -1.8287008110e+01 -1.1696190086e+01 2.2226749933e+01 5.1100000000e-04 0.0000e+00 -1.0000e+00
       12  1    4    4    0    0 +8.8334862729e+00 -1.3327745490e+01 -1.5289171299e+01 2.2122794547e+01 0.0000000000e+00 0.0000e+00 -1.0000e+00
      -12  1    3    3    0    0 -7.2360566378e+00 +3.2845423820e+01 +2.7430658964e+01 4.3400730786e+01 0.0000000000e+00 0.0000e+00 1.0000e+00
</event>
<event>
 8      4 +3.7482383e-04 9.11880000e+01 7.81616400e-03 1.18400000e-01
      -11 -1    0    0    0    0 +0.0000000000e+00 +0.0000000000e+00 +4.5593999997e+01 4.5594000000e+01 5.1100000000e-04 0.0000e+00 -1.0000e+00
       11 -1    0    0    0    0 -0.0000000000e+00 -0.0000000000e+00 -4.5593999997e+01 4.5594000000e+01 5.1100000000e-04 0.0000e+00 1.0000e+00
       23  2    1    2    0    0 +8.8817841970e-16 +0.0000000000e+00 +0.0000000000e+00 9.1188000000e+01 9.1188000000e+01 1.3781e-14 0.0000e+00
 -9990012  2    3    3    0    0 +7.0054149805e+00 -2.9015336797e+00 -4.2733226809e+01 4.7787269473e+01 1.9999992836e+01 4.7106e-01 0.0000e+00
      -11  1    4    4    0    0 -2.6495435643e+00 +2.0784281689e+00 -1.0914018191e+01 1.1421722203e+01 5.1100000000e-04 0.0000e+00 1.0000e+00
       11  1    4    4    0    0 +7.5180989476e+00 +3.7116169056e+00 -1.2225251115e+01 1.4824124829e+01 5.1100000000e-04 0.0000e+00 -1.0000e+00
      -12  1    4    4    0    0 +2.1368595973e+00 -8.6915787542e+00 -1.9593957503e+01 2.1541422441e+01 0.0000000000e+00 0.0000e+00 1.0000e+00
       12  1    3    3    0    0 -7.0054149805e+00 +2.9015336797e+00 +4.2733226809e+01 4.3400730527e+01 0.0000000000e+00 0.0000e+00 -1.0000e+00
</event>
<event>
 8      3 +3.7482383e-04 9.11880000e+01 7.81616400e-03 1.18400000e-01
      -11 -1    0    0    0    0 +0.0000000000e+00 +0.0000000000e+00 +4.5593999997e+01 4.5594000000e+01 5.1100000000e-04 0.0000e+00 1.0000e+00
       11 -1    0    0    0    0 -0.0000000000e+00 -0.0000000000e+00 -4.5593999997e+01 4.5594000000e+01 5.1100000000e-04 0.0000e+00 -1.0000e+00
       23  2    1    2    0    0 +3.5527136788e-15 +1.4210854715e-14 +3.5527136788e-15 9.1188000000e+01 9.1188000000e+01 4.7860e-14 0.0000e+00
  9990012  2    3    3    0    0 -2.2771850283e+01 -3.4210249300e+01 -1.3954392977e+01 4.7787269524e+01 1.9999993067e+01 1.2241e-01 0.0000e+00
      -11  1    4    4    0    0 -7.8932032766e+00 -3.8747818521e+00 -4.3703591871e+00 9.8191971185e+00 5.1100000000e-04 0.0000e+00 -1.0000e+00
       11  1    4    4    0    0 +8.0146916219e-01 +9.0485136874e-01 -1.7820860032e+00 2.1533554285e+00 5.1100000000e-04 0.0000e+00 1.0000e+00
       12  1    4    4    0    0 -1.5680116169e+01 -3.1240318817e+01 -7.8019477867e+00 3.5814716977e+01 0.0000000000e+00 0.0000e+00 -1.0000e+00
      -12  1    3    3    0    0 +2.2771850283e+01 +3.4210249300e+01 +1.3954392977e+01 4.3400730476e+01 0.0000000000e+00 0.0000e+00 1.0000e+00
</event>
<event>
 8      4 +3.7482383e-04 9.11880000e+01 7.81616400e-03 1.18400000e-01
      -11 -1    0    0    0    0 +0.0000000000e+00 +0.0000000000e+00 +4.5593999997e+01 4.5594000000e+01 5.1100000000e-04 0.0000e+00 -1.0000e+00
       11 -1    0    0    0    0 -0.0000000000e+00 -0.0000000000e+00 -4.5593999997e+01 4.5594000000e+01 5.1100000000e-04 0.0000e+00 1.0000e+00
       23  2    1    2    0    0 +1.7763568394e-15 -7.1054273576e-15 -3.5527136788e-15 9.1188000000e+01 9.1188000000e+01 1.8504e-14 0.0000e+00
 -9990012  2    3    3    0    0 +1.4906539077e+01 -2.6679128508e+01 -3.0816343178e+01 4.7787218762e+01 1.9999761623e+01 2.3379e-02 0.0000e+00
      -11  1    4    4    0    0 +3.2802637964e+00 +1.8147109185e+00 -2.3543607777e+00 4.4267732294e+00 5.1100000000e-04 0.0000e+00 1.0000e+00
       11  1    4    4    0    0 +2.5972202369e+00 -8.4367601940e+00 -2.1875704533e+00 9.0945005514e+00 5.1100000000e-04 0.0000e+00 -1.0000e+00
      -12  1    4    4    0    0 +9.0290550441e+00 -2.0057079232e+01 -2.6274411947e+01 3.4265944981e+01 0.0000000000e+00 0.0000e+00 1.0000e+00
       12  1    3    3    0    0 -1.4906539077e+01 +2.6679128508e+01 +3.0816343178e+01 4.3400781238e+01 0.0000000000e+00 0.0000e+00 -1.0000e+00
</event>
<event>
 8      3 +3.7482383e-04 9.11880000e+01 7.81616400e-03 1.18400000e-01
      -11 -1    0    0    0    0 +0.0000000000e+00 +0.0000000000e+00 +4.5593999997e+01 4.5594000000e+01 5.1100000000e-04 0.0000e+00 1.0000e+00
       11 -1    0    0    0    0 -0.0000000000e+00 -0.0000000000e+00 -4.5593999997e+01 4.5594000000e+01 5.1100000000e-04 0.0000e+00 -1.0000e+00
       23  2    1    2    0    0 +0.0000000000e+00 -1.7763568394e-15 +0.0000000000e+00 9.1188000000e+01 9.1188000000e+01 1.3168e-13 0.0000e+00
  9990012  2    3    3    0    0 +4.1492845688e+01 +1.1349986361e+01 +5.7571587249e+00 4.7787270625e+01 1.9999998090e+01 3.1539e-02 0.0000e+00
      -11  1    4    4    0    0 -2.2992610613e-01 -1.5915787238e+00 +5.7135532509e-01 1.7065860708e+00 5.1100000000e-04 0.0000e+00 1.0000e+00
       11  1    4    4    0    0 +1.9216993650e+01 +1.0455652001e+01 -2.8333082576e+00 2.2059944236e+01 5.1100000000e-04 0.0000e+00 -1.0000e+00
       12  1    4    4    0    0 +2.2505778144e+01 +2.4859130831e+00 +8.0191116575e+00 2.4020740319e+01 0.0000000000e+00 0.0000e+00 -1.0000e+00
      -12  1    3    3    0    0 -4.1492845688e+01 -1.1349986361e+01 -5.7571587249e+00 4.3400729375e+01 0.0000000000e+00 0.0000e+00 1.0000e+00
</event>
<event>
 8      4 +3.7482383e-04 9.11880000e+01 7.81616400e-03 1.18400000e-01
      -11 -1    0    0    0    0 +0.0000000000e+00 +0.0000000000e+00 +4.5593999997e+01 4.5594000000e+01 5.1100000000e-04 0.0000e+00 -1.0000e+00
       11 -1    0    0    0    0 -0.0000000000e+00 -0.0000000000e+00 -4.5593999997e+01 4.5594000000e+01 5.1100000000e-04 0.0000e+00 1.0000e+00
       23  2    1    2    0    0 -1.7763568394e-15 +0.0000000000e+00 +7.1054273576e-15 9.1188000000e+01 9.1188000000e+01 6.6409e-14 0.0000e+00
 -9990012  2    3    3    0    0 +3.7530484788e+00 +1.1458584595e+01 -4.1692189977e+01 4.7787271447e+01 2.0000001836e+01 8.9831e-01 0.0000e+00
      -11  1    4    4    0    0 +1.4140414911e+00 +5.4024151693e+00 -6.5664795157e+00 8.6199916758e+00 5.1100000000e-04 0.0000e+00 1.0000e+00
       11  1    4    4    0    0 +5.5324753104e+00 -1.9304557197e+00 -2.5897140703e+01 2.6551776574e+01 5.1100000000e-04 0.0000e+00 -1.0000e+00
      -12  1    4    4    0    0 -3.1934683228e+00 +7.9866251459e+00 -9.2285697581e+00 1.2615503198e+01 0.0000000000e+00 0.0000e+00 1.0000e+00
       12  1    3    3    0    0 -3.7530484788e+00 -1.1458584595e+01 +4.1692189977e+01 4.3400728553e+01 0.0000000000e+00 0.0000e+00 -1.0000e+00
</event>
<event>
 8      3 +3.7482383e-04 9.11880000e+01 7.81616400e-03 1.18400000e-01
      -11 -1    0    0    0    0 +0.0000000000e+00 +0.0000000000e+00 +4.5593999997e+01 4.5594000000e+01 5.1100000000e-04 0.0000e+00 -1.0000e+00
       11 -1    0    0    0    0 -0.0000000000e+00 -0.0000000000e+00 -4.5593999997e+01 4.5594000000e+01 5.1100000000e-04 0.0000e+00 1.0000e+00
       23  2    1    2    0    0 +0.0000000000e+00 +8.8817841970e-16 +0.0000000000e+00 9.1188000000e+01 9.1188000000e+01 5.3675e-14 0.0000e+00
  9990012  2    3    3    0    0 -3.8981950730e+01 +5.6702252247e+00 +1.8217564259e+01 4.7787267467e+01 1.9999983691e+01 8.5556e-02 0.0000e+00
      -11  1    4    4    0    0 -1.5821559521e+00 +5.7824890806e+00 +5.3601971972e-01 6.0189463218e+00 5.1100000000e-04 0.0000e+00 1.0000e+00
       11  1    4    4    0    0 -4.3659529700e-01 -6.3832120134e-01 -3.7342557873e-02 7.7425069402e-01 5.1100000000e-04 0.0000e+00 -1.0000e+00
       12  1    4    4    0    0 -3.6963199481e+01 +5.2605734543e-01 +1.7718887097e+01 4.0994070452e+01 0.0000000000e+00 0.0000e+00 -1.0000e+00
      -12  1    3    3    0    0 +3.8981950730e+01 -5.6702252247e+00 -1.8217564259e+01 4.3400732533e+01 0.0000000000e+00 0.0000e+00 1.0000e+00
</event>
<event>
 8      4 +3.7482383e-04 9.11880000e+01 7.81616400e-03 1.18400000e-01
      -11 -1    0    0    0    0 +0.0000000000e+00 +0.0000000000e+00 +4.5593999997e+01 4.5594000000e+01 5.1100000000e-04 0.0000e+00 -1.0000e+00
       11 -1    0    0    0    0 -0.0000000000e+00 -0.0000000000e+00 -4.5593999997e+01 4.5594000000e+01 5.1100000000e-04 0.0000e+00 1.0000e+00
       23  2    1    2    0    0 +0.0000000000e+00 +0.0000000000e+00 -8.8817841970e-16 9.1188000000e+01 9.1188000000e+01 1.3303e-14 0.0000e+00
 -9990012  2    3    3    0    0 -2.1744795220e+01 +3.6970356448e+01 +6.6317408518e+00 4.7787270032e+01 1.9999995382e+01 8.2186e-02 0.0000e+00
      -11  1    4    4    0    0 -1.9375995532e+01 +1.7802984658e+01 +6.8001043948e+00 2.7177506980e+01 5.1100000000e-04 0.0000e+00 1.0000e+00
       11  1    4    4    0    0 +1.5850819285e-01 +5.7677370794e+00 -3.2608481927e+00 6.6275973823e+00 5.1100000000e-04 0.0000e+00 -1.0000e+00
      -12  1    4    4    0    0 -2.5273078804e+00 +1.3399634711e+01 +3.0924846497e+00 1.3982165669e+01 0.0000000000e+00 0.0000e+00 1.0000e+00
       12  1    3    3    0    0 +2.1744795220e+01 -3.6970356448e+01 -6.6317408518e+00 4.3400729968e+01 0.0000000000e+00 0.0000e+00 -1.0000e+00
</event>
<event>
 8      4 +3.7482383e-04 9.11880000e+01 7.81616400e-03 1.18400000e-01
      -11 -1    0    0    0    0 +0.0000000000e+00 +0.0000000000e+00 +4.5593999997e+01 4.5594000000e+01 5.1100000000e-04 0.0000e+00 1.0000e+00
       11 -1    0    0    0    0 -0.0000000000e+00 -0.0000000000e+00 -4.5593999997e+01 4.5594000000e+01 5.1100000000e-04 0.0000e+00 -1.0000e+00
       23  2    1    2    0    0 -1.7763568394e-15 +7.1054273576e-15 +8.8817841970e-16 9.1188000000e+01 9.1188000000e+01 2.7287e-14 0.0000e+00
 -9990012  2    3    3    0    0 -1.0909839565e+01 +4.1353260916e+01 +7.3828426055e+00 4.7787272441e+01 2.0000006367e+01 3.0447e-01 0.0000e+00
      -11  1    4    4    0    0 -5.5785574435e+00 +6.3854689702e+00 +3.1074895643e+00 9.0305597154e+00 5.1100000000e-04 0.0000e+00 -1.0000e+00
       11  1    4    4    0    0 +5.4014220912e+00 +1.2655956758e+01 +1.6440890731e+00 1.3858269416e+01 5.1100000000e-04 0.0000e+00 1.0000e+00
      -12  1    4    4    0    0 -1.0732704212e+01 +2.2311835188e+01 +2.6312639681e+00 2.4898443310e+01 0.0000000000e+00 0.0000e+00 1.0000e+00
       12  1    3    3    0    0 +1.0909839565e+01 -4.1353260916e+01 -7.3828426055e+00 4.3400727559e+01 0.0000000000e+00 0.0000e+00 -1.0000e+00
</event>
<event>
 8      3 +3.7482383e-04 9.11880000e+01 7.81616400e-03 1.18400000e-01
      -11 -1    0    0    0    0 +0.0000000000e+00 +0.0000000000e+00 +4.5593999997e+01 4.5594000000e+01 5.1100000000e-04 0.0000e+00 -1.0000e+00
       11 -1    0    0    0    0 -0.0000000000e+00 -0.0000000000e+00 -4.5593999997e+01 4.5594000000e+01 5.1100000000e-04 0.0000e+00 1.0000e+00
       23  2    1    2    0    0 +8.8817841970e-16 +1.7763568394e-15 +0.0000000000e+00 9.1188000000e+01 9.1188000000e+01 3.0667e-14 0.0000e+00
  9990012  2    3    3    0    0 -6.6336522596e+00 -7.5236859630e+00 +4.2225717404e+01 4.7787281077e+01 2.0000045744e+01 2.3957e-01 0.0000e+00
      -11  1    4    4    0    0 +2.9664302976e+00 -6.4311124157e+00 +2.2860948924e+01 2.3932862378e+01 5.1100000000e-04 0.0000e+00 1.0000e+00
       11  1    4    4    0    0 -6.9929516220e+00 +2.7251158352e+00 +5.6868384112e+00 9.4163559873e+00 5.1100000000e-04 0.0000e+00 -1.0000e+00
       12  1    4    4    0    0 -2.6071309352e+00 -3.8176893824e+00 +1.3677930068e+01 1.4438062712e+01 0.0000000000e+00 0.0000e+00 -1.0000e+00
      -12  1    3    3    0    0 +6.6336522596e+00 +7.5236859630e+00 -4.2225717404e+01 4.3400718923e+01 0.0000000000e+00 0.0000e+00 1.0000e+00
</event>
<event>
 8      3 +3.7482383e-04 9.11880000e+01 7.81616400e-03 1.18400000e-01
      -11 -1    0    0    0    0 +0.0000000000e+00 +0.0000000000e+00 +4.5593999997e+01 4.5594000000e+01 5.1100000000e-04 0.0000e+00 1.0000e+00
       11 -1    0    0    0    0 -0.0000000000e+00 -0.0000000000e+00 -4.5593999997e+01 4.5594000000e+01 5.1100000000e-04 0.0000e+00 -1.0000e+00
       23  2    1    2    0    0 +0.0000000000e+00 +0.0000000000e+00 -7.1054273576e-15 9.1188000000e+01 9.1188000000e+01 1.3513e-13 0.0000e+00
  9990012  2    3    3    0    0 -1.2049795389e+01 -1.8579129481e+01 -3.7326153361e+01 4.7787270214e+01 1.9999996216e+01 3.8572e-02 0.0000e+00
      -11  1    4    4    0    0 -2.8434232050e+00 +2.5885838223e+00 -1.1149538938e+01 1.1793983234e+01 5.1100000000e-04 0.0000e+00 1.0000e+00
       11  1    4    4    0    0 -1.0175849994e+01 -1.4942195438e+01 -2.1805947119e+01 2.8325191219e+01 5.1100000000e-04 0.0000e+00 -1.0000e+00
       12  1    4    4    0    0 +9.6947781024e-01 -6.2255178656e+00 -4.3706673040e+00 7.6680957611e+00 0.0000000000e+00 0.0000e+00 -1.0000e+00
      -12  1    3    3    0    0 +1.2049795389e+01 +1.8579129481e+01 +3.7326153361e+01 4.3400729786e+01 0.0000000000e+00 0.0000e+00 1.0000e+00
</event>
<event>
 8      4 +3.7482383e-04 9.11880000e+01 7.81616400e-03 1.18400000e-01
      -11 -1    0    0    0    0 +0.0000000000e+00 +0.0000000000e+00 +4.5593999997e+01 4.5594000000e+01 5.1100000000e-04 0.0000e+00 1.0000e+00
       11 -1    0    0    0    0 -0.0000000000e+00 -0.0000000000e+00 -4.5593999997e+01 4.5594000000e+01 5.1100000000e-04 0.0000e+00 -1.0000e+00
       23  2    1    2    0    0 +0.0000000000e+00 -7.7715611724e-16 +0.0000000000e+00 9.1188000000e+01 9.1188000000e+01 1.1271e-14 0.0000e+00
 -9990012  2    3    3    0    0 -4.3310183429e+01 +9.4299459421e-01 +2.6385573696e+00 4.7787271752e+01 2.0000003226e+01 6.1458e-01 0.0000e+00
      -11  1    4    4    0    0 -3.7882159990e+01 +4.1742778994e+00 +1.1994261250e+00 3.8130319494e+01 5.1100000000e-04 0.0000e+00 1.0000e+00
       11  1    4    4    0    0 +4.7608634301e-01 +7.3594705582e-01 +2.3288514759e+00 2.4883379459e+00 5.1100000000e-04 0.0000e+00 -1.0000e+00
      -12  1    4    4    0    0 -5.9041097825e+00 -3.9672303610e+00 -8.8972023124e-01 7.1686143117e+00 0.0000000000e+00 0.0000e+00 1.0000e+00
       12  1    3    3    0    0 +4.3310183429e+01 -9.4299459421e-01 -2.6385573696e+00 4.3400728248e+01 0.0000000000e+00 0.0000e+00 -1.0000e+00
</event>
<event>
 8      3 +3.7482383e-04 9.11880000e+01 7.81616400e-03 1.18400000e-01
      -11 -1    0    0    0    0 +0.0000000000e+00 +0.0000000000e+00 +4.5593999997e+01 4.5594000000e+01 5.1100000000e-04 0.0000e+00 -1.0000e+00
       11 -1    0    0    0    0 -0.0000000000e+00 -0.0000000000e+00 -4.5593999997e+01 4.5594000000e+01 5.1100000000e-04 0.0000e+00 1.0000e+00
       23  2    1    2    0    0 +0.0000000000e+00 +0.0000000000e+00 +0.0000000000e+00 9.1188000000e+01 9.1188000000e+01 2.4360e-13 0.0000e+00
  9990012  2    3    3    0    0 +1.7972286163e+01 +1.8199835388e+01 +3.5062612093e+01 4.7787264467e+01 1.9999970009e+01 3.1298e-01 0.0000e+00
      -11  1    4    4    0    0 +1.1677027833e+01 +4.8257526247e+00 +1.1901395242e+01 1.7357536587e+01 5.1100000000e-04 0.0000e+00 1.0000e+00
       11  1    4    4    0    0 +6.3321664948e+00 +1.3472889879e+01 +1.1611871220e+01 1.8879900627e+01 5.1100000000e-04 0.0000e+00 -1.0000e+00
       12  1    4    4    0    0 -3.6908164815e-02 -9.8807115529e-02 +1.1549345631e+01 1.1549827252e+01 0.0000000000e+00 0.0000e+00 -1.0000e+00
      -12  1    3    3    0    0 -1.7972286163e+01 -1.8199835388e+01 -3.5062612093e+01 4.3400735533e+01 0.0000000000e+00 0.0000e+00 1.0000e+00
</event>
<event>
 8      3 +3.7482383e-04 9.11880000e+01 7.81616400e-03 1.18400000e-01
      -11 -1    0    0    0    0 +0.0000000000e+00 +0.0000000000e+00 +4.5593999997e+01 4.5594000000e+01 5.1100000000e-04 0.0000e+00 1.0000e+00
       11 -1    0    0    0    0 -0.0000000000e+00 -0.0000000000e+00 -4.5593999997e+01 4.5594000000e+01 5.1100000000e-04 0.0000e+00 -1.0000e+00
       23  2    1    2    0    0 +0.0000000000e+00 +3.5527136788e-15 +7.1054273576e-15 9.1188000000e+01 9.1188000000e+01 1.0710e-14 0.0000e+00
  9990012  2    3    3    0    0 -2.2456506409e+01 -2.4255050440e+01 -2.8125102099e+01 4.7787268209e+01 1.9999987071e+01 3.4103e-02 0.0000e+00
      -11  1    4    4    0    0 -8.2393475573e-01 +1.1776798543e+00 -1.9708437809e+00 2.4392670602e+00 5.1100000000e-04 0.0000e+00 1.0000e+00
       11  1    4    4    0    0 -8.1791570316e+00 -1.8516325856e+00 -1.1975899639e+00 8.4712085892e+00 5.1100000000e-04 0.0000e+00 -1.0000e+00
       12  1    4    4    0    0 -1.3453414621e+01 -2.3581097708e+01 -2.4956668355e+01 3.6876792559e+01 0.0000000000e+00 0.0000e+00 -1.0000e+00
      -12  1    3    3    0    0 +2.2456506409e+01 +2.4255050440e+01 +2.8125102099e+01 4.3400731791e+01 0.0000000000e+00 0.0000e+00 1.0000e+00
</event>
<event>
 8      4 +3.7482383e-04 9.11880000e+01 7.81616400e-03 1.18400000e-01
      -11 -1    0    0    0    0 +0.0000000000e+00 +0.0000000000e+00 +4.5593999997e+01 4.5594000000e+01 5.1100000000e-04 0.0000e+00 1.0000e+00
       11 -1    0    0    0    0 -0.0000000000e+00 -0.0000000000e+00 -4.5593999997e+01 4.5594000000e+01 5.1100000000e-04 0.0000e+00 -1.0000e+00
       23  2    1    2    0    0 +1.3877787808e-17 +0.0000000000e+00 -3.5527136788e-15 9.1188000000e+01 9.1188000000e+01 2.3625e-14 0.0000e+00
 -9990012  2    3    3    0    0 -8.9699184267e-02 +3.2268379658e+01 +2.9023553881e+01 4.7787273605e+01 2.0000011676e+01 6.6155e-02 0.0000e+00
      -11  1    4    4    0    0 +5.5823429955e-01 +2.5458251216e+01 +2.8594090894e+01 3.8289113529e+01 5.1100000000e-04 0.0000e+00 1.0000e+00
       11  1    4    4    0    0 -3.5196191045e-01 +6.8894700668e+00 -1.8946722090e+00 7.1539120786e+00 5.1100000000e-04 0.0000e+00 -1.0000e+00
      -12  1    4    4    0    0 -2.9597157337e-01 -7.9341624905e-02 +2.3241351964e+00 2.3442479982e+00 0.0000000000e+00 0.0000e+00 1.0000e+00
       12  1    3    3    0    0 +8.9699184267e-02 -3.2268379658e+01 -2.9023553881e+01 4.3400726395e+01 0.0000000000e+00 0.0000e+00 -1.0000e+00
</event>
<event>
 8      3 +3.7482383e-04 9.11880000e+01 7.81616400e-03 1.18400000e-01
      -11 -1    0    0    0    0 +0.0000000000e+00 +0.0000000000e+00 +4.5593999997e+01 4.5594000000e+01 5.1100000000e-04 0.0000e+00 1.0000e+00
       11 -1    0    0    0    0 -0.0000000000e+00 -0.0000000000e+00 -4.5593999997e+01 4.5594000000e+01 5.1100000000e-04 0.0000e+00 -1.0000e+00
       23  2    1    2    0    0 +0.0000000000e+00 -1.7763568394e-15 +1.7763568394e-15 9.1188000000e+01 9.1188000000e+01 5.5042e-14 0.0000e+00
  9990012  2    3    3    0    0 -4.0453410891e+01 +1.0941516907e+01 -1.1288402131e+01 4.7787271117e+01 2.0000000329e+01 3.7207e-01 0.0000e+00
      -11  1    4    4    0    0 -5.2382722113e+00 -3.0495850363e+00 -5.6383250437e-01 6.0874766535e+00 5.1100000000e-04 0.0000e+00 1.0000e+00
       11  1    4    4    0    0 -1.2808429268e+01 +9.8414284159e+00 -9.8004423498e+00 1.8893338617e+01 5.1100000000e-04 0.0000e+00 -1.0000e+00
       12  1    4    4    0    0 -2.2406709411e+01 +4.1496735276e+00 -9.2412727669e-01 2.2806455846e+01 0.0000000000e+00 0.0000e+00 -1.0000e+00
      -12  1    3    3    0    0 +4.0453410891e+01 -1.0941516907e+01 +1.1288402131e+01 4.3400728883e+01 0.0000000000e+00 0.0000e+00 1.0000e+00
</event>
<event>
 8      4 +3.7482383e-04 9.11880000e+01 7.81616400e-03 1.18400000e-01
      -11 -1    0    0    0    0 +0.0000000000e+00 +0.0000000000e+00 +4.5593999997e+01 4.5594000000e+01 5.1100000000e-04 0.0000e+00 1.0000e+00
       11 -1    0    0    0    0 -0.0000000000e+00 -0.0000000000e+00 -4.5593999997e+01 4.5594000000e+01 5.1100000000e-04 0.0000e+00 -1.0000e+00
       23  2    1    2    0    0 +7.1054273576e-15 +0.0000000000e+00 +0.0000000000e+00 9.1188000000e+01 9.1188000000e+01 1.2133e-14 0.0000e+00
 -9990012  2    3    3    0    0 +3.7591803139e+01 -2.0833791741e+01 -6.0359375468e+00 4.7787273236e+01 2.0000009992e+01 2.9438e-01 0.0000e+00
      -11  1    4    4    0    0 +2.1802567690e+01 -1.1896819017e+01 +6.3480039330e+00 2.5635588833e+01 5.1100000000e-04 0.0000e+00 1.0000e+00
       11  1    4    4    0    0 +5.2232002593e+00 -4.5271438934e+00 -4.9193870035e+00 8.4839390339e+00 5.1100000000e-04 0.0000e+00 -1.0000e+00
      -12  1    4    4    0    0 +1.0566035190e+01 -4.4098288302e+00 -7.4645544763e+00 1.3667745370e+01 0.0000000000e+00 0.0000e+00 1.0000e+00
       12  1    3    3    0    0 -3.7591803139e+01 +2.0833791741e+01 +6.0359375468e+00 4.3400726764e+01 0.0000000000e+00 0.0000e+00 -1.0000e+00
</event>
<event>
 8      4 +3.7482383e-04 9.11880000e+01 7.81616400e-03 1.18400000e-01
      -11 -1    0    0    0    0 +0.0000000000e+00 +0.0000000000e+00 +4.5593999997e+01 4.5594000000e+01 5.1100000000e-04 0.0000e+00 1.0000e+00
       11 -1    0    0    0    0 -0.0000000000e+00 -0.0000000000e+00 -4.5593999997e+01 4.5594000000e+01 5.1100000000e-04 0.0000e+00 -1.0000e+00
       23  2    1    2    0    0 +0.0000000000e+00 +1.7763568394e-15 -7.1054273576e-15 9.1188000000e+01 9.1188000000e+01 1.4014e-14 0.0000e+00
 -9990012  2    3    3    0    0 +1.2807762470e+01 -1.2400635727e+01 +3.9570301675e+01 4.7787270506e+01 1.9999997547e+01 4.7540e-01 0.0000e+00
      -11  1    4    4    0    0 +5.0092146729e+00 -7.5148065643e-01 +6.9879016739e+00 8.6306271430e+00 5.1100000000e-04 0.0000e+00 1.0000e+00
       11  1    4    4    0    0 +1.0789928188e+01 -5.6424183101e+00 +1.0503453324e+01 1.6080484032e+01 5.1100000000e-04 0.0000e+00 -1.0000e+00
      -12  1    4    4    0    0 -2.9913803911e+00 -6.0067367609e+00 +2.2078946677e+01 2.3076159332e+01 0.0000000000e+00 0.0000e+00 1.0000e+00
       12  1    3    3    0    0 -1.2807762470e+01 +1.2400635727e+01 -3.9570301675e+01 4.3400729494e+01 0.0000000000e+00 0.0000e+00 -1.0000e+00
</event>
<event>
 8      3 +3.7482383e-04 9.11880000e+01 7.81616400e-03 1.18400000e-01
      -11 -1    0    0    0    0 +0.0000000000e+00 +0.0000000000e+00 +4.5593999997e+01 4.5594000000e+01 5.1100000000e-04 0.0000e+00 1.0000e+00
       11 -1    0    0    0    0 -0.0000000000e+00 -0.0000000000e+00 -4.5593999997e+01 4.5594000000e+01 5.1100000000e-04 0.0000e+00 -1.0000e+00
       23  2    1    2    0    0 +0.0000000000e+00 +0.0000000000e+00 +0.0000000000e+00 9.1188000000e+01 9.1188000000e+01 1.4128e-13 0.0000e+00
  9990012  2    3    3    0    0 +8.9953867774e+00 +1.1004702429e+01 -4.1007351739e+01 4.7787270104e+01 1.9999995713e+01 1.0239e-02 0.0000e+00
      -11  1    4    4    0    0 +4.7792332008e+00 -2.7693036052e+00 -4.4409119222e+00 7.0874403988e+00 5.1100000000e-04 0.0000e+00 1.0000e+00
       11  1    4    4    0    0 +4.4272617970e+00 +8.5245104083e-01 -1.3841216504e+01 1.4557011863e+01 5.1100000000e-04 0.0000e+00 -1.0000e+00
       12  1    4    4    0    0 -2.1110822028e-01 +1.2921554994e+01 -2.2725223313e+01 2.6142817843e+01 0.0000000000e+00 0.0000e+00 -1.0000e+00
      -12  1    3    3    0    0 -8.9953867774e+00 -1.1004702429e+01 +4.1007351739e+01 4.3400729896e+01 0.0000000000e+00 0.0000e+00 1.0000e+00
</event>
<event>
 8      4 +3.7482383e-04 9.11880000e+01 7.81616400e-03 1.18400000e-01
      -11 -1    0    0    0    0 +0.0000000000e+00 +0.0000000000e+00 +4.5593999997e+01 4.5594000000e+01 5.1100000000e-04 0.0000e+00 1.0000e+00
       11 -1    0    0    0    0 -0.0000000000e+00 -0.0000000000e+00 -4.5593999997e+01 4.5594000000e+01 5.1100000000e-04 0.0000e+00 -1.0000e+00
       23  2    1    2    0    0 -7.1054273576e-15 -3.5527136788e-15 +8.8817841970e-16 9.1188000000e+01 9.1188000000e+01 7.0809e-15 0.0000e+00
 -9990012  2    3    3    0    0 -3.7023164504e+01 -2.1920439397e+01 -5.6923611893e+00 4.7787270177e+01 1.9999996045e+01 1.6541e-01 0.0000e+00
      -11  1    4    4    0    0 +1.7406474620e-01 -1.4656386485e+00 -3.2230657904e+00 3.5449327969e+00 5.1100000000e-04 0.0000e+00 1.0000e+00
       11  1    4    4    0    0 -2.4063871765e+01 -9.7359028977e+00 -6.6194206626e+00 2.6789446798e+01 5.1100000000e-04 0.0000e+00 -1.0000e+00
      -12  1    4    4    0    0 -1.3133357485e+01 -1.0718897851e+01 +4.1501252638e+00 1.7452890582e+01 0.0000000000e+00 0.0000e+00 1.0000e+00
       12  1    3    3    0    0 +3.7023164504e+01 +2.1920439397e+01 +5.6923611893e+00 4.3400729823e+01 0.0000000000e+00 0.0000e+00 -1.0000e+00
</event>
<event>
 8      4 +3.7482383e-04 9.11880000e+01 7.81616400e-03 1.18400000e-01
      -11 -1    0    0    0    0 +0.0000000000e+00 +0.0000000000e+00 +4.5593999997e+01 4.5594000000e+01 5.1100000000e-04 0.0000e+00 -1.0000e+00
       11 -1    0    0    0    0 -0.0000000000e+00 -0.0000000000e+00 -4.5593999997e+01 4.5594000000e+01 5.1100000000e-04 0.0000e+00 1.0000e+00
       23  2    1    2    0    0 -3.5527136788e-15 +0.0000000000e+00 +0.0000000000e+00 9.1188000000e+01 9.1188000000e+01 4.6816e-14 0.0000e+00
 -9990012  2    3    3    0    0 +1.6360881928e+01 -3.5501836225e+01 -1.8856435184e+01 4.7787262902e+01 1.9999962877e+01 2.1186e-01 0.0000e+00
      -11  1    4    4    0    0 +1.2071081481e+01 -1.8605467161e+01 -7.0483958948e+00 2.3271319287e+01 5.1100000000e-04 0.0000e+00 1.0000e+00
       11  1    4    4    0    0 -1.9419613320e+00 -1.4014339002e+01 -1.0262198963e+01 1.7478147478e+01 5.1100000000e-04 0.0000e+00 -1.0000e+00
      -12  1    4    4    0    0 +6.2317617794e+00 -2.8820300618e+00 -1.5458403261e+00 7.0377961370e+00 0.0000000000e+00 0.0000e+00 1.0000e+00
       12  1    3    3    0    0 -1.6360881928e+01 +3.5501836225e+01 +1.8856435184e+01 4.3400737098e+01 0.0000000000e+00 0.0000e+00 -1.0000e+00
</event>
<event>
 8      4 +3.7482383e-04 9.11880000e+01 7.81616400e-03 1.18400000e-01
      -11 -1    0    0    0    0 +0.0000000000e+00 +0.0000000000e+00 +4.5593999997e+01 4.5594000000e+01 5.1100000000e-04 0.0000e+00 1.0000e+00
       11 -1    0    0    0    0 -0.0000000000e+00 -0.0000000000e+00 -4.5593999997e+01 4.5594000000e+01 5.1100000000e-04 0.0000e+00 -1.0000e+00
       23  2    1    2    0    0 -3.5527136788e-15 -7.1054273576e-15 +0.0000000000e+00 9.1188000000e+01 9.1188000000e+01 8.6727e-14 0.0000e+00
 -9990012  2    3    3    0    0 -1.6741023339e+01 -3.3140636810e+01 +2.2473534402e+01 4.7787269371e+01 1.9999992370e+01 8.2246e-01 0.0000e+00
      -11  1    4    4    0    0 +1.2843458765e+00 -3.3520809384e+00 -3.8985913349e-01 3.6108144999e+00 5.1100000000e-04 0.0000e+00 1.0000e+00
       11  1    4    4    0    0 -9.7277458287e+00 -6.9458636239e+00 +1.3754286021e+01 1.8222361115e+01 5.1100000000e-04 0.0000e+00 -1.0000e+00
      -12  1    4    4    0    0 -8.2976233864e+00 -2.2842692248e+01 +9.1091075147e+00 2.5954093756e+01 0.0000000000e+00 0.0000e+00 1.0000e+00
       12  1    3    3    0    0 +1.6741023339e+01 +3.3140636810e+01 -2.2473534402e+01 4.3400730629e+01 0.0000000000e+00 0.0000e+00 -1.0000e+00
</event>
<event>
 8      4 +3.7482383e-04 9.11880000e+01 7.81616400e-03 1.18400000e-01
      -11 -1    0    0    0    0 +0.0000000000e+00 +0.0000000000e+00 +4.5593999997e+01 4.5594000000e+01 5.1100000000e-04 0.0000e+00 -1.0000e+00
       11 -1    0    0    0    0 -0.0000000000e+00 -0.0000000000e+00 -4.5593999997e+01 4.5594000000e+01 5.1100000000e-04 0.0000e+00 1.0000e+00
       23  2    1    2    0    0 +0.0000000000e+00 +0.0000000000e+00 +0.0000000000e+00 9.1188000000e+01 9.1188000000e+01 2.5154e-14 0.0000e+00
 -9990012  2    3    3    0    0 +4.8986452370e+00 +3.6476805704e+01 -2.3001511151e+01 4.7787267348e+01 1.9999983144e+01 1.3703e-01 0.0000e+00
      -11  1    4    4    0    0 -4.1218726837e+00 +1.7495935056e+00 -4.2762190337e+00 6.1916848547e+00 5.1100000000e-04 0.0000e+00 1.0000e+00
       11  1    4    4    0    0 +9.6628460589e-01 +3.7625013543e+00 +9.9674930330e-01 4.0104403518e+00 5.1100000000e-04 0.0000e+00 -1.0000e+00
      -12  1    4    4    0    0 +8.0542333148e+00 +3.0964710844e+01 -1.9722041420e+01 3.7585142141e+01 0.0000000000e+00 0.0000e+00 1.0000e+00
       12  1    3    3    0    0 -4.8986452370e+00 -3.6476805704e+01 +2.3001511151e+01 4.3400732652e+01 0.0000000000e+00 0.0000e+00 -1.0000e+00
</event>
<event>
 8      3 +3.7482383e-04 9.11880000e+01 7.81616400e-03 1.18400000e-01
      -11 -1    0    0    0    0 +0.0000000000e+00 +0.0000000000e+00 +4.5593999997e+01 4.5594000000e+01 5.1100000000e-04 0.0000e+00 1.0000e+00
       11 -1    0    0    0    0 -0.0000000000e+00 -0.0000000000e+00 -4.5593999997e+01 4.5594000000e+01 5.1100000000e-04 0.0000e+00 -1.0000e+00
       23  2    1    2    0    0 +0.0000000000e+00 +0.0000000000e+00 -8.8817841970e-16 9.1188000000e+01 9.1188000000e+01 7.5853e-14 0.0000e+00
  9990012  2    3    3    0    0 +1.9565109475e+01 -3.8274278108e+01 -5.9924650751e+00 4.7787268312e+01 1.9999987540e+01 5.0228e-01 0.0000e+00
      -11  1    4    4    0    0 +2.0941883934e+01 -2.2907851529e+01 -6.6130331479e+00 3.1734277557e+01 5.1100000000e-04 0.0000e+00 1.0000e+00
       11  1    4    4    0    0 -2.5196981831e-01 -5.5205494388e+00 +2.3287697033e+00 5.9969261700e+00 5.1100000000e-04 0.0000e+00 -1.0000e+00
       12  1    4    4    0    0 -1.1248046407e+00 -9.8458771395e+00 -1.7082016305e+00 1.0056064585e+01 0.0000000000e+00 0.0000e+00 -1.0000e+00
      -12  1    3    3    0    0 -1.9565109475e+01 +3.8274278108e+01 +5.9924650751e+00 4.3400731688e+01 0.0000000000e+00 0.0000e+00 1.0000e+00
</event>
<event>
 8      3 +3.7482383e-04 9.11880000e+01 7.81616400e-03 1.18400000e-01
      -11 -1    0    0    0    0 +0.0000000000e+00 +0.0000000000e+00 +4.5593999997e+01 4.5594000000e+01 5.1100000000e-04 0.0000e+00 -1.0000e+00
       11 -1    0    0    0    0 -0.0000000000e+00 -0.0000000000e+00 -4.5593999997e+01 4.5594000000e+01 5.1100000000e-04 0.0000e+00 1.0000e+00
       23  2    1    2    0    0 +0.0000000000e+00 +0.0000000000e+00 +0.0000000000e+00 9.1188000000e+01 9.1188000000e+01 4.1001e-14 0.0000e+00
  9990012  2    3    3    0    0 -1.2604760777e+01 +3.7883914779e+01 +1.7016232990e+01 4.7787272144e+01 2.0000005014e+01 5.7046e-01 0.0000e+00
      -11  1    4    4    0    0 -7.0054328966e+00 +4.9482760356e+00 +1.6673726604e+00 8.7373713234e+00 5.1100000000e-04 0.0000e+00 1.0000e+00
       11  1    4    4    0    0 +2.7806173793e+00 +2.6335501042e+00 +4.2202680181e+00 5.6989544275e+00 5.1100000000e-04 0.0000e+00 -1.0000e+00
       12  1    4    4    0    0 -8.3799452593e+00 +3.0302088640e+01 +1.1128592312e+01 3.3350946393e+01 0.0000000000e+00 0.0000e+00 -1.0000e+00
      -12  1    3    3    0    0 +1.2604760777e+01 -3.7883914779e+01 -1.7016232990e+01 4.3400727856e+01 0.0000000000e+00 0.0000e+00 1.0000e+00
</event>
<event>
 8      4 +3.7482383e-04 9.11880000e+01 7.81616400e-03 1.18400000e-01
      -11 -1    0    0    0    0 +0.0000000000e+00 +0.0000000000e+00 +4.5593999997e+01 4.5594000000e+01 5.1100000000e-04 0.0000e+00 1.0000e+00
       11 -1    0    0    0    0 -0.0000000000e+00 -0.0000000000e+00 -4.5593999997e+01 4.5594000000e+01 5.1100000000e-04 0.0000e+00 -1.0000e+00
       23  2    1    2    0    0 +0.0000000000e+00 -7.1054273576e-15 +8.8817841970e-16 9.1188000000e+01 9.1188000000e+01 9.6579e-14 0.0000e+00
 -9990012  2    3    3    0    0 +1.8725217082e+01 -3.8915776432e+01 +4.3071874891e+00 4.7787271042e+01 1.9999999988e+01 2.7494e-01 0.0000e+00
      -11  1    4    4    0    0 +4.2679795999e+00 -1.7897902352e+01 -5.9787047724e+00 1.9346717279e+01 5.1100000000e-04 0.0000e+00 1.0000e+00
       11  1    4    4    0    0 +2.9580049331e+00 -5.7579324512e-01 +1.7267100501e+00 3.4731626659e+00 5.1100000000e-04 0.0000e+00 -1.0000e+00
      -12  1    4    4    0    0 +1.1499232549e+01 -2.0442080835e+01 +8.5591822114e+00 2.4967391097e+01 0.0000000000e+00 0.0000e+00 1.0000e+00
       12  1    3    3    0    0 -1.8725217082e+01 +3.8915776432e+01 -4.3071874891e+00 4.3400728958e+01 0.0000000000e+00 0.0000e+00 -1.0000e+00
</event>
<event>
 8      3 +3.7482383e-04 9.11880000e+01 7.81616400e-03 1.18400000e-01
      -11 -1    0    0    0    0 +0.0000000000e+00 +0.0000000000e+00 +4.5593999997e+01 4.5594000000e+01 5.1100000000e-04 0.0000e+00 1.0000e+00
       11 -1    0    0    0    0 -0.0000000000e+00 -0.0000000000e+00 -4.5593999997e+01 4.5594000000e+01 5.1100000000e-04 0.0000e+00 -1.0000e+00
       23  2    1    2    0    0 +0.0000000000e+00 +0.0000000000e+00 +0.0000000000e+00 9.1188000000e+01 9.1188000000e+01 9.8802e-14 0.0000e+00
  9990012  2    3    3    0    0 +4.2825401630e+01 +6.9630563589e+00 -1.0600597341e+00 4.7787275291e+01 2.0000019361e+01 1.8299e-01 0.0000e+00
      -11  1    4    4    0    0 +2.5649822386e+01 +1.0999217955e+01 +4.5480423282e+00 2.8276861094e+01 5.1100000000e-04 0.0000e+00 1.0000e+00
       11  1    4    4    0    0 +5.0998441761e+00 -9.6522214044e-01 +1.1777498373e+00 5.3223264971e+00 5.1100000000e-04 0.0000e+00 -1.0000e+00
       12  1    4    4    0    0 +1.2075735068e+01 -3.0709394554e+00 -6.7858518997e+00 1.4188087700e+01 0.0000000000e+00 0.0000e+00 -1.0000e+00
      -12  1    3    3    0    0 -4.2825401630e+01 -6.9630563589e+00 +1.0600597341e+00 4.3400724709e+01 0.0000000000e+00 0.0000e+00 1.0000e+00
</event>
<event>
 8      4 +3.7482383e-04 9.11880000e+01 7.81616400e-03 1.18400000e-01
      -11 -1    0    0    0    0 +0.0000000000e+00 +0.0000000000e+00 +4.5593999997e+01 4.5594000000e+01 5.1100000000e-04 0.0000e+00 1.0000e+00
       11 -1    0    0    0    0 -0.0000000000e+00 -0.0000000000e+00 -4.5593999997e+01 4.5594000000e+01 5.1100000000e-04 0.0000e+00 -1.0000e+00
       23  2    1    2    0    0 +0.0000000000e+00 +7.1054273576e-15 +0.0000000000e+00 9.1188000000e+01 9.1188000000e+01 1.9301e-13 0.0000e+00
 -9990012  2    3    3    0    0 -8.1374227221e+00 -2.9048381942e+01 +3.1202515746e+01 4.7787272692e+01 2.0000007513e+01 1.2651e-01 0.0000e+00
      -11  1    4    4    0    0 +6.6351826643e-01 -2.7253224055e+00 +1.2446027834e+01 1.2758183562e+01 5.1100000000e-04 0.0000e+00 1.0000e+00
       11  1    4    4    0    0 -1.7933940340e-02 -1.1387854175e+01 +3.4204178144e+00 1.1890450059e+01 5.1100000000e-04 0.0000e+00 -1.0000e+00
      -12  1    4    4    0    0 -8.7830070482e+00 -1.4935205362e+01 +1.5336070097e+01 2.3138639070e+01 0.0000000000e+00 0.0000e+00 1.0000e+00
       12  1    3    3    0    0 +8.1374227221e+00 +2.9048381942e+01 -3.1202515746e+01 4.3400727308e+01 0.0000000000e+00 0.0000e+00 -1.0000e+00
</event>
<event>
 8      4 +3.7482383e-04 9.11880000e+01 7.81616400e-03 1.18400000e-01
      -11 -1    0    0    0    0 +0.0000000000e+00 +0.0000000000e+00 +4.5593999997e+01 4.5594000000e+01 5.1100000000e-04 0.0000e+00 -1.0000e+00
       11 -1    0    0    0    0 -0.0000000000e+00 -0.0000000000e+00 -4.5593999997e+01 4.5594000000e+01 5.1100000000e-04 0.0000e+00 1.0000e+00
       23  2    1    2    0    0 +0.0000000000e+00 -1.7763568394e-15 +0.0000000000e+00 9.1188000000e+01 9.1188000000e+01 1.0583e-13 0.0000e+00
 -9990012  2    3    3    0    0 +6.6065759087e+00 -1.4722544109e+01 -4.0289241724e+01 4.7787272483e+01 2.0000006560e+01 8.3358e-02 0.0000e+00
      -11  1    4    4    0    0 +2.1352735704e+00 -9.7896592838e+00 -3.9788501717e+01 4.1030740808e+01 5.1100000000e-04 0.0000e+00 1.0000e+00
       11  1    4    4    0    0 +5.2922267483e-01 -1.1213439993e+00 +7.9509010539e-02 1.2425018907e+00 5.1100000000e-04 0.0000e+00 -1.0000e+00
      -12  1    4    4    0    0 +3.9420796635e+00 -3.8115408264e+00 -5.8024901749e-01 5.5140297847e+00 0.0000000000e+00 0.0000e+00 1.0000e+00
       12  1    3    3    0    0 -6.6065759087e+00 +1.4722544109e+01 +4.0289241724e+01 4.3400727517e+01 0.0000000000e+00 0.0000e+00 -1.0000e+00
</event>
<event>
 8      3 +3.7482383e-04 9.11880000e+01 7.81616400e-03 1.18400000e-01
      -11 -1    0    0    0    0 +0.0000000000e+00 +0.0000000000e+00 +4.5593999997e+01 4.5594000000e+01 5.1100000000e-04 0.0000e+00 1.0000e+00
       11 -1    0    0    0    0 -0.0000000000e+00 -0.0000000000e+00 -4.5593999997e+01 4.5594000000e+01 5.1100000000e-04 0.0000e+00 -1.0000e+00
       23  2    1    2    0    0 +0.0000000000e+00 +2.2204460493e-16 +0.0000000000e+00 9.1188000000e+01 9.1188000000e+01 2.1146e-14 0.0000e+00
  9990012  2    3    3    0    0 +4.1271520214e+01 -1.6823201364e+00 -1.3321203513e+01 4.7787273683e+01 2.0000012031e+01 2.0105e-01 0.0000e+00
      -11  1    4    4    0    0 +1.3148133048e+01 +4.9366548293e+00 +1.0032398193e+00 1.4080143961e+01 5.1100000000e-04 0.0000e+00 1.0000e+00
       11  1    4    4    0    0 +8.8191376329e+00 -6.2837522366e-01 -9.3974760563e+00 1.2902891168e+01 5.1100000000e-04 0.0000e+00 -1.0000e+00
       12  1    4    4    0    0 +1.9304249532e+01 -5.9905997420e+00 -4.9269672758e+00 2.0804238554e+01 0.0000000000e+00 0.0000e+00 -1.0000e+00
      -12  1    3    3    0    0 -4.1271520214e+01 +1.6823201364e+00 +1.3321203513e+01 4.3400726317e+01 0.0000000000e+00 0.0000e+00 1.0000e+00
</event>
<event>
 8      3 +3.7482383e-04 9.11880000e+01 7.81616400e-03 1.18400000e-01
      -11 -1    0    0    0    0 +0.0000000000e+00 +0.0000000000e+00 +4.5593999997e+01 4.5594000000e+01 5.1100000000e-04 0.0000e+00 -1.0000e+00
       11 -1    0    0    0    0 -0.0000000000e+00 -0.0000000000e+00 -4.5593999997e+01 4.5594000000e+01 5.1100000000e-04 0.0000e+00 1.0000e+00
       23  2    1    2    0    0 +0.0000000000e+00 +0.0000000000e+00 +0.0000000000e+00 9.1188000000e+01 9.1188000000e+01 1.1231e-13 0.0000e+00
  9990012  2    3    3    0    0 -4.0755688068e+01 +1.2040938300e+01 -8.8098080410e+00 4.7787273937e+01 2.0000013189e+01 4.6629e-01 0.0000e+00
      -11  1    4    4    0    0 -8.0830996956e+00 +3.9425743700e+00 -8.7279716411e+00 1.2532273640e+01 5.1100000000e-04 0.0000e+00 1.0000e+00
       11  1    4    4    0    0 -1.9176993861e+01 +6.1229099490e+00 +4.9270711039e+00 2.0724940283e+01 5.1100000000e-04 0.0000e+00 -1.0000e+00
       12  1    4    4    0    0 -1.3495594511e+01 +1.9754539812e+00 -5.0089075038e+00 1.4530060015e+01 0.0000000000e+00 0.0000e+00 -1.0000e+00
      -12  1    3    3    0    0 +4.0755688068e+01 -1.2040938300e+01 +8.8098080410e+00 4.3400726063e+01 0.0000000000e+00 0.0000e+00 1.0000e+00
</event>
<event>
 8      4 +3.7482383e-04 9.11880000e+01 7.81616400e-03 1.18400000e-01
      -11 -1    0    0    0    0 +0.0000000000e+00 +0.0000000000e+00 +4.5593999997e+01 4.5594000000e+01 5.1100000000e-04 0.0000e+00 1.0000e+00
       11 -1    0    0    0    0 -0.0000000000e+00 -0.0000000000e+00 -4.5593999997e+01 4.5594000000e+01 5.1100000000e-04 0.0000e+00 -1.0000e+00
       23  2    1    2    0    0 -7.1054273576e-15 +0.0000000000e+00 +4.4408920985e-16 9.1188000000e+01 9.1188000000e+01 7.2028e-14 0.0000e+00
 -9990012  2    3    3    0    0 -3.8465366317e+01 -1.9968844500e+01 -2.2988523203e+00 4.7787264078e+01 1.9999968239e+01 9.3713e-03 0.0000e+00
      -11  1    4    4    0    0 -5.2738425599e+00 -5.2110692474e-01 -5.4904680950e+00 7.6308720300e+00 5.1100000000e-04 0.0000e+00 1.0000e+00
       11  1    4    4    0    0 +5.9344006293e-01 -7.0806067981e-01 -9.2029264729e-01 1.3040168144e+00 5.1100000000e-04 0.0000e+00 -1.0000e+00
      -12  1    4    4    0    0 -3.3784963820e+01 -1.8739676895e+01 +4.1119084220e+00 3.8852375234e+01 0.0000000000e+00 0.0000e+00 1.0000e+00
       12  1    3    3    0    0 +3.8465366317e+01 +1.9968844500e+01 +2.2988523203e+00 4.3400735922e+01 0.0000000000e+00 0.0000e+00 -1.0000e+00
</event>
<event>
 8      3 +3.7482383e-04 9.11880000e+01 7.81616400e-03 1.18400000e-01
      -11 -1    0    0    0    0 +0.0000000000e+00 +0.0000000000e+00 +4.5593999997e+01 4.5594000000e+01 5.1100000000e-04 0.0000e+00 1.0000e+00
       11 -1    0    0    0    0 -0.0000000000e+00 -0.0000000000e+00 -4.5593999997e+01 4.5594000000e+01 5.1100000000e-04 0.0000e+00 -1.0000e+00
       23  2    1    2    0    0 +0.0000000000e+00 +0.0000000000e+00 +0.0000000000e+00 9.1188000000e+01 9.1188000000e+01 5.6529e-14 0.0000e+00
  9990012  2    3    3    0    0 -1.1157031354e+01 -3.4886136856e+01 -2.3283070600e+01 4.7787271090e+01 2.0000000206e+01 1.7069e-02 0.0000e+00
      -11  1    4    4    0    0 +2.5581111423e-01 +1.7507389997e+00 -1.9093592822e+00 2.6031095830e+00 5.1100000000e-04 0.0000e+00 1.0000e+00
       11  1    4    4    0    0 -1.0711715241e+01 -2.6181981831e+01 -1.9936186672e+01 3.4607637239e+01 5.1100000000e-04 0.0000e+00 -1.0000e+00
       12  1    4    4    0    0 -7.0112722714e-01 -1.0454894025e+01 -1.4375246451e+00 1.0576524267e+01 0.0000000000e+00 0.0000e+00 -1.0000e+00
      -12  1    3    3    0    0 +1.1157031354e+01 +3.4886136856e+01 +2.3283070600e+01 4.3400728910e+01 0.0000000000e+00 0.0000e+00 1.0000e+00
</event>
<event>
 8      3 +3.7482383e-04 9.11880000e+01 7.81616400e-03 1.18400000e-01
      -11 -1    0    0    0    0 +0.0000000000e+00 +0.0000000000e+00 +4.5593999997e+01 4.5594000000e+01 5.1100000000e-04 0.0000e+00 1.0000e+00
       11 -1    0    0    0    0 -0.0000000000e+00 -0.0000000000e+00 -4.5593999997e+01 4.5594000000e+01 5.1100000000e-04 0.0000e+00 -1.0000e+00
       23  2    1    2    0    0 +0.0000000000e+00 +0.0000000000e+00 +0.0000000000e+00 9.1188000000e+01 9.1188000000e+01 1.8269e-14 0.0000e+00
  9990012  2    3    3    0    0 -3.7482172553e+01 +1.9778419735e+01 -9.3555097236e+00 4.7787254515e+01 1.9999924635e+01 1.5075e-01 0.0000e+00
      -11  1    4    4    0    0 -1.1455128419e+01 +9.0068076621e+00 +3.8324888694e+00 1.5067532066e+01 5.1100000000e-04 0.0000e+00 1.0000e+00
       11  1    4    4    0    0 -2.3260349147e+00 +4.7584063137e+00 -9.6769204013e-01 5.3841709869e+00 5.1100000000e-04 0.0000e+00 -1.0000e+00
       12  1    4    4    0    0 -2.3701009219e+01 +6.0132057588e+00 -1.2220306553e+01 2.7335551462e+01 0.0000000000e+00 0.0000e+00 -1.0000e+00
      -12  1    3    3    0    0 +3.7482172553e+01 -1.9778419735e+01 +9.3555097236e+00 4.3400745485e+01 0.0000000000e+00 0.0000e+00 1.0000e+00
</event>
<event>
 8      3 +3.7482383e-04 9.11880000e+01 7.81616400e-03 1.18400000e-01
      -11 -1    0    0    0    0 +0.0000000000e+00 +0.0000000000e+00 +4.5593999997e+01 4.5594000000e+01 5.1100000000e-04 0.0000e+00 -1.0000e+00
       11 -1    0    0    0    0 -0.0000000000e+00 -0.0000000000e+00 -4.5593999997e+01 4.5594000000e+01 5.1100000000e-04 0.0000e+00 1.0000e+00
       23  2    1    2    0    0 +0.0000000000e+00 +0.0000000000e+00 +0.0000000000e+00 9.1188000000e+01 9.1188000000e+01 7.1879e-14 0.0000e+00
  9990012  2    3    3    0    0 -4.1816378672e+01 -5.0775919563e+00 +1.0451223231e+01 4.7787314149e+01 2.0000196528e+01 2.3635e-01 0.0000e+00
      -11  1    4    4    0    0 -4.6993489230e-01 -2.6373780393e+00 -2.3139706057e+00 3.5399240035e+00 5.1100000000e-04 0.0000e+00 1.0000e+00
       11  1    4    4    0    0 -2.7765389363e+00 -2.5021723409e+00 +1.8034336270e+00 4.1499889152e+00 5.1100000000e-04 0.0000e+00 -1.0000e+00
       12  1    4    4    0    0 -3.8569904844e+01 +6.1958423938e-02 +1.0961760209e+01 4.0097401230e+01 0.0000000000e+00 0.0000e+00 -1.0000e+00
      -12  1    3    3    0    0 +4.1816378672e+01 +5.0775919563e+00 -1.0451223231e+01 4.3400685851e+01 0.0000000000e+00 0.0000e+00 1.0000e+00
</event>
<event>
 8      3 +3.7482383e-04 9.11880000e+01 7.81616400e-03 1.18400000e-01
      -11 -1    0    0    0    0 +0.0000000000e+00 +0.0000000000e+00 +4.5593999997e+01 4.5594000000e+01 5.1100000000e-04 0.0000e+00 1.0000e+00
       11 -1    0    0    0    0 -0.0000000000e+00 -0.0000000000e+00 -4.5593999997e+01 4.5594000000e+01 5.1100000000e-04 0.0000e+00 -1.0000e+00
       23  2    1    2    0    0 -4.4408920985e-16 +0.0000000000e+00 +7.1054273576e-15 9.1188000000e+01 9.1188000000e+01 1.5378e-13 0.0000e+00
  9990012  2    3    3    0    0 -3.0232532892e+00 -1.6237315731e+01 -4.0135182139e+01 4.7787270422e+01 1.9999997160e+01 5.4561e-03 0.0000e+00
      -11  1    4    4    0    0 +5.4347462503e+00 -3.5266919824e+00 -5.6467823993e+00 8.5941942536e+00 5.1100000000e-04 0.0000e+00 1.0000e+00
       11  1    4    4    0    0 +2.3253617658e+00 -1.7846111917e+00 -3.1873455166e+00 4.3302789923e+00 5.1100000000e-04 0.0000e+00 -1.0000e+00
       12  1    4    4    0    0 -1.0783361305e+01 -1.0926012557e+01 -3.1301054223e+01 3.4862797176e+01 0.0000000000e+00 0.0000e+00 -1.0000e+00
      -12  1    3    3    0    0 +3.0232532892e+00 +1.6237315731e+01 +4.0135182139e+01 4.3400729578e+01 0.0000000000e+00 0.0000e+00 1.0000e+00
</event>
<event>
 8      3 +3.7482383e-04 9.11880000e+01 7.81616400e-03 1.18400000e-01
      -11 -1    0    0    0    0 +0.0000000000e+00 +0.0000000000e+00 +4.5593999997e+01 4.5594000000e+01 5.1100000000e-04 0.0000e+00 1.0000e+00
       11 -1    0    0    0    0 -0.0000000000e+00 -0.0000000000e+00 -4.5593999997e+01 4.5594000000e+01 5.1100000000e-04 0.0000e+00 -1.0000e+00
       23  2    1    2    0    0 -3.5527136788e-15 -3.5527136788e-15 -2.2204460493e-16 9.1188000000e+01 9.1188000000e+01 2.1403e-14 0.0000e+00
  9990012  2    3    3    0    0 -3.1213449710e+01 -3.0097440798e+01 +1.8676210270e+00 4.7787269664e+01 1.9999993706e+01 2.8296e-02 0.0000e+00
      -11  1    4    4    0    0 -1.1624071386e+01 -2.0824137838e+00 +7.3445741518e-01 1.1831944502e+01 5.1100000000e-04 0.0000e+00 1.0000e+00
       11  1    4    4    0    0 -2.2833544963e+00 -8.8980515006e+00 -3.3570702778e+00 9.7805393192e+00 5.1100000000e-04 0.0000e+00 -1.0000e+00
       12  1    4    4    0    0 -1.7306023828e+01 -1.9116975514e+01 +4.4902338896e+00 2.6174785843e+01 0.0000000000e+00 0.0000e+00 -1.0000e+00
      -12  1    3    3    0    0 +3.1213449710e+01 +3.0097440798e+01 -1.8676210270e+00 4.3400730336e+01 0.0000000000e+00 0.0000e+00 1.0000e+00
</event>
<event>
 8      4 +3.7482383e-04 9.11880000e+01 7.81616400e-03 1.18400000e-01
      -11 -1    0    0    0    0 +0.0000000000e+00 +0.0000000000e+00 +4.5593999997e+01 4.5594000000e+01 5.1100000000e-04 0.0000e+00 1.0000e+00
       11 -1    0    0    0    0 -0.0000000000e+00 -0.0000000000e+00 -4.5593999997e+01 4.5594000000e+01 5.1100000000e-04 0.0000e+00 -1.0000e+00
       23  2    1    2    0    0 -3.5527136788e-15 -1.7763568394e-15 +0.0000000000e+00 9.1188000000e+01 9.1188000000e+01 7.4850e-14 0.0000e+00
 -9990012  2    3    3    0    0 -1.8840739121e+01 -7.3557023520e+00 +3.8399783848e+01 4.7787271811e+01 2.0000003497e+01 3.9373e-01 0.0000e+00
      -11  1    4    4    0    0 -1.0584585609e+01 -6.2214127705e-01 +2.8325427625e+01 3.0244840265e+01 5.1100000000e-04 0.0000e+00 1.0000e+00
       11  1    4    4    0    0 -7.9861974310e+00 -7.6300556853e+00 +1.1430121493e+01 1.5894803452e+01 5.1100000000e-04 0.0000e+00 -1.0000e+00
      -12  1    4    4    0    0 -2.6995608022e-01 +8.9649461035e-01 -1.3557652692e+00 1.6476280942e+00 0.0000000000e+00 0.0000e+00 1.0000e+00
       12  1    3    3    0    0 +1.8840739121e+01 +7.3557023520e+00 -3.8399783848e+01 4.3400728189e+01 0.0000000000e+00 0.0000e+00 -1.0000e+00
</event>
<event>
 8      3 +3.7482383e-04 9.11880000e+01 7.81616400e-03 1.18400000e-01
      -11 -1    0    0    0    0 +0.0000000000e+00 +0.0000000000e+00 +4.5593999997e+01 4.5594000000e+01 5.1100000000e-04 0.0000e+00 -1.0000e+00
       11 -1    0    0    0    0 -0.0000000000e+00 -0.0000000000e+00 -4.5593999997e+01 4.5594000000e+01 5.1100000000e-04 0.0000e+00 1.0000e+00
       23  2    1    2    0    0 +0.0000000000e+00 +0.0000000000e+00 +4.4408920985e-16 9.1188000000e+01 9.1188000000e+01 3.4095e-15 0.0000e+00
  9990012  2    3    3    0    0 +4.1361812401e+01 +1.2977388153e+01 -2.1002161684e+00 4.7787273781e+01 2.0000012476e+01 5.6869e-02 0.0000e+00
      -11  1    4    4    0    0 +8.9344711381e-01 +3.1778002546e-01 -2.2035333782e+00 2.3989146503e+00 5.1100000000e-04 0.0000e+00 1.0000e+00
       11  1    4    4    0    0 -8.5189098113e-02 +8.1146551569e-01 +2.9334192663e+00 3.0447795188e+00 5.1100000000e-04 0.0000e+00 -1.0000e+00
       12  1    4    4    0    0 +4.0553554386e+01 +1.1848142612e+01 -2.8301020565e+00 4.2343579612e+01 0.0000000000e+00 0.0000e+00 -1.0000e+00
      -12  1    3    3    0    0 -4.1361812401e+01 -1.2977388153e+01 +2.1002161684e+00 4.3400726219e+01 0.0000000000e+00 0.0000e+00 1.0000e+00
</event>
<event>
 8      4 +3.7482383e-04 9.11880000e+01 7.81616400e-03 1.18400000e-01
      -11 -1    0    0    0    0 +0.0000000000e+00 +0.0000000000e+00 +4.5593999997e+01 4.5594000000e+01 5.1100000000e-04 0.0000e+00 1.0000e+00
       11 -1    0    0    0    0 -0.0000000000e+00 -0.0000000000e+00 -4.5593999997e+01 4.5594000000e+01 5.1100000000e-04 0.0000e+00 -1.0000e+00
       23  2    1    2    0    0 +2.2204460493e-16 -6.6613381478e-16 +0.0000000000e+00 9.1188000000e+01 9.1188000000e+01 4.0214e-14 0.0000e+00
 -9990012  2    3    3    0    0 -4.5315318587e-01 +1.5889665978e+00 +4.3369266486e+01 4.7787269151e+01 1.9999991369e+01 5.8704e-02 0.0000e+00
      -11  1    4    4    0    0 +2.2747830591e+00 -4.9395862642e-01 +4.3766112614e+01 4.3827973335e+01 5.1100000000e-04 0.0000e+00 1.0000e+00
       11  1    4    4    0    0 -2.0458127880e+00 +4.3686942912e-01 +1.4493680611e-01 2.0969529800e+00 5.1100000000e-04 0.0000e+00 -1.0000e+00
      -12  1    4    4    0    0 -6.8212345697e-01 +1.6460557951e+00 -5.4178293400e-01 1.8623428360e+00 0.0000000000e+00 0.0000e+00 1.0000e+00
       12  1    3    3    0    0 +4.5315318587e-01 -1.5889665978e+00 -4.3369266486e+01 4.3400730849e+01 0.0000000000e+00 0.0000e+00 -1.0000e+00
</event>
<event>
 8      3 +3.7482383e-04 9.11880000e+01 7.81616400e-03 1.18400000e-01
      -11 -1    0    0    0    0 +0.0000000000e+00 +0.0000000000e+00 +4.5593999997e+01 4.5594000000e+01 5.1100000000e-04 0.0000e+00 1.0000e+00
       11 -1    0    0    0    0 -0.0000000000e+00 -0.0000000000e+00 -4.5593999997e+01 4.5594000000e+01 5.1100000000e-04 0.0000e+00 -1.0000e+00
       23  2    1    2    0    0 +0.0000000000e+00 -3.5527136788e-15 +3.3306690739e-16 9.1188000000e+01 9.1188000000e+01 5.8805e-14 0.0000e+00
  9990012  2    3    3    0    0 +4.0048158500e+01 +1.6706146029e+01 -8.2031423991e-01 4.7787271552e+01 2.0000002316e+01 2.2894e-01 0.0000e+00
      -11  1    4    4    0    0 +8.4302927193e-01 +4.8738131793e+00 +2.4692089612e+00 5.5282679398e+00 5.1100000000e-04 0.0000e+00 1.0000e+00
       11  1    4    4    0    0 +1.3747161245e+01 +2.1808643787e+00 +3.1736604042e+00 1.4276299673e+01 5.1100000000e-04 0.0000e+00 -1.0000e+00
       12  1    4    4    0    0 +2.5457967982e+01 +9.6514684708e+00 -6.4631836053e+00 2.7982703939e+01 0.0000000000e+00 0.0000e+00 -1.0000e+00
      -12  1    3    3    0    0 -4.0048158500e+01 -1.6706146029e+01 +8.2031423991e-01 4.3400728448e+01 0.0000000000e+00 0.0000e+00 1.0000e+00
</event>
<event>
 8      4 +3.7482383e-04 9.11880000e+01 7.81616400e-03 1.18400000e-01
      -11 -1    0    0    0    0 +0.0000000000e+00 +0.0000000000e+00 +4.5593999997e+01 4.5594000000e+01 5.1100000000e-04 0.0000e+00 -1.0000e+00
       11 -1    0    0    0    0 -0.0000000000e+00 -0.0000000000e+00 -4.5593999997e+01 4.5594000000e+01 5.1100000000e-04 0.0000e+00 1.0000e+00
       23  2    1    2    0    0 +0.0000000000e+00 -3.5527136788e-15 -1.7763568394e-15 9.1188000000e+01 9.1188000000e+01 1.2844e-13 0.0000e+00
 -9990012  2    3    3    0    0 +3.6423305357e+01 -1.8524753351e+01 -1.4621884892e+01 4.7787272153e+01 2.0000005056e+01 4.1132e-01 0.0000e+00
      -11  1    4    4    0    0 -1.2089503144e+00 -1.2724206068e-01 +2.1777670439e-01 1.2349811168e+00 5.1100000000e-04 0.0000e+00 1.0000e+00
       11  1    4    4    0    0 -1.6317533389e-02 -3.6145550579e+00 -5.5450672769e-01 3.6568774248e+00 5.1100000000e-04 0.0000e+00 -1.0000e+00
      -12  1    4    4    0    0 +3.7648573204e+01 -1.4782956233e+01 -1.4285154869e+01 4.2895413612e+01 0.0000000000e+00 0.0000e+00 1.0000e+00
       12  1    3    3    0    0 -3.6423305357e+01 +1.8524753351e+01 +1.4621884892e+01 4.3400727847e+01 0.0000000000e+00 0.0000e+00 -1.0000e+00
</event>
<event>
 8      3 +3.7482383e-04 9.11880000e+01 7.81616400e-03 1.18400000e-01
      -11 -1    0    0    0    0 +0.0000000000e+00 +0.0000000000e+00 +4.5593999997e+01 4.5594000000e+01 5.1100000000e-04 0.0000e+00 1.0000e+00
       11 -1    0    0    0    0 -0.0000000000e+00 -0.0000000000e+00 -4.5593999997e+01 4.5594000000e+01 5.1100000000e-04 0.0000e+00 -1.0000e+00
       23  2    1    2    0    0 +0.0000000000e+00 +3.5527136788e-15 +7.1054273576e-15 9.1188000000e+01 9.1188000000e+01 1.9718e-14 0.0000e+00
  9990012  2    3    3    0    0 +8.7060827122e+00 -2.2292618258e+01 -3.6205891606e+01 4.7787270836e+01 1.9999999049e+01 2.0988e-02 0.0000e+00
      -11  1    4    4    0    0 -1.4427533454e+00 +1.9061217025e+00 -5.6427536579e+00 6.1282547488e+00 5.1100000000e-04 0.0000e+00 1.0000e+00
       11  1    4    4    0    0 +6.7905248142e+00 -7.0534104955e+00 -5.8883634073e+00 1.1425176180e+01 5.1100000000e-04 0.0000e+00 -1.0000e+00
       12  1    4    4    0    0 +3.3583112433e+00 -1.7145329465e+01 -2.4674774541e+01 3.0233839907e+01 0.0000000000e+00 0.0000e+00 -1.0000e+00
      -12  1    3    3    0    0 -8.7060827122e+00 +2.2292618258e+01 +3.6205891606e+01 4.3400729164e+01 0.0000000000e+00 0.0000e+00 1.0000e+00
</event>
<event>
 8      4 +3.7482383e-04 9.11880000e+01 7.81616400e-03 1.18400000e-01
      -11 -1    0    0    0    0 +0.0000000000e+00 +0.0000000000e+00 +4.5593999997e+01 4.5594000000e+01 5.1100000000e-04 0.0000e+00 1.0000e+00
       11 -1    0    0    0    0 -0.0000000000e+00 -0.0000000000e+00 -4.5593999997e+01 4.5594000000e+01 5.1100000000e-04 0.0000e+00 -1.0000e+00
       23  2    1    2    0    0 -3.5527136788e-15 +0.0000000000e+00 +3.5527136788e-15 9.1188000000e+01 9.1188000000e+01 3.3627e-14 0.0000e+00
 -9990012  2    3    3    0    0 -2.4549196803e+01 +2.4477625776e+01 +2.6111412289e+01 4.7787273289e+01 2.0000010235e+01 6.2186e-01 0.0000e+00
      -11  1    4    4    0    0 +1.4746654912e+00 +9.0085807678e-01 +1.3703018403e+00 2.2054276184e+00 5.1100000000e-04 0.0000e+00 1.0000e+00
       11  1    4    4    0    0 +1.6526414384e+00 +1.3741746387e+00 +3.8431759346e+00 4.4033602155e+00 5.1100000000e-04 0.0000e+00 -1.0000e+00
      -12  1    4    4    0    0 -2.7676503732e+01 +2.2202593060e+01 +2.0897934514e+01 4.1178485455e+01 0.0000000000e+00 0.0000e+00 1.0000e+00
       12  1    3    3    0    0 +2.4549196803e+01 -2.4477625776e+01 -2.6111412289e+01 4.3400726711e+01 0.0000000000e+00 0.0000e+00 -1.0000e+00
</event>
<event>
 8      3 +3.7482383e-04 9.11880000e+01 7.81616400e-03 1.18400000e-01
      -11 -1    0    0    0    0 +0.0000000000e+00 +0.0000000000e+00 +4.5593999997e+01 4.5594000000e+01 5.1100000000e-04 0.0000e+00 1.0000e+00
       11 -1    0    0    0    0 -0.0000000000e+00 -0.0000000000e+00 -4.5593999997e+01 4.5594000000e+01 5.1100000000e-04 0.0000e+00 -1.0000e+00
       23  2    1    2    0    0 +0.0000000000e+00 +0.0000000000e+00 -3.5527136788e-15 9.1188000000e+01 9.1188000000e+01 1.0987e-14 0.0000e+00
  9990012  2    3    3    0    0 +3.6751100964e+01 +3.8300815579e+00 -2.2766438663e+01 4.7787266409e+01 1.9999978867e+01 1.2275e-01 0.0000e+00
      -11  1    4    4    0    0 +2.7259088758e+01 +8.7442917481e+00 -1.5409607298e+01 3.2511175854e+01 5.1100000000e-04 0.0000e+00 -1.0000e+00
       11  1    4    4    0    0 +2.1273789096e+00 -2.5892264872e+00 +1.3721295293e+00 3.6211289032e+00 5.1100000000e-04 0.0000e+00 1.0000e+00
       12  1    4    4    0    0 +7.3646332962e+00 -2.3249837030e+00 -8.7289608951e+00 1.1654961652e+01 0.0000000000e+00 0.0000e+00 -1.0000e+00
      -12  1    3    3    0    0 -3.6751100964e+01 -3.8300815579e+00 +2.2766438663e+01 4.3400733591e+01 0.0000000000e+00 0.0000e+00 1.0000e+00
</event>
<event>
 8      3 +3.7482383e-04 9.11880000e+01 7.81616400e-03 1.18400000e-01
      -11 -1    0    0    0    0 +0.0000000000e+00 +0.0000000000e+00 +4.5593999997e+01 4.5594000000e+01 5.1100000000e-04 0.0000e+00 -1.0000e+00
       11 -1    0    0    0    0 -0.0000000000e+00 -0.0000000000e+00 -4.5593999997e+01 4.5594000000e+01 5.1100000000e-04 0.0000e+00 1.0000e+00
       23  2    1    2    0    0 +0.0000000000e+00 +3.5527136788e-15 +3.5527136788e-15 9.1188000000e+01 9.1188000000e+01 4.6819e-14 0.0000e+00
  9990012  2    3    3    0    0 -1.9356251543e+01 +2.9990967337e+01 +2.4688064232e+01 4.7787272919e+01 2.0000008547e+01 1.3730e-01 0.0000e+00
      -11  1    4    4    0    0 -3.8691541975e+00 +2.1599643372e+00 +5.1658754322e+00 6.8060318383e+00 5.1100000000e-04 0.0000e+00 1.0000e+00
       11  1    4    4    0    0 +3.9524172167e-01 -1.9411605953e+00 +2.4925929677e+00 3.1839190377e+00 5.1100000000e-04 0.0000e+00 -1.0000e+00
       12  1    4    4    0    0 -1.5882339067e+01 +2.9772163596e+01 +1.7029595832e+01 3.7797322043e+01 0.0000000000e+00 0.0000e+00 -1.0000e+00
      -12  1    3    3    0    0 +1.9356251543e+01 -2.9990967337e+01 -2.4688064232e+01 4.3400727081e+01 0.0000000000e+00 0.0000e+00 1.0000e+00
</event>
<event>
 8      3 +3.7482383e-04 9.11880000e+01 7.81616400e-03 1.18400000e-01
      -11 -1    0    0    0    0 +0.0000000000e+00 +0.0000000000e+00 +4.5593999997e+01 4.5594000000e+01 5.1100000000e-04 0.0000e+00 1.0000e+00
       11 -1    0    0    0    0 -0.0000000000e+00 -0.0000000000e+00 -4.5593999997e+01 4.5594000000e+01 5.1100000000e-04 0.0000e+00 -1.0000e+00
       23  2    1    2    0    0 +7.1054273576e-15 -1.7763568394e-15 +1.7763568394e-15 9.1188000000e+01 9.1188000000e+01 4.4629e-14 0.0000e+00
  9990012  2    3    3    0    0 -4.0520831298e+01 +8.8106071819e+00 -1.2808543514e+01 4.7787270111e+01 1.9999995744e+01 1.9175e-01 0.0000e+00
      -11  1    4    4    0    0 +6.3624617946e-01 +2.7995220374e+00 +6.1357293711e-01 2.9357460464e+00 5.1100000000e-04 0.0000e+00 1.0000e+00
       11  1    4    4    0    0 -1.8210642081e+01 +4.4531823030e+00 -1.1488161612e+00 1.8782387933e+01 5.1100000000e-04 0.0000e+00 -1.0000e+00
       12  1    4    4    0    0 -2.2946435396e+01 +1.5579028415e+00 -1.2273300290e+01 2.6069136132e+01 0.0000000000e+00 0.0000e+00 -1.0000e+00
      -12  1    3    3    0    0 +4.0520831298e+01 -8.8106071819e+00 +1.2808543514e+01 4.3400729889e+01 0.0000000000e+00 0.0000e+00 1.0000e+00
</event>
<event>
 8      3 +3.7482383e-04 9.11880000e+01 7.81616400e-03 1.18400000e-01
      -11 -1    0    0    0    0 +0.0000000000e+00 +0.0000000000e+00 +4.5593999997e+01 4.5594000000e+01 5.1100000000e-04 0.0000e+00 -1.0000e+00
       11 -1    0    0    0    0 -0.0000000000e+00 -0.0000000000e+00 -4.5593999997e+01 4.5594000000e+01 5.1100000000e-04 0.0000e+00 1.0000e+00
       23  2    1    2    0    0 -7.1054273576e-15 -3.5527136788e-15 +1.7763568394e-15 9.1188000000e+01 9.1188000000e+01 4.5260e-14 0.0000e+00
  9990012  2    3    3    0    0 +3.9079357412e+01 +1.7736360576e+01 -6.4690462869e+00 4.7787271641e+01 2.0000002721e+01 1.0429e+00 0.0000e+00
      -11  1    4    4    0    0 +1.3085637839e+01 +2.5640566620e+00 -8.1364513276e+00 1.5620824072e+01 5.1100000000e-04 0.0000e+00 -1.0000e+00
       11  1    4    4    0    0 +2.8392078594e+00 +6.2126166812e+00 +2.6319410858e+00 7.3201653968e+00 5.1100000000e-04 0.0000e+00 1.0000e+00
       12  1    4    4    0    0 +2.3154511714e+01 +8.9596872328e+00 -9.6453604517e-01 2.4846282172e+01 0.0000000000e+00 0.0000e+00 -1.0000e+00
      -12  1    3    3    0    0 -3.9079357412e+01 -1.7736360576e+01 +6.4690462869e+00 4.3400728359e+01 0.0000000000e+00 0.0000e+00 1.0000e+00
</event>
<event>
 8      4 +3.7482383e-04 9.11880000e+01 7.81616400e-03 1.18400000e-01
      -11 -1    0    0    0    0 +0.0000000000e+00 +0.0000000000e+00 +4.5593999997e+01 4.5594000000e+01 5.1100000000e-04 0.0000e+00 1.0000e+00
       11 -1    0    0    0    0 -0.0000000000e+00 -0.0000000000e+00 -4.5593999997e+01 4.5594000000e+01 5.1100000000e-04 0.0000e+00 -1.0000e+00
       23  2    1    2    0    0 +0.0000000000e+00 +0.0000000000e+00 -3.5527136788e-15 9.1188000000e+01 9.1188000000e+01 1.0457e-13 0.0000e+00
 -9990012  2    3    3    0    0 +1.9267046326e+01 +2.9625359222e+01 +2.5194104725e+01 4.7787263876e+01 1.9999967318e+01 2.3856e-01 0.0000e+00
      -11  1    4    4    0    0 +9.3877606020e+00 +1.7942615545e+01 +7.4215247087e+00 2.1567255991e+01 5.1100000000e-04 0.0000e+00 1.0000e+00
       11  1    4    4    0    0 +9.7927291109e+00 +8.9380774388e+00 +6.7835313750e+00 1.4893054419e+01 5.1100000000e-04 0.0000e+00 -1.0000e+00
      -12  1    4    4    0    0 +8.6556612866e-02 +2.7446662391e+00 +1.0989048641e+01 1.1326953467e+01 0.0000000000e+00 0.0000e+00 1.0000e+00
       12  1    3    3    0    0 -1.9267046326e+01 -2.9625359222e+01 -2.5194104725e+01 4.3400736124e+01 0.0000000000e+00 0.0000e+00 -1.0000e+00
</event>
<event>
 8      3 +3.7482383e-04 9.11880000e+01 7.81616400e-03 1.18400000e-01
      -11 -1    0    0    0    0 +0.0000000000e+00 +0.0000000000e+00 +4.5593999997e+01 4.5594000000e+01 5.1100000000e-04 0.0000e+00 -1.0000e+00
       11 -1    0    0    0    0 -0.0000000000e+00 -0.0000000000e+00 -4.5593999997e+01 4.5594000000e+01 5.1100000000e-04 0.0000e+00 1.0000e+00
       23  2    1    2    0    0 +0.0000000000e+00 +0.0000000000e+00 +0.0000000000e+00 9.1188000000e+01 9.1188000000e+01 4.6044e-14 0.0000e+00
  9990012  2    3    3    0    0 -1.7805896488e+01 -1.7013146077e+01 +3.5736911577e+01 4.7787263391e+01 1.9999965103e+01 4.8381e-01 0.0000e+00
      -11  1    4    4    0    0 -1.2635569403e+01 -6.5116647242e+00 +7.1460636394e+00 1.5909921981e+01 5.1100000000e-04 0.0000e+00 1.0000e+00
       11  1    4    4    0    0 -4.2909642981e+00 -2.5546990077e+00 +1.7542739066e+01 1.8239697251e+01 5.1100000000e-04 0.0000e+00 -1.0000e+00
       12  1    4    4    0    0 -8.7936278606e-01 -7.9467823456e+00 +1.1048108872e+01 1.3637644159e+01 0.0000000000e+00 0.0000e+00 -1.0000e+00
      -12  1    3    3    0    0 +1.7805896488e+01 +1.7013146077e+01 -3.5736911577e+01 4.3400736609e+01 0.0000000000e+00 0.0000e+00 1.0000e+00
</event>
<event>
 8      3 +3.7482383e-04 9.11880000e+01 7.81616400e-03 1.18400000e-01
      -11 -1    0    0    0    0 +0.0000000000e+00 +0.0000000000e+00 +4.5593999997e+01 4.5594000000e+01 5.1100000000e-04 0.0000e+00 -1.0000e+00
       11 -1    0    0    0    0 -0.0000000000e+00 -0.0000000000e+00 -4.5593999997e+01 4.5594000000e+01 5.1100000000e-04 0.0000e+00 1.0000e+00
       23  2    1    2    0    0 -3.5527136788e-15 -3.5527136788e-15 -7.1054273576e-15 9.1188000000e+01 9.1188000000e+01 1.4476e-13 0.0000e+00
  9990012  2    3    3    0    0 +1.8047783570e+01 +9.2190858361e+00 +3.8378490551e+01 4.7787279126e+01 2.0000036847e+01 1.2017e-01 0.0000e+00
      -11  1    4    4    0    0 -1.8491537984e-01 -1.7838498519e+00 +6.6852821272e-01 1.9139603507e+00 5.1100000000e-04 0.0000e+00 1.0000e+00
       11  1    4    4    0    0 -1.0367768744e-01 -1.1049228688e-01 -1.3269459170e+00 1.3355685441e+00 5.1100000000e-04 0.0000e+00 -1.0000e+00
       12  1    4    4    0    0 +1.8336376637e+01 +1.1113427975e+01 +3.9036908255e+01 4.4537750231e+01 0.0000000000e+00 0.0000e+00 -1.0000e+00
      -12  1    3    3    0    0 -1.8047783570e+01 -9.2190858361e+00 -3.8378490551e+01 4.3400720874e+01 0.0000000000e+00 0.0000e+00 1.0000e+00
</event>
<event>
 8      4 +3.7482383e-04 9.11880000e+01 7.81616400e-03 1.18400000e-01
      -11 -1    0    0    0    0 +0.0000000000e+00 +0.0000000000e+00 +4.5593999997e+01 4.5594000000e+01 5.1100000000e-04 0.0000e+00 -1.0000e+00
       11 -1    0    0    0    0 -0.0000000000e+00 -0.0000000000e+00 -4.5593999997e+01 4.5594000000e+01 5.1100000000e-04 0.0000e+00 1.0000e+00
       23  2    1    2    0    0 +0.0000000000e+00 +3.5527136788e-15 +0.0000000000e+00 9.1188000000e+01 9.1188000000e+01 7.0105e-14 0.0000e+00
 -9990012  2    3    3    0    0 -2.6154302405e+01 -2.7743289543e+01 -2.0733675249e+01 4.7787274910e+01 2.0000017626e+01 6.8567e-02 0.0000e+00
      -11  1    4    4    0    0 -3.6968531067e+00 -7.6106722975e-01 -7.2133218366e+00 8.1411275878e+00 5.1100000000e-04 0.0000e+00 1.0000e+00
       11  1    4    4    0    0 -9.5811946696e+00 -3.3069305604e+00 -1.9723324702e+00 1.0325946768e+01 5.1100000000e-04 0.0000e+00 -1.0000e+00
      -12  1    4    4    0    0 -1.2876254628e+01 -2.3675291753e+01 -1.1548020943e+01 2.9320200554e+01 0.0000000000e+00 0.0000e+00 1.0000e+00
       12  1    3    3    0    0 +2.6154302405e+01 +2.7743289543e+01 +2.0733675249e+01 4.3400725090e+01 0.0000000000e+00 0.0000e+00 -1.0000e+00
</event>
<event>
 8      3 +3.7482383e-04 9.11880000e+01 7.81616400e-03 1.18400000e-01
      -11 -1    0    0    0    0 +0.0000000000e+00 +0.0000000000e+00 +4.5593999997e+01 4.5594000000e+01 5.1100000000e-04 0.0000e+00 -1.0000e+00
       11 -1    0    0    0    0 -0.0000000000e+00 -0.0000000000e+00 -4.5593999997e+01 4.5594000000e+01 5.1100000000e-04 0.0000e+00 1.0000e+00
       23  2    1    2    0    0 +1.1102230246e-16 +3.5527136788e-15 -7.1054273576e-15 9.1188000000e+01 9.1188000000e+01 9.6967e-15 0.0000e+00
  9990012  2    3    3    0    0 +7.1857865326e-01 -2.3122894940e+01 +3.6721097857e+01 4.7787266671e+01 1.9999980060e+01 3.1715e-01 0.0000e+00
      -11  1    4    4    0    0 +1.8900820594e+00 +9.1360438006e-01 +5.1920536494e+00 5.6004021743e+00 5.1100000000e-04 0.0000e+00 1.0000e+00
       11  1    4    4    0    0 -5.3901854001e-01 -4.6566793969e+00 -5.3252474268e-01 4.7179218788e+00 5.1100000000e-04 0.0000e+00 -1.0000e+00
       12  1    4    4    0    0 -6.3248486608e-01 -1.9379819923e+01 +3.2061568950e+01 3.7468942618e+01 0.0000000000e+00 0.0000e+00 -1.0000e+00
      -12  1    3    3    0    0 -7.1857865326e-01 +2.3122894940e+01 -3.6721097857e+01 4.3400733329e+01 0.0000000000e+00 0.0000e+00 1.0000e+00
</event>
<event>
 8      4 +3.7482383e-04 9.11880000e+01 7.81616400e-03 1.18400000e-01
      -11 -1    0    0    0    0 +0.0000000000e+00 +0.0000000000e+00 +4.5593999997e+01 4.5594000000e+01 5.1100000000e-04 0.0000e+00 -1.0000e+00
       11 -1    0    0    0    0 -0.0000000000e+00 -0.0000000000e+00 -4.5593999997e+01 4.5594000000e+01 5.1100000000e-04 0.0000e+00 1.0000e+00
       23  2    1    2    0    0 +0.0000000000e+00 +0.0000000000e+00 +8.8817841970e-16 9.1188000000e+01 9.1188000000e+01 3.8015e-14 0.0000e+00
 -9990012  2    3    3    0    0 +3.5871417896e+01 -2.3207309347e+01 -7.6345049903e+00 4.7787268492e+01 1.9999988362e+01 5.6578e-02 0.0000e+00
      -11  1    4    4    0    0 +3.0343252829e+01 -1.5042811889e+01 -6.3164467565e+00 3.4451366905e+01 5.1100000000e-04 0.0000e+00 1.0000e+00
       11  1    4    4    0    0 -9.0615552961e-02 -5.6095691477e+00 -3.6992683395e+00 6.7201237868e+00 5.1100000000e-04 0.0000e+00 -1.0000e+00
      -12  1    4    4    0    0 +5.6187806201e+00 -2.5549283106e+00 +2.3812101057e+00 6.6157777998e+00 0.0000000000e+00 0.0000e+00 1.0000e+00
       12  1    3    3    0    0 -3.5871417896e+01 +2.3207309347e+01 +7.6345049903e+00 4.3400731508e+01 0.0000000000e+00 0.0000e+00 -1.0000e+00
</event>
<event>
 8      4 +3.7482383e-04 9.11880000e+01 7.81616400e-03 1.18400000e-01
      -11 -1    0    0    0    0 +0.0000000000e+00 +0.0000000000e+00 +4.5593999997e+01 4.5594000000e+01 5.1100000000e-04 0.0000e+00 1.0000e+00
       11 -1    0    0    0    0 -0.0000000000e+00 -0.0000000000e+00 -4.5593999997e+01 4.5594000000e+01 5.1100000000e-04 0.0000e+00 -1.0000e+00
       23  2    1    2    0    0 +0.0000000000e+00 +0.0000000000e+00 -1.7763568394e-15 9.1188000000e+01 9.1188000000e+01 4.4865e-15 0.0000e+00
 -9990012  2    3    3    0    0 -1.1978099732e+01 -3.9650130765e+01 +1.2962074657e+01 4.7787272791e+01 2.0000007964e+01 1.3220e-01 0.0000e+00
      -11  1    4    4    0    0 -7.0631983993e+00 -3.9551649400e+00 -8.1264775605e-01 8.1358772095e+00 5.1100000000e-04 0.0000e+00 1.0000e+00
       11  1    4    4    0    0 +2.7242778914e+00 -1.0600703746e+01 +3.7474522232e+00 1.1568924253e+01 5.1100000000e-04 0.0000e+00 -1.0000e+00
      -12  1    4    4    0    0 -7.6391792238e+00 -2.5094262079e+01 +1.0027270190e+01 2.8082471329e+01 0.0000000000e+00 0.0000e+00 1.0000e+00
       12  1    3    3    0    0 +1.1978099732e+01 +3.9650130765e+01 -1.2962074657e+01 4.3400727209e+01 0.0000000000e+00 0.0000e+00 -1.0000e+00
</event>
<event>
 8      3 +3.7482383e-04 9.11880000e+01 7.81616400e-03 1.18400000e-01
      -11 -1    0    0    0    0 +0.0000000000e+00 +0.0000000000e+00 +4.5593999997e+01 4.5594000000e+01 5.1100000000e-04 0.0000e+00 1.0000e+00
       11 -1    0    0    0    0 -0.0000000000e+00 -0.0000000000e+00 -4.5593999997e+01 4.5594000000e+01 5.1100000000e-04 0.0000e+00 -1.0000e+00
       23  2    1    2    0    0 +3.5527136788e-15 -8.8817841970e-16 +0.0000000000e+00 9.1188000000e+01 9.1188000000e+01 5.1712e-14 0.0000e+00
  9990012  2    3    3    0    0 +1.7800381280e+01 -7.2273085367e+00 -3.8917038083e+01 4.7787269413e+01 1.9999992559e+01 3.8419e-02 0.0000e+00
      -11  1    4    4    0    0 +1.4878840103e+00 +7.8324352300e-03 +8.8073982503e-01 1.7290353020e+00 5.1100000000e-04 0.0000e+00 1.0000e+00
       11  1    4    4    0    0 +1.8914258457e+01 -7.3185277069e+00 -3.7264943353e+01 4.2426242164e+01 5.1100000000e-04 0.0000e+00 -1.0000e+00
       12  1    4    4    0    0 -2.6017611868e+00 +8.3386734901e-02 -2.5328345541e+00 3.6319919464e+00 0.0000000000e+00 0.0000e+00 -1.0000e+00
      -12  1    3    3    0    0 -1.7800381280e+01 +7.2273085367e+00 +3.8917038083e+01 4.3400730587e+01 0.0000000000e+00 0.0000e+00 1.0000e+00
</event>
<event>
 8      3 +3.7482383e-04 9.11880000e+01 7.81616400e-03 1.18400000e-01
      -11 -1    0    0    0    0 +0.0000000000e+00 +0.0000000000e+00 +4.5593999997e+01 4.5594000000e+01 5.1100000000e-04 0.0000e+00 1.0000e+00
       11 -1    0    0    0    0 -0.0000000000e+00 -0.0000000000e+00 -4.5593999997e+01 4.5594000000e+01 5.1100000000e-04 0.0000e+00 -1.0000e+00
       23  2    1    2    0    0 -7.1054273576e-15 +0.0000000000e+00 -1.7763568394e-15 9.1188000000e+01 9.1188000000e+01 1.2846e-14 0.0000e+00
  9990012  2    3    3    0    0 +3.6163693845e+01 +2.1699079276e+01 +1.0245024116e+01 4.7787270593e+01 1.9999997940e+01 1.6613e-01 0.0000e+00
      -11  1    4    4    0    0 +2.9121747735e+01 +1.0438869730e+01 +6.6757919796e+00 3.1648260477e+01 5.1100000000e-04 0.0000e+00 -1.0000e+00
       11  1    4    4    0    0 +8.6894575515e+00 +8.4171346329e+00 +1.3476486604e+00 1.2172550478e+01 5.1100000000e-04 0.0000e+00 1.0000e+00
       12  1    4    4    0    0 -1.6475114419e+00 +2.8430749135e+00 +2.2215834765e+00 3.9664596378e+00 0.0000000000e+00 0.0000e+00 -1.0000e+00
      -12  1    3    3    0    0 -3.6163693845e+01 -2.1699079276e+01 -1.0245024116e+01 4.3400729407e+01 0.0000000000e+00 0.0000e+00 1.0000e+00
</event>
<event>
 8      4 +3.7482383e-04 9.11880000e+01 7.81616400e-03 1.18400000e-01
      -11 -1    0    0    0    0 +0.0000000000e+00 +0.0000000000e+00 +4.5593999997e+01 4.5594000000e+01 5.1100000000e-04 0.0000e+00 -1.0000e+00
       11 -1    0    0    0    0 -0.0000000000e+00 -0.0000000000e+00 -4.5593999997e+01 4.5594000000e+01 5.1100000000e-04 0.0000e+00 1.0000e+00
       23  2    1    2    0    0 -3.5527136788e-15 +0.0000000000e+00 +0.0000000000e+00 9.1188000000e+01 9.1188000000e+01 2.7256e-16 0.0000e+00
 -9990012  2    3    3    0    0 -2.3865199166e+01 -1.6887344137e+01 -3.2076362165e+01 4.7787272668e+01 2.0000007402e+01 2.8773e-01 0.0000e+00
      -11  1    4    4    0    0 +2.4740320626e+00 -4.2449623958e-01 -6.9951677006e+00 7.4319178631e+00 5.1100000000e-04 0.0000e+00 -1.0000e+00
       11  1    4    4    0    0 -1.6245375972e+00 +4.1711451873e-01 -1.5454545200e+00 2.2806878044e+00 5.1100000000e-04 0.0000e+00 1.0000e+00
      -12  1    4    4    0    0 -2.4714693632e+01 -1.6879962416e+01 -2.3535739944e+01 3.8074667000e+01 0.0000000000e+00 0.0000e+00 1.0000e+00
       12  1    3    3    0    0 +2.3865199166e+01 +1.6887344137e+01 +3.2076362165e+01 4.3400727332e+01 0.0000000000e+00 0.0000e+00 -1.0000e+00
</event>
<event>
 8      4 +3.7482383e-04 9.11880000e+01 7.81616400e-03 1.18400000e-01
      -11 -1    0    0    0    0 +0.0000000000e+00 +0.0000000000e+00 +4.5593999997e+01 4.5594000000e+01 5.1100000000e-04 0.0000e+00 -1.0000e+00
       11 -1    0    0    0    0 -0.0000000000e+00 -0.0000000000e+00 -4.5593999997e+01 4.5594000000e+01 5.1100000000e-04 0.0000e+00 1.0000e+00
       23  2    1    2    0    0 +3.5527136788e-15 -3.5527136788e-15 -3.5527136788e-15 9.1188000000e+01 9.1188000000e+01 6.5814e-14 0.0000e+00
 -9990012  2    3    3    0    0 +2.6819521793e+01 -3.1585445204e+01 -1.2911091979e+01 4.7787269660e+01 1.9999993689e+01 3.8246e-01 0.0000e+00
      -11  1    4    4    0    0 +3.4408938465e-01 +2.1449743108e+00 -7.8418632831e-01 2.3096018612e+00 5.1100000000e-04 0.0000e+00 -1.0000e+00
       11  1    4    4    0    0 +1.6903787344e+01 -2.2525832494e+01 -3.4419877506e+00 2.8372494357e+01 5.1100000000e-04 0.0000e+00 1.0000e+00
      -12  1    4    4    0    0 +9.5716450636e+00 -1.1204587021e+01 -8.6849179005e+00 1.7105173442e+01 0.0000000000e+00 0.0000e+00 1.0000e+00
       12  1    3    3    0    0 -2.6819521793e+01 +3.1585445204e+01 +1.2911091979e+01 4.3400730340e+01 0.0000000000e+00 0.0000e+00 -1.0000e+00
</event>
<event>
 8      4 +3.7482383e-04 9.11880000e+01 7.81616400e-03 1.18400000e-01
      -11 -1    0    0    0    0 +0.0000000000e+00 +0.0000000000e+00 +4.5593999997e+01 4.5594000000e+01 5.1100000000e-04 0.0000e+00 -1.0000e+00
       11 -1    0    0    0    0 -0.0000000000e+00 -0.0000000000e+00 -4.5593999997e+01 4.5594000000e+01 5.1100000000e-04 0.0000e+00 1.0000e+00
       23  2    1    2    0    0 -3.5527136788e-15 +0.0000000000e+00 -3.5527136788e-15 9.1188000000e+01 9.1188000000e+01 7.0849e-14 0.0000e+00
 -9990012  2    3    3    0    0 -2.2271663263e+01 +2.2385980983e+01 -2.9773546487e+01 4.7787271901e+01 2.0000003906e+01 9.6836e-01 0.0000e+00
      -11  1    4    4    0    0 -2.1943838636e+01 +1.3831486166e+01 -2.6146856286e+01 3.6830695860e+01 5.1100000000e-04 0.0000e+00 1.0000e+00
       11  1    4    4    0    0 -1.3443545458e+00 +7.9405481784e-01 +1.0099630358e+00 1.8595262282e+00 5.1100000000e-04 0.0000e+00 -1.0000e+00
      -12  1    4    4    0    0 +1.0165299188e+00 +7.7604399993e+00 -4.6366532374e+00 9.0970498131e+00 0.0000000000e+00 0.0000e+00 1.0000e+00
       12  1    3    3    0    0 +2.2271663263e+01 -2.2385980983e+01 +2.9773546487e+01 4.3400728099e+01 0.0000000000e+00 0.0000e+00 -1.0000e+00
</event>
<event>
 8      4 +3.7482383e-04 9.11880000e+01 7.81616400e-03 1.18400000e-01
      -11 -1    0    0    0    0 +0.0000000000e+00 +0.0000000000e+00 +4.5593999997e+01 4.5594000000e+01 5.1100000000e-04 0.0000e+00 1.0000e+00
       11 -1    0    0    0    0 -0.0000000000e+00 -0.0000000000e+00 -4.5593999997e+01 4.5594000000e+01 5.1100000000e-04 0.0000e+00 -1.0000e+00
       23  2    1    2    0    0 +0.0000000000e+00 +0.0000000000e+00 +3.5527136788e-15 9.1188000000e+01 9.1188000000e+01 4.0217e-14 0.0000e+00
 -9990012  2    3    3    0    0 +2.5879158362e+01 -2.0273487756e+01 +2.8335107586e+01 4.7787268840e+01 1.9999989948e+01 2.0367e-01 0.0000e+00
      -11  1    4    4    0    0 +2.1199671592e+01 -1.1112227198e+01 +1.4829127822e+01 2.8156894380e+01 5.1100000000e-04 0.0000e+00 1.0000e+00
       11  1    4    4    0    0 -1.3012229548e+00 +1.3461086397e+00 +6.4852593854e-01 1.9813570607e+00 5.1100000000e-04 0.0000e+00 -1.0000e+00
      -12  1    4    4    0    0 +5.9807097247e+00 -1.0507369197e+01 +1.2857453826e+01 1.7649017399e+01 0.0000000000e+00 0.0000e+00 1.0000e+00
       12  1    3    3    0    0 -2.5879158362e+01 +2.0273487756e+01 -2.8335107586e+01 4.3400731160e+01 0.0000000000e+00 0.0000e+00 -1.0000e+00
</event>
<event>
 8      3 +3.7482383e-04 9.11880000e+01 7.81616400e-03 1.18400000e-01
      -11 -1    0    0    0    0 +0.0000000000e+00 +0.0000000000e+00 +4.5593999997e+01 4.5594000000e+01 5.1100000000e-04 0.0000e+00 1.0000e+00
       11 -1    0    0    0    0 -0.0000000000e+00 -0.0000000000e+00 -4.5593999997e+01 4.5594000000e+01 5.1100000000e-04 0.0000e+00 -1.0000e+00
       23  2    1    2    0    0 -3.5527136788e-15 -8.8817841970e-16 +7.1054273576e-15 9.1188000000e+01 9.1188000000e+01 1.4389e-14 0.0000e+00
  9990012  2    3    3    0    0 +2.3658330976e+01 +5.5263277391e+00 -3.5963405079e+01 4.7787269272e+01 1.9999991921e+01 2.5597e-01 0.0000e+00
      -11  1    4    4    0    0 -9.0463547659e-02 -4.1050065844e+00 -4.4260754285e+00 6.0373344011e+00 5.1100000000e-04 0.0000e+00 1.0000e+00
       11  1    4    4    0    0 +1.0522250800e+01 +3.6584285033e-02 -8.6118690849e+00 1.3597183153e+01 5.1100000000e-04 0.0000e+00 -1.0000e+00
       12  1    4    4    0    0 +1.3226543723e+01 +9.5947500384e+00 -2.2925460565e+01 2.8152751718e+01 0.0000000000e+00 0.0000e+00 -1.0000e+00
      -12  1    3    3    0    0 -2.3658330976e+01 -5.5263277391e+00 +3.5963405079e+01 4.3400730728e+01 0.0000000000e+00 0.0000e+00 1.0000e+00
</event>
<event>
 8      4 +3.7482383e-04 9.11880000e+01 7.81616400e-03 1.18400000e-01
      -11 -1    0    0    0    0 +0.0000000000e+00 +0.0000000000e+00 +4.5593999997e+01 4.5594000000e+01 5.1100000000e-04 0.0000e+00 -1.0000e+00
       11 -1    0    0    0    0 -0.0000000000e+00 -0.0000000000e+00 -4.5593999997e+01 4.5594000000e+01 5.1100000000e-04 0.0000e+00 1.0000e+00
       23  2    1    2    0    0 -3.5527136788e-15 +0.0000000000e+00 +0.0000000000e+00 9.1188000000e+01 9.1188000000e+01 3.9512e-14 0.0000e+00
 -9990012  2    3    3    0    0 +2.1138714935e+01 +2.2734656486e+01 -3.0330075756e+01 4.7787269937e+01 1.9999994951e+01 3.3679e-02 0.0000e+00
      -11  1    4    4    0    0 +1.3621354162e+01 +7.5909415256e+00 -2.5037222878e+01 2.9496206742e+01 5.1100000000e-04 0.0000e+00 1.0000e+00
       11  1    4    4    0    0 +2.8312152520e+00 +3.8336559696e+00 +4.1417637045e-01 4.7837475083e+00 5.1100000000e-04 0.0000e+00 -1.0000e+00
      -12  1    4    4    0    0 +4.6861455215e+00 +1.1310058991e+01 -5.7070292482e+00 1.3507315687e+01 0.0000000000e+00 0.0000e+00 1.0000e+00
       12  1    3    3    0    0 -2.1138714935e+01 -2.2734656486e+01 +3.0330075756e+01 4.3400730063e+01 0.0000000000e+00 0.0000e+00 -1.0000e+00
</event>
<event>
 8      4 +3.7482383e-04 9.11880000e+01 7.81616400e-03 1.18400000e-01
      -11 -1    0    0    0    0 +0.0000000000e+00 +0.0000000000e+00 +4.5593999997e+01 4.5594000000e+01 5.1100000000e-04 0.0000e+00 1.0000e+00
       11 -1    0    0    0    0 -0.0000000000e+00 -0.0000000000e+00 -4.5593999997e+01 4.5594000000e+01 5.1100000000e-04 0.0000e+00 -1.0000e+00
       23  2    1    2    0    0 +0.0000000000e+00 +1.7763568394e-15 +0.0000000000e+00 9.1188000000e+01 9.1188000000e+01 1.4867e-13 0.0000e+00
 -9990012  2    3    3    0    0 -3.5379310804e+01 +1.4372671008e+01 +2.0624110387e+01 4.7787271503e+01 2.0000002089e+01 1.1189e-01 0.0000e+00
      -11  1    4    4    0    0 -1.0412720528e+01 +2.3232503875e+00 +5.7711333292e+00 1.2129642259e+01 5.1100000000e-04 0.0000e+00 1.0000e+00
       11  1    4    4    0    0 -3.2663047125e-02 -1.3335925250e+00 -2.2329606800e+00 2.6010862264e+00 5.1100000000e-04 0.0000e+00 -1.0000e+00
      -12  1    4    4    0    0 -2.4933927229e+01 +1.3383013145e+01 +1.7085937738e+01 3.3056543018e+01 0.0000000000e+00 0.0000e+00 1.0000e+00
       12  1    3    3    0    0 +3.5379310804e+01 -1.4372671008e+01 -2.0624110387e+01 4.3400728497e+01 0.0000000000e+00 0.0000e+00 -1.0000e+00
</event>
<event>
 8      3 +3.7482383e-04 9.11880000e+01 7.81616400e-03 1.18400000e-01
      -11 -1    0    0    0    0 +0.0000000000e+00 +0.0000000000e+00 +4.5593999997e+01 4.5594000000e+01 5.1100000000e-04 0.0000e+00 -1.0000e+00
       11 -1    0    0    0    0 -0.0000000000e+00 -0.0000000000e+00 -4.5593999997e+01 4.5594000000e+01 5.1100000000e-04 0.0000e+00 1.0000e+00
       23  2    1    2    0    0 +0.0000000000e+00 +0.0000000000e+00 +0.0000000000e+00 9.1188000000e+01 9.1188000000e+01 5.2270e-14 0.0000e+00
  9990012  2    3    3    0    0 +2.2513633548e+01 +6.5879350254e+00 +3.6515184653e+01 4.7787270816e+01 1.9999998960e+01 1.4475e-02 0.0000e+00
      -11  1    4    4    0    0 +6.9029102695e+00 -1.9367454138e+00 +2.1053743188e+01 2.2240981441e+01 5.1100000000e-04 0.0000e+00 1.0000e+00
       11  1    4    4    0    0 +1.2236091681e+01 +9.2438061564e+00 +7.9348245079e+00 1.7266480015e+01 5.1100000000e-04 0.0000e+00 -1.0000e+00
       12  1    4    4    0    0 +3.3746315968e+00 -7.1912571722e-01 +7.5266169577e+00 8.2798093601e+00 0.0000000000e+00 0.0000e+00 -1.0000e+00
      -12  1    3    3    0    0 -2.2513633548e+01 -6.5879350254e+00 -3.6515184653e+01 4.3400729184e+01 0.0000000000e+00 0.0000e+00 1.0000e+00
</event>
<event>
 8      4 +3.7482383e-04 9.11880000e+01 7.81616400e-03 1.18400000e-01
      -11 -1    0    0    0    0 +0.0000000000e+00 +0.0000000000e+00 +4.5593999997e+01 4.5594000000e+01 5.1100000000e-04 0.0000e+00 1.0000e+00
       11 -1    0    0    0    0 -0.0000000000e+00 -0.0000000000e+00 -4.5593999997e+01 4.5594000000e+01 5.1100000000e-04 0.0000e+00 -1.0000e+00
       23  2    1    2    0    0 +0.0000000000e+00 -4.4408920985e-16 +0.0000000000e+00 9.1188000000e+01 9.1188000000e+01 9.8073e-14 0.0000e+00
 -9990012  2    3    3    0    0 -6.4912646474e+00 +5.7873335887e-01 +4.2908639892e+01 4.7787276199e+01 2.0000023502e+01 1.5663e-03 0.0000e+00
      -11  1    4    4    0    0 -2.0597489888e+00 +6.0604178939e+00 +2.6255671486e+01 2.7024646462e+01 5.1100000000e-04 0.0000e+00 1.0000e+00
       11  1    4    4    0    0 +5.8244394718e-01 -6.8645441353e+00 +7.1469206189e+00 9.9267155561e+00 5.1100000000e-04 0.0000e+00 -1.0000e+00
      -12  1    4    4    0    0 -5.0139596058e+00 +1.3828596002e+00 +9.5060477876e+00 1.0835914181e+01 0.0000000000e+00 0.0000e+00 1.0000e+00
       12  1    3    3    0    0 +6.4912646474e+00 -5.7873335887e-01 -4.2908639892e+01 4.3400723801e+01 0.0000000000e+00 0.0000e+00 -1.0000e+00
</event>
<event>
 8      4 +3.7482383e-04 9.11880000e+01 7.81616400e-03 1.18400000e-01
      -11 -1    0    0    0    0 +0.0000000000e+00 +0.0000000000e+00 +4.5593999997e+01 4.5594000000e+01 5.1100000000e-04 0.0000e+00 1.0000e+00
       11 -1    0    0    0    0 -0.0000000000e+00 -0.0000000000e+00 -4.5593999997e+01 4.5594000000e+01 5.1100000000e-04 0.0000e+00 -1.0000e+00
       23  2    1    2    0    0 +0.0000000000e+00 +0.0000000000e+00 +0.0000000000e+00 9.1188000000e+01 9.1188000000e+01 4.8646e-14 0.0000e+00
 -9990012  2    3    3    0    0 +3.7167505745e+01 -1.4254699755e+01 +1.7291715811e+01 4.7787269774e+01 1.9999994209e+01 5.6798e-03 0.0000e+00
      -11  1    4    4    0    0 +2.2505439324e+01 -1.1793077269e+01 +7.5550620664e+00 2.6507554276e+01 5.1100000000e-04 0.0000e+00 1.0000e+00
       11  1    4    4    0    0 +2.6249227832e+00 +3.8815698365e+00 +2.4935535357e-01 4.6924388506e+00 5.1100000000e-04 0.0000e+00 -1.0000e+00
      -12  1    4    4    0    0 +1.2037143638e+01 -6.3431923230e+00 +9.4872983910e+00 1.6587276647e+01 0.0000000000e+00 0.0000e+00 1.0000e+00
       12  1    3    3    0    0 -3.7167505745e+01 +1.4254699755e+01 -1.7291715811e+01 4.3400730226e+01 0.0000000000e+00 0.0000e+00 -1.0000e+00
</event>
<event>
 8      4 +3.7482383e-04 9.11880000e+01 7.81616400e-03 1.18400000e-01
      -11 -1    0    0    0    0 +0.0000000000e+00 +0.0000000000e+00 +4.5593999997e+01 4.5594000000e+01 5.1100000000e-04 0.0000e+00 -1.0000e+00
       11 -1    0    0    0    0 -0.0000000000e+00 -0.0000000000e+00 -4.5593999997e+01 4.5594000000e+01 5.1100000000e-04 0.0000e+00 1.0000e+00
       23  2    1    2    0    0 +0.0000000000e+00 +0.0000000000e+00 +1.1102230246e-15 9.1188000000e+01 9.1188000000e+01 1.8356e-16 0.0000e+00
 -9990012  2    3    3    0    0 +4.3361417198e+01 -1.5999455767e+00 +9.2240099740e-01 4.7787272461e+01 2.0000006461e+01 1.4944e-01 0.0000e+00
      -11  1    4    4    0    0 +3.3834862157e+01 +2.7126914445e-01 -6.4118085535e+00 3.4438100605e+01 5.1100000000e-04 0.0000e+00 1.0000e+00
       11  1    4    4    0    0 +4.1764099771e-01 -1.9254909581e+00 +1.9277850623e+00 2.7565004880e+00 5.1100000000e-04 0.0000e+00 -1.0000e+00
      -12  1    4    4    0    0 +9.1089140437e+00 +5.4276236946e-02 +5.4064244886e+00 1.0592671368e+01 0.0000000000e+00 0.0000e+00 1.0000e+00
       12  1    3    3    0    0 -4.3361417198e+01 +1.5999455767e+00 -9.2240099740e-01 4.3400727539e+01 0.0000000000e+00 0.0000e+00 -1.0000e+00
</event>
<event>
 8      3 +3.7482383e-04 9.11880000e+01 7.81616400e-03 1.18400000e-01
      -11 -1    0    0    0    0 +0.0000000000e+00 +0.0000000000e+00 +4.5593999997e+01 4.5594000000e+01 5.1100000000e-04 0.0000e+00 1.0000e+00
       11 -1    0    0    0    0 -0.0000000000e+00 -0.0000000000e+00 -4.5593999997e+01 4.5594000000e+01 5.1100000000e-04 0.0000e+00 -1.0000e+00
       23  2    1    2    0    0 +0.0000000000e+00 +7.1054273576e-15 +0.0000000000e+00 9.1188000000e+01 9.1188000000e+01 2.0756e-14 0.0000e+00
  9990012  2    3    3    0    0 +2.0891360539e+01 +3.5518882534e+01 +1.3622908735e+01 4.7787267240e+01 1.9999982655e+01 2.8372e-01 0.0000e+00
      -11  1    4    4    0    0 +1.1132893142e+01 +1.5799368910e+01 +1.5392284797e+01 2.4707970358e+01 5.1100000000e-04 0.0000e+00 1.0000e+00
       11  1    4    4    0    0 -4.4912826149e-01 +1.1945728080e+00 -1.4420527062e+00 1.9256782331e+00 5.1100000000e-04 0.0000e+00 -1.0000e+00
       12  1    4    4    0    0 +1.0207595659e+01 +1.8524940816e+01 -3.2732335566e-01 2.1153618649e+01 0.0000000000e+00 0.0000e+00 -1.0000e+00
      -12  1    3    3    0    0 -2.0891360539e+01 -3.5518882534e+01 -1.3622908735e+01 4.3400732760e+01 0.0000000000e+00 0.0000e+00 1.0000e+00
</event>
<event>
 8      3 +3.7482383e-04 9.11880000e+01 7.81616400e-03 1.18400000e-01
      -11 -1    0    0    0    0 +0.0000000000e+00 +0.0000000000e+00 +4.5593999997e+01 4.5594000000e+01 5.1100000000e-04 0.0000e+00 1.0000e+00
       11 -1    0    0    0    0 -0.0000000000e+00 -0.0000000000e+00 -4.5593999997e+01 4.5594000000e+01 5.1100000000e-04 0.0000e+00 -1.0000e+00
       23  2    1    2    0    0 +1.4210854715e-14 +0.0000000000e+00 -1.7763568394e-15 9.1188000000e+01 9.1188000000e+01 6.4305e-14 0.0000e+00
  9990012  2    3    3    0    0 +4.0751670860e+01 +9.2606862533e+00 -1.1711731633e+01 4.7787266761e+01 1.9999980472e+01 2.7052e-01 0.0000e+00
      -11  1    4    4    0    0 +7.8268732514e-01 +3.6523466599e+00 -4.2840970573e+00 5.6838124028e+00 5.1100000000e-04 0.0000e+00 1.0000e+00
       11  1    4    4    0    0 +7.3387636583e+00 -1.3727982207e+00 -4.2321456544e+00 8.5821375011e+00 5.1100000000e-04 0.0000e+00 -1.0000e+00
       12  1    4    4    0    0 +3.2630219877e+01 +6.9811378141e+00 -3.1954889217e+00 3.3521316857e+01 0.0000000000e+00 0.0000e+00 -1.0000e+00
      -12  1    3    3    0    0 -4.0751670860e+01 -9.2606862533e+00 +1.1711731633e+01 4.3400733239e+01 0.0000000000e+00 0.0000e+00 1.0000e+00
</event>
<event>
 8      3 +3.7482383e-04 9.11880000e+01 7.81616400e-03 1.18400000e-01
      -11 -1    0    0    0    0 +0.0000000000e+00 +0.0000000000e+00 +4.5593999997e+01 4.5594000000e+01 5.1100000000e-04 0.0000e+00 1.0000e+00
       11 -1    0    0    0    0 -0.0000000000e+00 -0.0000000000e+00 -4.5593999997e+01 4.5594000000e+01 5.1100000000e-04 0.0000e+00 -1.0000e+00
       23  2    1    2    0    0 +3.5527136788e-15 +0.0000000000e+00 +0.0000000000e+00 9.1188000000e+01 9.1188000000e+01 1.0376e-13 0.0000e+00
  9990012  2    3    3    0    0 -2.0284813027e+01 -2.1058190314e+01 -3.2073386300e+01 4.7787272729e+01 2.0000007682e+01 8.5982e-02 0.0000e+00
      -11  1    4    4    0    0 -4.0209065593e+00 +1.4085879407e+00 +5.0168416586e-02 4.2607894428e+00 5.1100000000e-04 0.0000e+00 1.0000e+00
       11  1    4    4    0    0 -1.2608421528e+01 -1.8440933926e+01 -1.9019996643e+01 2.9339403710e+01 5.1100000000e-04 0.0000e+00 -1.0000e+00
       12  1    4    4    0    0 -3.6554849400e+00 -4.0258443281e+00 -1.3103558074e+01 1.4187079576e+01 0.0000000000e+00 0.0000e+00 -1.0000e+00
      -12  1    3    3    0    0 +2.0284813027e+01 +2.1058190314e+01 +3.2073386300e+01 4.3400727271e+01 0.0000000000e+00 0.0000e+00 1.0000e+00
</event>
<event>
 8      3 +3.7482383e-04 9.11880000e+01 7.81616400e-03 1.18400000e-01
      -11 -1    0    0    0    0 +0.0000000000e+00 +0.0000000000e+00 +4.5593999997e+01 4.5594000000e+01 5.1100000000e-04 0.0000e+00 1.0000e+00
       11 -1    0    0    0    0 -0.0000000000e+00 -0.0000000000e+00 -4.5593999997e+01 4.5594000000e+01 5.1100000000e-04 0.0000e+00 -1.0000e+00
       23  2    1    2    0    0 +0.0000000000e+00 +0.0000000000e+00 +0.0000000000e+00 9.1188000000e+01 9.1188000000e+01 1.2765e-13 0.0000e+00
  9990012  2    3    3    0    0 +1.3456693879e+01 -2.4270044180e+01 -3.3369237191e+01 4.7787266765e+01 1.9999980487e+01 2.0865e-01 0.0000e+00
      -11  1    4    4    0    0 +2.2126315282e+00 -3.6939787061e+00 +1.5328718243e+00 4.5706578576e+00 5.1100000000e-04 0.0000e+00 -1.0000e+00
       11  1    4    4    0    0 +3.6307232197e+00 -8.7820317103e+00 -6.4358855099e+00 1.1477232010e+01 5.1100000000e-04 0.0000e+00 1.0000e+00
       12  1    4    4    0    0 +7.6133391307e+00 -1.1794033764e+01 -2.8466223505e+01 3.1739376897e+01 0.0000000000e+00 0.0000e+00 -1.0000e+00
      -12  1    3    3    0    0 -1.3456693879e+01 +2.4270044180e+01 +3.3369237191e+01 4.3400733235e+01 0.0000000000e+00 0.0000e+00 1.0000e+00
</event>
<event>
 8      3 +3.7482383e-04 9.11880000e+01 7.81616400e-03 1.18400000e-01
      -11 -1    0    0    0    0 +0.0000000000e+00 +0.0000000000e+00 +4.5593999997e+01 4.5594000000e+01 5.1100000000e-04 0.0000e+00 1.0000e+00
       11 -1    0    0    0    0 -0.0000000000e+00 -0.0000000000e+00 -4.5593999997e+01 4.5594000000e+01 5.1100000000e-04 0.0000e+00 -1.0000e+00
       23  2    1    2    0    0 +0.0000000000e+00 +0.0000000000e+00 +0.0000000000e+00 9.1188000000e+01 9.1188000000e+01 7.9628e-14 0.0000e+00
  9990012  2    3    3    0    0 +2.5720435932e+01 -1.1527473659e+01 -3.3003024326e+01 4.7787273184e+01 2.0000009757e+01 2.1338e-03 0.0000e+00
      -11  1    4    4    0    0 +7.1723095484e+00 +3.9071903208e+00 -7.9225447340e+00 1.1378702728e+01 5.1100000000e-04 0.0000e+00 1.0000e+00
       11  1    4    4    0    0 +1.4661010738e+01 -1.3138617147e+01 -1.3208652663e+01 2.3707319583e+01 5.1100000000e-04 0.0000e+00 -1.0000e+00
       12  1    4    4    0    0 +3.8871156450e+00 -2.2960468331e+00 -1.1871826929e+01 1.2701250873e+01 0.0000000000e+00 0.0000e+00 -1.0000e+00
      -12  1    3    3    0    0 -2.5720435932e+01 +1.1527473659e+01 +3.3003024326e+01 4.3400726816e+01 0.0000000000e+00 0.0000e+00 1.0000e+00
</event>
<event>
 8      4 +3.7482383e-04 9.11880000e+01 7.81616400e-03 1.18400000e-01
      -11 -1    0    0    0    0 +0.0000000000e+00 +0.0000000000e+00 +4.5593999997e+01 4.5594000000e+01 5.1100000000e-04 0.0000e+00 -1.0000e+00
       11 -1    0    0    0    0 -0.0000000000e+00 -0.0000000000e+00 -4.5593999997e+01 4.5594000000e+01 5.1100000000e-04 0.0000e+00 1.0000e+00
       23  2    1    2    0    0 +0.0000000000e+00 +0.0000000000e+00 +0.0000000000e+00 9.1188000000e+01 9.1188000000e+01 4.0051e-14 0.0000e+00
 -9990012  2    3    3    0    0 +2.0460249631e+01 +8.4218498929e+00 -3.7337293200e+01 4.7787276111e+01 2.0000023099e+01 2.7049e-01 0.0000e+00
      -11  1    4    4    0    0 +1.7057575081e+01 -2.6197461268e+00 -2.6461931007e+01 3.1592051695e+01 5.1100000000e-04 0.0000e+00 1.0000e+00
       11  1    4    4    0    0 +9.9722307153e-02 +2.9140653512e+00 -1.2522609727e+00 3.1733072991e+00 5.1100000000e-04 0.0000e+00 -1.0000e+00
      -12  1    4    4    0    0 +3.3029522429e+00 +8.1275306685e+00 -9.6231012211e+00 1.3021917117e+01 0.0000000000e+00 0.0000e+00 1.0000e+00
       12  1    3    3    0    0 -2.0460249631e+01 -8.4218498929e+00 +3.7337293200e+01 4.3400723889e+01 0.0000000000e+00 0.0000e+00 -1.0000e+00
</event>
<event>
 8      3 +3.7482383e-04 9.11880000e+01 7.81616400e-03 1.18400000e-01
      -11 -1    0    0    0    0 +0.0000000000e+00 +0.0000000000e+00 +4.5593999997e+01 4.5594000000e+01 5.1100000000e-04 0.0000e+00 -1.0000e+00
       11 -1    0    0    0    0 -0.0000000000e+00 -0.0000000000e+00 -4.5593999997e+01 4.5594000000e+01 5.1100000000e-04 0.0000e+00 1.0000e+00
       23  2    1    2    0    0 +0.0000000000e+00 +3.5527136788e-15 +0.0000000000e+00 9.1188000000e+01 9.1188000000e+01 1.9240e-13 0.0000e+00
  9990012  2    3    3    0    0 +3.4027541849e+01 +2.5526039105e+01 -8.6122830922e+00 4.7787266173e+01 1.9999977788e+01 7.6742e-02 0.0000e+00
      -11  1    4    4    0    0 +7.4634387021e+00 +1.2154801027e+01 -1.8286193315e+00 1.4380054040e+01 5.1100000000e-04 0.0000e+00 1.0000e+00
       11  1    4    4    0    0 +2.2543428732e+01 +5.0086937399e+00 -6.9841125509e+00 2.4126148063e+01 5.1100000000e-04 0.0000e+00 -1.0000e+00
       12  1    4    4    0    0 +4.0206744155e+00 +8.3625443372e+00 +2.0044879023e-01 9.2810640696e+00 0.0000000000e+00 0.0000e+00 -1.0000e+00
      -12  1    3    3    0    0 -3.4027541849e+01 -2.5526039105e+01 +8.6122830922e+00 4.3400733827e+01 0.0000000000e+00 0.0000e+00 1.0000e+00
</event>
<event>
 8      3 +3.7482383e-04 9.11880000e+01 7.81616400e-03 1.18400000e-01
      -11 -1    0    0    0    0 +0.0000000000e+00 +0.0000000000e+00 +4.5593999997e+01 4.5594000000e+01 5.1100000000e-04 0.0000e+00 -1.0000e+00
       11 -1    0    0    0    0 -0.0000000000e+00 -0.0000000000e+00 -4.5593999997e+01 4.5594000000e+01 5.1100000000e-04 0.0000e+00 1.0000e+00
       23  2    1    2    0    0 +0.0000000000e+00 -7.1054273576e-15 +1.1102230246e-16 9.1188000000e+01 9.1188000000e+01 7.0358e-14 0.0000e+00
  9990012  2    3    3    0    0 +3.1326724750e+00 +4.3279755835e+01 +8.2003031302e-01 4.7787270148e+01 1.9999995914e+01 5.4199e-03 0.0000e+00
      -11  1    4    4    0    0 -4.4381457618e+00 +1.5493389790e+01 -5.9952807062e+00 1.7195512670e+01 5.1100000000e-04 0.0000e+00 1.0000e+00
       11  1    4    4    0    0 +8.4629973312e+00 +2.6719357486e+01 +5.2808638596e+00 2.8520762817e+01 5.1100000000e-04 0.0000e+00 -1.0000e+00
       12  1    4    4    0    0 -8.9217909445e-01 +1.0670085593e+00 +1.5344471596e+00 2.0709946615e+00 0.0000000000e+00 0.0000e+00 -1.0000e+00
      -12  1    3    3    0    0 -3.1326724750e+00 -4.3279755835e+01 -8.2003031302e-01 4.3400729852e+01 0.0000000000e+00 0.0000e+00 1.0000e+00
</event>
<event>
 8      3 +3.7482383e-04 9.11880000e+01 7.81616400e-03 1.18400000e-01
      -11 -1    0    0    0    0 +0.0000000000e+00 +0.0000000000e+00 +4.5593999997e+01 4.5594000000e+01 5.1100000000e-04 0.0000e+00 1.0000e+00
       11 -1    0    0    0    0 -0.0000000000e+00 -0.0000000000e+00 -4.5593999997e+01 4.5594000000e+01 5.1100000000e-04 0.0000e+00 -1.0000e+00
       23  2    1    2    0    0 +0.0000000000e+00 +0.0000000000e+00 +0.0000000000e+00 9.1188000000e+01 9.1188000000e+01 1.3264e-13 0.0000e+00
  9990012  2    3    3    0    0 +2.8370521996e+01 -8.9684041097e+00 -3.1595963144e+01 4.7787266393e+01 1.9999978792e+01 4.6445e-02 0.0000e+00
      -11  1    4    4    0    0 -2.5438739036e-01 +8.1716648852e-01 +7.5881641486e-01 1.1437992074e+00 5.1100000000e-04 0.0000e+00 1.0000e+00
       11  1    4    4    0    0 +9.5622633729e+00 +3.2613722246e+00 -6.7077459823e+00 1.2127130164e+01 5.1100000000e-04 0.0000e+00 -1.0000e+00
       12  1    4    4    0    0 +1.9062646014e+01 -1.3046942823e+01 -2.5647033577e+01 3.4516337021e+01 0.0000000000e+00 0.0000e+00 -1.0000e+00
      -12  1    3    3    0    0 -2.8370521996e+01 +8.9684041097e+00 +3.1595963144e+01 4.3400733607e+01 0.0000000000e+00 0.0000e+00 1.0000e+00
</event>
<event>
 8      3 +3.7482383e-04 9.11880000e+01 7.81616400e-03 1.18400000e-01
      -11 -1    0    0    0    0 +0.0000000000e+00 +0.0000000000e+00 +4.5593999997e+01 4.5594000000e+01 5.1100000000e-04 0.0000e+00 1.0000e+00
       11 -1    0    0    0    0 -0.0000000000e+00 -0.0000000000e+00 -4.5593999997e+01 4.5594000000e+01 5.1100000000e-04 0.0000e+00 -1.0000e+00
       23  2    1    2    0    0 +7.1054273576e-15 +3.3306690739e-16 +0.0000000000e+00 9.1188000000e+01 9.1188000000e+01 8.8063e-14 0.0000e+00
  9990012  2    3    3    0    0 -3.8223133267e+01 -6.4253767210e-01 -2.0547594043e+01 4.7787258159e+01 1.9999941250e+01 2.4744e-01 0.0000e+00
      -11  1    4    4    0    0 -2.6075725548e-01 -1.3683299583e-01 +6.5957482182e-01 7.2232736465e-01 5.1100000000e-04 0.0000e+00 1.0000e+00
       11  1    4    4    0    0 -5.9506999689e+00 -6.9451488364e+00 -6.6838201862e+00 1.1327814221e+01 5.1100000000e-04 0.0000e+00 -1.0000e+00
       12  1    4    4    0    0 -3.2011676043e+01 +6.4394441601e+00 -1.4523348678e+01 3.5737116573e+01 0.0000000000e+00 0.0000e+00 -1.0000e+00
      -12  1    3    3    0    0 +3.8223133267e+01 +6.4253767210e-01 +2.0547594043e+01 4.3400741841e+01 0.0000000000e+00 0.0000e+00 1.0000e+00
</event>
<event>
 8      4 +3.7482383e-04 9.11880000e+01 7.81616400e-03 1.18400000e-01
      -11 -1    0    0    0    0 +0.0000000000e+00 +0.0000000000e+00 +4.5593999997e+01 4.5594000000e+01 5.1100000000e-04 0.0000e+00 -1.0000e+00
       11 -1    0    0    0    0 -0.0000000000e+00 -0.0000000000e+00 -4.5593999997e+01 4.5594000000e+01 5.1100000000e-04 0.0000e+00 1.0000e+00
       23  2    1    2    0    0 +3.5527136788e-15 +0.0000000000e+00 +0.0000000000e+00 9.1188000000e+01 9.1188000000e+01 7.0146e-14 0.0000e+00
 -9990012  2    3    3    0    0 +1.0977116372e+01 -4.1217690814e+01 -8.0142589216e+00 4.7787268832e+01 1.9999989913e+01 3.4803e-02 0.0000e+00
      -11  1    4    4    0    0 -3.7295364824e+00 -1.4402279283e+01 -3.0908296140e+00 1.5195009671e+01 5.1100000000e-04 0.0000e+00 1.0000e+00
       11  1    4    4    0    0 +5.1636436077e-01 +2.3383192767e-01 +1.3009285037e+00 1.4190577001e+00 5.1100000000e-04 0.0000e+00 -1.0000e+00
      -12  1    4    4    0    0 +1.4190288493e+01 -2.7049243458e+01 -6.2243578112e+00 3.1173201461e+01 0.0000000000e+00 0.0000e+00 1.0000e+00
       12  1    3    3    0    0 -1.0977116372e+01 +4.1217690814e+01 +8.0142589216e+00 4.3400731168e+01 0.0000000000e+00 0.0000e+00 -1.0000e+00
</event>
<event>
 8      4 +3.7482383e-04 9.11880000e+01 7.81616400e-03 1.18400000e-01
      -11 -1    0    0    0    0 +0.0000000000e+00 +0.0000000000e+00 +4.5593999997e+01 4.5594000000e+01 5.1100000000e-04 0.0000e+00 1.0000e+00
       11 -1    0    0    0    0 -0.0000000000e+00 -0.0000000000e+00 -4.5593999997e+01 4.5594000000e+01 5.1100000000e-04 0.0000e+00 -1.0000e+00
       23  2    1    2    0    0 -4.4408920985e-16 -2.5847379792e-16 +7.1054273576e-15 9.1188000000e+01 9.1188000000e+01 4.1947e-13 0.0000e+00
 -9990012  2    3    3    0    0 -3.4466622210e+00 +1.4689198173e-02 +4.3263652281e+01 4.7787270686e+01 1.9999998367e+01 3.9398e-02 0.0000e+00
      -11  1    4    4    0    0 +1.0913830064e+00 -7.5230027589e+00 +9.1616571268e+00 1.1904732208e+01 5.1100000000e-04 0.0000e+00 1.0000e+00
       11  1    4    4    0    0 -1.2509258982e-01 -1.1278098117e+00 +1.6327415137e+00 1.9883280009e+00 5.1100000000e-04 0.0000e+00 -1.0000e+00
      -12  1    4    4    0    0 -4.4129526375e+00 +8.6655017688e+00 +3.2469253641e+01 3.3894210477e+01 0.0000000000e+00 0.0000e+00 1.0000e+00
       12  1    3    3    0    0 +3.4466622210e+00 -1.4689198173e-02 -4.3263652281e+01 4.3400729314e+01 0.0000000000e+00 0.0000e+00 -1.0000e+00
</event>
<event>
 8      4 +3.7482383e-04 9.11880000e+01 7.81616400e-03 1.18400000e-01
      -11 -1    0    0    0    0 +0.0000000000e+00 +0.0000000000e+00 +4.5593999997e+01 4.5594000000e+01 5.1100000000e-04 0.0000e+00 1.0000e+00
       11 -1    0    0    0    0 -0.0000000000e+00 -0.0000000000e+00 -4.5593999997e+01 4.5594000000e+01 5.1100000000e-04 0.0000e+00 -1.0000e+00
       23  2    1    2    0    0 -3.5527136788e-15 +0.0000000000e+00 +0.0000000000e+00 9.1188000000e+01 9.1188000000e+01 4.3435e-14 0.0000e+00
 -9990012  2    3    3    0    0 +1.5434995319e+01 +2.5448664041e+01 +3.1587175768e+01 4.7787271262e+01 2.0000000992e+01 3.4692e-01 0.0000e+00
      -11  1    4    4    0    0 +9.3123737615e+00 +5.7919827707e+00 +7.1278569775e+00 1.3079515084e+01 5.1100000000e-04 0.0000e+00 1.0000e+00
       11  1    4    4    0    0 +5.3242967309e+00 +2.8786927153e+00 +1.4573238246e+00 6.2256566255e+00 5.1100000000e-04 0.0000e+00 -1.0000e+00
      -12  1    4    4    0    0 +7.9832482712e-01 +1.6777988555e+01 +2.3001994966e+01 2.8482099552e+01 0.0000000000e+00 0.0000e+00 1.0000e+00
       12  1    3    3    0    0 -1.5434995319e+01 -2.5448664041e+01 -3.1587175768e+01 4.3400728738e+01 0.0000000000e+00 0.0000e+00 -1.0000e+00
</event>
<event>
 8      4 +3.7482383e-04 9.11880000e+01 7.81616400e-03 1.18400000e-01
      -11 -1    0    0    0    0 +0.0000000000e+00 +0.0000000000e+00 +4.5593999997e+01 4.5594000000e+01 5.1100000000e-04 0.0000e+00 1.0000e+00
       11 -1    0    0    0    0 -0.0000000000e+00 -0.0000000000e+00 -4.5593999997e+01 4.5594000000e+01 5.1100000000e-04 0.0000e+00 -1.0000e+00
       23  2    1    2    0    0 +0.0000000000e+00 -1.7763568394e-15 -7.1054273576e-15 9.1188000000e+01 9.1188000000e+01 1.3104e-14 0.0000e+00
 -9990012  2    3    3    0    0 -1.0279825390e+01 +1.5363719835e+01 +3.9267085512e+01 4.7787277635e+01 2.0000030048e+01 8.0443e-02 0.0000e+00
      -11  1    4    4    0    0 -6.4346506638e+00 +1.0467353381e+01 +2.8576135250e+01 3.1105718478e+01 5.1100000000e-04 0.0000e+00 1.0000e+00
       11  1    4    4    0    0 +3.9238494876e+00 +2.1095168123e+00 +4.7486688889e+00 6.5112604355e+00 5.1100000000e-04 0.0000e+00 -1.0000e+00
      -12  1    4    4    0    0 -7.7690242133e+00 +2.7868496418e+00 +5.9422813736e+00 1.0170298721e+01 0.0000000000e+00 0.0000e+00 1.0000e+00
       12  1    3    3    0    0 +1.0279825390e+01 -1.5363719835e+01 -3.9267085512e+01 4.3400722365e+01 0.0000000000e+00 0.0000e+00 -1.0000e+00
</event>
<event>
 8      3 +3.7482383e-04 9.11880000e+01 7.81616400e-03 1.18400000e-01
      -11 -1    0    0    0    0 +0.0000000000e+00 +0.0000000000e+00 +4.5593999997e+01 4.5594000000e+01 5.1100000000e-04 0.0000e+00 -1.0000e+00
       11 -1    0    0    0    0 -0.0000000000e+00 -0.0000000000e+00 -4.5593999997e+01 4.5594000000e+01 5.1100000000e-04 0.0000e+00 1.0000e+00
       23  2    1    2    0    0 +0.0000000000e+00 +0.0000000000e+00 +0.0000000000e+00 9.1188000000e+01 9.1188000000e+01 8.5879e-14 0.0000e+00
  9990012  2    3    3    0    0 +8.4667453492e+00 +2.3359010397e+01 +3.5585025930e+01 4.7787271734e+01 2.0000003145e+01 3.0403e-01 0.0000e+00
      -11  1    4    4    0    0 -2.5423050235e+00 -9.9587897188e-01 +2.1825987853e-01 2.7391106941e+00 5.1100000000e-04 0.0000e+00 1.0000e+00
       11  1    4    4    0    0 +9.0526536495e+00 +1.8803387926e+01 +3.2180514257e+01 3.8354966219e+01 5.1100000000e-04 0.0000e+00 -1.0000e+00
       12  1    4    4    0    0 +1.9563967232e+00 +5.5515014429e+00 +3.1862517948e+00 6.6931948208e+00 0.0000000000e+00 0.0000e+00 -1.0000e+00
      -12  1    3    3    0    0 -8.4667453492e+00 -2.3359010397e+01 -3.5585025930e+01 4.3400728266e+01 0.0000000000e+00 0.0000e+00 1.0000e+00
</event>
<event>
 8      3 +3.7482383e-04 9.11880000e+01 7.81616400e-03 1.18400000e-01
      -11 -1    0    0    0    0 +0.0000000000e+00 +0.0000000000e+00 +4.5593999997e+01 4.5594000000e+01 5.1100000000e-04 0.0000e+00 1.0000e+00
       11 -1    0    0    0    0 -0.0000000000e+00 -0.0000000000e+00 -4.5593999997e+01 4.5594000000e+01 5.1100000000e-04 0.0000e+00 -1.0000e+00
       23  2    1    2    0    0 +0.0000000000e+00 +0.0000000000e+00 +0.0000000000e+00 9.1188000000e+01 9.1188000000e+01 6.3967e-14 0.0000e+00
  9990012  2    3    3    0    0 +1.0753486516e+01 +4.0930036304e+01 +9.6291007582e+00 4.7787252017e+01 1.9999913246e+01 8.3687e-01 0.0000e+00
      -11  1    4    4    0    0 +4.0742515264e+00 +1.3604908962e+00 +2.6326331745e+00 5.0379776370e+00 5.1100000000e-04 0.0000e+00 1.0000e+00
       11  1    4    4    0    0 +8.8569857186e+00 +3.8202677482e+01 +5.0824930822e+00 3.9543931253e+01 5.1100000000e-04 0.0000e+00 -1.0000e+00
       12  1    4    4    0    0 -2.1777507293e+00 +1.3668679261e+00 +1.9139745015e+00 3.2053431265e+00 0.0000000000e+00 0.0000e+00 -1.0000e+00
      -12  1    3    3    0    0 -1.0753486516e+01 -4.0930036304e+01 -9.6291007582e+00 4.3400747983e+01 0.0000000000e+00 0.0000e+00 1.0000e+00
</event>
<event>
 8      4 +3.7482383e-04 9.11880000e+01 7.81616400e-03 1.18400000e-01
      -11 -1    0    0    0    0 +0.0000000000e+00 +0.0000000000e+00 +4.5593999997e+01 4.5594000000e+01 5.1100000000e-04 0.0000e+00 -1.0000e+00
       11 -1    0    0    0    0 -0.0000000000e+00 -0.0000000000e+00 -4.5593999997e+01 4.5594000000e+01 5.1100000000e-04 0.0000e+00 1.0000e+00
       23  2    1    2    0    0 +0.0000000000e+00 +3.5527136788e-15 +0.0000000000e+00 9.1188000000e+01 9.1188000000e+01 8.5438e-14 0.0000e+00
 -9990012  2    3    3    0    0 +3.6109474660e+00 -2.7323411595e+01 -3.3526339318e+01 4.7787272001e+01 2.0000004361e+01 9.4834e-02 0.0000e+00
      -11  1    4    4    0    0 +2.3161198635e-01 +1.2229216774e+00 -2.2581214421e+00 2.5784286396e+00 5.1100000000e-04 0.0000e+00 1.0000e+00
       11  1    4    4    0    0 -3.4069817324e+00 -1.9976843944e+00 -4.5802624712e-01 3.9759345780e+00 5.1100000000e-04 0.0000e+00 -1.0000e+00
      -12  1    4    4    0    0 +6.7863172120e+00 -2.6548648878e+01 -3.0810191629e+01 4.1232908783e+01 0.0000000000e+00 0.0000e+00 1.0000e+00
       12  1    3    3    0    0 -3.6109474660e+00 +2.7323411595e+01 +3.3526339318e+01 4.3400727999e+01 0.0000000000e+00 0.0000e+00 -1.0000e+00
</event>
<event>
 8      4 +3.7482383e-04 9.11880000e+01 7.81616400e-03 1.18400000e-01
      -11 -1    0    0    0    0 +0.0000000000e+00 +0.0000000000e+00 +4.5593999997e+01 4.5594000000e+01 5.1100000000e-04 0.0000e+00 1.0000e+00
       11 -1    0    0    0    0 -0.0000000000e+00 -0.0000000000e+00 -4.5593999997e+01 4.5594000000e+01 5.1100000000e-04 0.0000e+00 -1.0000e+00
       23  2    1    2    0    0 -8.8817841970e-16 +0.0000000000e+00 -7.1054273576e-15 9.1188000000e+01 9.1188000000e+01 2.1079e-14 0.0000e+00
 -9990012  2    3    3    0    0 +4.2783800526e+00 -5.7377691448e+00 +4.2806504595e+01 4.7787269980e+01 1.9999995147e+01 9.5511e-02 0.0000e+00
      -11  1    4    4    0    0 +1.9774683253e-01 -2.1170258879e+00 -1.5530038970e+00 2.6330066056e+00 5.1100000000e-04 0.0000e+00 1.0000e+00
       11  1    4    4    0    0 +2.6745241114e-01 +1.7855869052e+00 +8.5115638915e+00 8.7009523346e+00 5.1100000000e-04 0.0000e+00 -1.0000e+00
      -12  1    4    4    0    0 +3.8131808089e+00 -5.4063301621e+00 +3.5847944600e+01 3.6453311040e+01 0.0000000000e+00 0.0000e+00 1.0000e+00
       12  1    3    3    0    0 -4.2783800526e+00 +5.7377691448e+00 -4.2806504595e+01 4.3400730020e+01 0.0000000000e+00 0.0000e+00 -1.0000e+00
</event>
<event>
 8      3 +3.7482383e-04 9.11880000e+01 7.81616400e-03 1.18400000e-01
      -11 -1    0    0    0    0 +0.0000000000e+00 +0.0000000000e+00 +4.5593999997e+01 4.5594000000e+01 5.1100000000e-04 0.0000e+00 -1.0000e+00
       11 -1    0    0    0    0 -0.0000000000e+00 -0.0000000000e+00 -4.5593999997e+01 4.5594000000e+01 5.1100000000e-04 0.0000e+00 1.0000e+00
       23  2    1    2    0    0 -1.7763568394e-15 -7.1054273576e-15 +1.7763568394e-15 9.1188000000e+01 9.1188000000e+01 1.1336e-13 0.0000e+00
  9990012  2    3    3    0    0 +1.4568466703e+01 +3.9942679547e+01 -8.7158148007e+00 4.7787270754e+01 1.9999998674e+01 6.6798e-02 0.0000e+00
      -11  1    4    4    0    0 +2.7086371533e+00 +8.6818848438e+00 -8.8597650284e+00 1.2696742743e+01 5.1100000000e-04 0.0000e+00 1.0000e+00
       11  1    4    4    0    0 +1.0068895306e+01 +1.2870102181e+01 -2.1075835982e+00 1.6476167385e+01 5.1100000000e-04 0.0000e+00 -1.0000e+00
       12  1    4    4    0    0 +1.7909342444e+00 +1.8390692523e+01 +2.2515338258e+00 1.8614360625e+01 0.0000000000e+00 0.0000e+00 -1.0000e+00
      -12  1    3    3    0    0 -1.4568466703e+01 -3.9942679547e+01 +8.7158148007e+00 4.3400729246e+01 0.0000000000e+00 0.0000e+00 1.0000e+00
</event>
<event>
 8      4 +3.7482383e-04 9.11880000e+01 7.81616400e-03 1.18400000e-01
      -11 -1    0    0    0    0 +0.0000000000e+00 +0.0000000000e+00 +4.5593999997e+01 4.5594000000e+01 5.1100000000e-04 0.0000e+00 -1.0000e+00
       11 -1    0    0    0    0 -0.0000000000e+00 -0.0000000000e+00 -4.5593999997e+01 4.5594000000e+01 5.1100000000e-04 0.0000e+00 1.0000e+00
       23  2    1    2    0    0 -3.5527136788e-15 -1.7763568394e-15 +0.0000000000e+00 9.1188000000e+01 9.1188000000e+01 4.8240e-14 0.0000e+00
 -9990012  2    3    3    0    0 -2.3981472990e+01 -1.2681458328e+01 -3.3877617164e+01 4.7787269858e+01 1.9999994591e+01 1.6997e-01 0.0000e+00
      -11  1    4    4    0    0 -8.3049816184e+00 +1.0630427080e+00 -8.7322970903e+00 1.2097759802e+01 5.1100000000e-04 0.0000e+00 1.0000e+00
       11  1    4    4    0    0 -4.4679955533e+00 +1.8554391877e+00 -1.1870963612e+00 4.9814492746e+00 5.1100000000e-04 0.0000e+00 -1.0000e+00
      -12  1    4    4    0    0 -1.1208495818e+01 -1.5599940224e+01 -2.3958223713e+01 3.0708060782e+01 0.0000000000e+00 0.0000e+00 1.0000e+00
       12  1    3    3    0    0 +2.3981472990e+01 +1.2681458328e+01 +3.3877617164e+01 4.3400730142e+01 0.0000000000e+00 0.0000e+00 -1.0000e+00
</event>
<event>
 8      4 +3.7482383e-04 9.11880000e+01 7.81616400e-03 1.18400000e-01
      -11 -1    0    0    0    0 +0.0000000000e+00 +0.0000000000e+00 +4.5593999997e+01 4.5594000000e+01 5.1100000000e-04 0.0000e+00 -1.0000e+00
       11 -1    0    0    0    0 -0.0000000000e+00 -0.0000000000e+00 -4.5593999997e+01 4.5594000000e+01 5.1100000000e-04 0.0000e+00 1.0000e+00
       23  2    1    2    0    0 +0.0000000000e+00 +0.0000000000e+00 +0.0000000000e+00 9.1188000000e+01 9.1188000000e+01 1.5059e-14 0.0000e+00
 -9990012  2    3    3    0    0 -3.4614985179e+01 +2.4285802853e+01 -9.7788434314e+00 4.7787271919e+01 2.0000003986e+01 7.0396e-02 0.0000e+00
      -11  1    4    4    0    0 +2.0722011804e+00 +1.4424618648e+00 -5.4791228570e-01 2.5835870601e+00 5.1100000000e-04 0.0000e+00 1.0000e+00
       11  1    4    4    0    0 -1.5097464356e+01 +1.2092549633e+01 +9.9172622533e-02 1.9343552468e+01 5.1100000000e-04 0.0000e+00 -1.0000e+00
      -12  1    4    4    0    0 -2.1589722003e+01 +1.0750791355e+01 -9.3301037682e+00 2.5860132390e+01 0.0000000000e+00 0.0000e+00 1.0000e+00
       12  1    3    3    0    0 +3.4614985179e+01 -2.4285802853e+01 +9.7788434314e+00 4.3400728081e+01 0.0000000000e+00 0.0000e+00 -1.0000e+00
</event>
<event>
 8      3 +3.7482383e-04 9.11880000e+01 7.81616400e-03 1.18400000e-01
      -11 -1    0    0    0    0 +0.0000000000e+00 +0.0000000000e+00 +4.5593999997e+01 4.5594000000e+01 5.1100000000e-04 0.0000e+00 1.0000e+00
       11 -1    0    0    0    0 -0.0000000000e+00 -0.0000000000e+00 -4.5593999997e+01 4.5594000000e+01 5.1100000000e-04 0.0000e+00 -1.0000e+00
       23  2    1    2    0    0 +0.0000000000e+00 -3.5527136788e-15 +0.0000000000e+00 9.1188000000e+01 9.1188000000e+01 9.5447e-15 0.0000e+00
  9990012  2    3    3    0    0 +1.7274260054e+01 +1.8632788506e+01 -3.5185828501e+01 4.7787269646e+01 1.9999993624e+01 1.7598e-01 0.0000e+00
      -11  1    4    4    0    0 +4.8751824758e+00 -1.1995152114e+00 -1.1686035210e+01 1.2718870237e+01 5.1100000000e-04 0.0000e+00 1.0000e+00
       11  1    4    4    0    0 -7.8751253399e-01 +6.0792249533e+00 -9.9556799258e+00 1.1691565980e+01 5.1100000000e-04 0.0000e+00 -1.0000e+00
       12  1    4    4    0    0 +1.3186590112e+01 +1.3753078765e+01 -1.3544113365e+01 2.3376833428e+01 0.0000000000e+00 0.0000e+00 -1.0000e+00
      -12  1    3    3    0    0 -1.7274260054e+01 -1.8632788506e+01 +3.5185828501e+01 4.3400730354e+01 0.0000000000e+00 0.0000e+00 1.0000e+00
</event>
<event>
 8      4 +3.7482383e-04 9.11880000e+01 7.81616400e-03 1.18400000e-01
      -11 -1    0    0    0    0 +0.0000000000e+00 +0.0000000000e+00 +4.5593999997e+01 4.5594000000e+01 5.1100000000e-04 0.0000e+00 -1.0000e+00
       11 -1    0    0    0    0 -0.0000000000e+00 -0.0000000000e+00 -4.5593999997e+01 4.5594000000e+01 5.1100000000e-04 0.0000e+00 1.0000e+00
       23  2    1    2    0    0 +0.0000000000e+00 -1.1102230246e-16 -3.5527136788e-15 9.1188000000e+01 9.1188000000e+01 1.1220e-13 0.0000e+00
 -9990012  2    3    3    0    0 -3.5565801774e+01 -3.7397783481e-01 -2.4870822687e+01 4.7787263412e+01 1.9999965203e+01 1.8214e-01 0.0000e+00
      -11  1    4    4    0    0 -2.5382797281e+00 -3.9294193757e-01 +1.5959745855e+00 3.0239713099e+00 5.1100000000e-04 0.0000e+00 1.0000e+00
       11  1    4    4    0    0 +1.4050327587e+00 -8.3795686094e-01 -8.9176185395e-01 1.8632037514e+00 5.1100000000e-04 0.0000e+00 -1.0000e+00
      -12  1    4    4    0    0 -3.4432554804e+01 +8.5692096370e-01 -2.5575035418e+01 4.2900088351e+01 0.0000000000e+00 0.0000e+00 1.0000e+00
       12  1    3    3    0    0 +3.5565801774e+01 +3.7397783481e-01 +2.4870822687e+01 4.3400736588e+01 0.0000000000e+00 0.0000e+00 -1.0000e+00
</event>
<event>
 8      4 +3.7482383e-04 9.11880000e+01 7.81616400e-03 1.18400000e-01
      -11 -1    0    0    0    0 +0.0000000000e+00 +0.0000000000e+00 +4.5593999997e+01 4.5594000000e+01 5.1100000000e-04 0.0000e+00 1.0000e+00
       11 -1    0    0    0    0 -0.0000000000e+00 -0.0000000000e+00 -4.5593999997e+01 4.5594000000e+01 5.1100000000e-04 0.0000e+00 -1.0000e+00
       23  2    1    2    0    0 +3.5527136788e-15 -8.8817841970e-16 -3.5527136788e-15 9.1188000000e+01 9.1188000000e+01 5.2234e-14 0.0000e+00
 -9990012  2    3    3    0    0 -3.1888714228e+01 -7.0251111177e+00 +2.8589878104e+01 4.7787269461e+01 1.9999992780e+01 1.3152e-01 0.0000e+00
      -11  1    4    4    0    0 -5.9442783106e+00 +1.7127484851e+00 +7.0173280380e+00 9.3547231418e+00 5.1100000000e-04 0.0000e+00 1.0000e+00
       11  1    4    4    0    0 -9.1800446042e+00 -7.1876151078e+00 +7.8938838431e-01 1.1685810377e+01 5.1100000000e-04 0.0000e+00 -1.0000e+00
      -12  1    4    4    0    0 -1.6764391313e+01 -1.5502444949e+00 +2.0783161682e+01 2.6746735943e+01 0.0000000000e+00 0.0000e+00 1.0000e+00
       12  1    3    3    0    0 +3.1888714228e+01 +7.0251111177e+00 -2.8589878104e+01 4.3400730539e+01 0.0000000000e+00 0.0000e+00 -1.0000e+00
</event>
<event>
 8      3 +3.7482383e-04 9.11880000e+01 7.81616400e-03 1.18400000e-01
      -11 -1    0    0    0    0 +0.0000000000e+00 +0.0000000000e+00 +4.5593999997e+01 4.5594000000e+01 5.1100000000e-04 0.0000e+00 -1.0000e+00
       11 -1    0    0    0    0 -0.0000000000e+00 -0.0000000000e+00 -4.5593999997e+01 4.5594000000e+01 5.1100000000e-04 0.0000e+00 1.0000e+00
       23  2    1    2    0    0 +0.0000000000e+00 +0.0000000000e+00 +0.0000000000e+00 9.1188000000e+01 9.1188000000e+01 1.0868e-13 0.0000e+00
  9990012  2    3    3    0    0 -2.1674675372e+01 +2.4487431072e+01 +2.8534142635e+01 4.7787272715e+01 2.0000007615e+01 2.0632e-01 0.0000e+00
      -11  1    4    4    0    0 -9.7047758272e+00 +8.7982061906e+00 +2.3572504331e+00 1.3309685792e+01 5.1100000000e-04 0.0000e+00 1.0000e+00
       11  1    4    4    0    0 -9.6906627439e-01 -9.6026578160e-01 +5.7938231984e+00 5.9522758111e+00 5.1100000000e-04 0.0000e+00 -1.0000e+00
       12  1    4    4    0    0 -1.1000833270e+01 +1.6649490663e+01 +2.0383069003e+01 2.8525311111e+01 0.0000000000e+00 0.0000e+00 -1.0000e+00
      -12  1    3    3    0    0 +2.1674675372e+01 -2.4487431072e+01 -2.8534142635e+01 4.3400727285e+01 0.0000000000e+00 0.0000e+00 1.0000e+00
</event>
<event>
 8      4 +3.7482383e-04 9.11880000e+01 7.81616400e-03 1.18400000e-01
      -11 -1    0    0    0    0 +0.0000000000e+00 +0.0000000000e+00 +4.5593999997e+01 4.5594000000e+01 5.1100000000e-04 0.0000e+00 1.0000e+00
       11 -1    0    0    0    0 -0.0000000000e+00 -0.0000000000e+00 -4.5593999997e+01 4.5594000000e+01 5.1100000000e-04 0.0000e+00 -1.0000e+00
       23  2    1    2    0    0 +0.0000000000e+00 +0.0000000000e+00 -8.8817841970e-16 9.1188000000e+01 9.1188000000e+01 3.1210e-15 0.0000e+00
 -9990012  2    3    3    0    0 -1.2817368345e+01 -4.0830640666e+01 -7.2247499337e+00 4.7787272356e+01 2.0000005978e+01 7.8366e-01 0.0000e+00
      -11  1    4    4    0    0 -8.1762114432e+00 -5.6596757785e+00 +2.8997184843e+00 1.0358123915e+01 5.1100000000e-04 0.0000e+00 1.0000e+00
       11  1    4    4    0    0 -2.3805123785e+00 -1.5401764312e+01 -7.7027362480e+00 1.7384283968e+01 5.1100000000e-04 0.0000e+00 -1.0000e+00
      -12  1    4    4    0    0 -2.2606445231e+00 -1.9769200575e+01 -2.4217321700e+00 2.0044864473e+01 0.0000000000e+00 0.0000e+00 1.0000e+00
       12  1    3    3    0    0 +1.2817368345e+01 +4.0830640666e+01 +7.2247499337e+00 4.3400727644e+01 0.0000000000e+00 0.0000e+00 -1.0000e+00
</event>
<event>
 8      4 +3.7482383e-04 9.11880000e+01 7.81616400e-03 1.18400000e-01
      -11 -1    0    0    0    0 +0.0000000000e+00 +0.0000000000e+00 +4.5593999997e+01 4.5594000000e+01 5.1100000000e-04 0.0000e+00 1.0000e+00
       11 -1    0    0    0    0 -0.0000000000e+00 -0.0000000000e+00 -4.5593999997e+01 4.5594000000e+01 5.1100000000e-04 0.0000e+00 -1.0000e+00
       23  2    1    2    0    0 +0.0000000000e+00 +0.0000000000e+00 +0.0000000000e+00 9.1188000000e+01 9.1188000000e+01 6.2724e-14 0.0000e+00
 -9990012  2    3    3    0    0 -2.6186051774e+01 -3.4508450508e+01 -2.6611669397e+00 4.7787259528e+01 1.9999947494e+01 5.0818e-02 0.0000e+00
      -11  1    4    4    0    0 -2.5923202653e+01 -3.1591244032e+01 -8.3511500821e-01 4.0874399722e+01 5.1100000000e-04 0.0000e+00 1.0000e+00
       11  1    4    4    0    0 +3.5451126310e-01 -4.5661331937e+00 -3.1164727387e-01 4.5904656477e+00 5.1100000000e-04 0.0000e+00 -1.0000e+00
      -12  1    4    4    0    0 -6.1736038455e-01 +1.6489267173e+00 -1.5144046576e+00 2.3223941592e+00 0.0000000000e+00 0.0000e+00 1.0000e+00
       12  1    3    3    0    0 +2.6186051774e+01 +3.4508450508e+01 +2.6611669397e+00 4.3400740472e+01 0.0000000000e+00 0.0000e+00 -1.0000e+00
</event>
<event>
 8      3 +3.7482383e-04 9.11880000e+01 7.81616400e-03 1.18400000e-01
      -11 -1    0    0    0    0 +0.0000000000e+00 +0.0000000000e+00 +4.5593999997e+01 4.5594000000e+01 5.1100000000e-04 0.0000e+00 1.0000e+00
       11 -1    0    0    0    0 -0.0000000000e+00 -0.0000000000e+00 -4.5593999997e+01 4.5594000000e+01 5.1100000000e-04 0.0000e+00 -1.0000e+00
       23  2    1    2    0    0 +3.5527136788e-15 +0.0000000000e+00 +1.7763568394e-15 9.1188000000e+01 9.1188000000e+01 1.0070e-13 0.0000e+00
  9990012  2    3    3    0    0 +2.8208440019e+01 -2.9527301506e+01 -1.4698500146e+01 4.7787268104e+01 1.9999986594e+01 5.0541e-01 0.0000e+00
      -11  1    4    4    0    0 +3.7882039753e+00 +1.6540528982e+00 +9.6851670662e-01 4.2455158957e+00 5.1100000000e-04 0.0000e+00 1.0000e+00
       11  1    4    4    0    0 +2.1450691910e+00 -6.8854792194e+00 -5.4282592754e+00 9.0264691291e+00 5.1100000000e-04 0.0000e+00 -1.0000e+00
       12  1    4    4    0    0 +2.2275166853e+01 -2.4295875185e+01 -1.0238757578e+01 3.4515283079e+01 0.0000000000e+00 0.0000e+00 -1.0000e+00
      -12  1    3    3    0    0 -2.8208440019e+01 +2.9527301506e+01 +1.4698500146e+01 4.3400731896e+01 0.0000000000e+00 0.0000e+00 1.0000e+00
</event>
<event>
 8      3 +3.7482383e-04 9.11880000e+01 7.81616400e-03 1.18400000e-01
      -11 -1    0    0    0    0 +0.0000000000e+00 +0.0000000000e+00 +4.5593999997e+01 4.5594000000e+01 5.1100000000e-04 0.0000e+00 1.0000e+00
       11 -1    0    0    0    0 -0.0000000000e+00 -0.0000000000e+00 -4.5593999997e+01 4.5594000000e+01 5.1100000000e-04 0.0000e+00 -1.0000e+00
       23  2    1    2    0    0 -8.8817841970e-16 -7.1054273576e-15 +0.0000000000e+00 9.1188000000e+01 9.1188000000e+01 1.3777e-13 0.0000e+00
  9990012  2    3    3    0    0 -4.5230856059e+00 +3.2505656382e+01 -2.8399769332e+01 4.7787275371e+01 2.0000019727e+01 3.0399e-02 0.0000e+00
      -11  1    4    4    0    0 -6.8883158621e+00 +3.0919930177e+01 -2.1326295567e+01 3.8187718712e+01 5.1100000000e-04 0.0000e+00 1.0000e+00
       11  1    4    4    0    0 -7.4994071065e-01 +1.0221453687e+00 -6.1820560463e+00 6.3107059387e+00 5.1100000000e-04 0.0000e+00 -1.0000e+00
       12  1    4    4    0    0 +3.1151709668e+00 +5.6358083644e-01 -8.9141771831e-01 3.2888507203e+00 0.0000000000e+00 0.0000e+00 -1.0000e+00
      -12  1    3    3    0    0 +4.5230856059e+00 -3.2505656382e+01 +2.8399769332e+01 4.3400724629e+01 0.0000000000e+00 0.0000e+00 1.0000e+00
</event>
<event>
 8      4 +3.7482383e-04 9.11880000e+01 7.81616400e-03 1.18400000e-01
      -11 -1    0    0    0    0 +0.0000000000e+00 +0.0000000000e+00 +4.5593999997e+01 4.5594000000e+01 5.1100000000e-04 0.0000e+00 1.0000e+00
       11 -1    0    0    0    0 -0.0000000000e+00 -0.0000000000e+00 -4.5593999997e+01 4.5594000000e+01 5.1100000000e-04 0.0000e+00 -1.0000e+00
       23  2    1    2    0    0 +0.0000000000e+00 +0.0000000000e+00 +0.0000000000e+00 9.1188000000e+01 9.1188000000e+01 2.0987e-16 0.0000e+00
 -9990012  2    3    3    0    0 +2.3739720884e+01 -1.6927797901e+01 +3.2148072827e+01 4.7787271021e+01 1.9999999892e+01 2.0697e-01 0.0000e+00
      -11  1    4    4    0    0 +7.8780857022e+00 -4.4475956411e+00 +1.3422596293e+01 1.6186767214e+01 5.1100000000e-04 0.0000e+00 1.0000e+00
       11  1    4    4    0    0 +2.8904301810e+00 -1.2041869416e+01 +1.0488822398e+01 1.6228881700e+01 5.1100000000e-04 0.0000e+00 -1.0000e+00
      -12  1    4    4    0    0 +1.2971205001e+01 -4.3833284395e-01 +8.2366541354e+00 1.5371622107e+01 0.0000000000e+00 0.0000e+00 1.0000e+00
       12  1    3    3    0    0 -2.3739720884e+01 +1.6927797901e+01 -3.2148072827e+01 4.3400728979e+01 0.0000000000e+00 0.0000e+00 -1.0000e+00
</event>
<event>
 8      4 +3.7482383e-04 9.11880000e+01 7.81616400e-03 1.18400000e-01
      -11 -1    0    0    0    0 +0.0000000000e+00 +0.0000000000e+00 +4.5593999997e+01 4.5594000000e+01 5.1100000000e-04 0.0000e+00 1.0000e+00
       11 -1    0    0    0    0 -0.0000000000e+00 -0.0000000000e+00 -4.5593999997e+01 4.5594000000e+01 5.1100000000e-04 0.0000e+00 -1.0000e+00
       23  2    1    2    0    0 +3.5527136788e-15 -3.5527136788e-15 -1.7763568394e-15 9.1188000000e+01 9.1188000000e+01 1.2902e-13 0.0000e+00
 -9990012  2    3    3    0    0 -2.7343873247e+01 +3.0383586083e+01 +1.4586776505e+01 4.7787265488e+01 1.9999974664e+01 2.8968e-01 0.0000e+00
      -11  1    4    4    0    0 -1.5913810627e+01 +1.3464802888e+01 -5.1097746481e-01 2.0852131395e+01 5.1100000000e-04 0.0000e+00 1.0000e+00
       11  1    4    4    0    0 +8.5535165418e-01 -1.2959989458e-01 -2.6468999603e-01 9.0470085670e-01 5.1100000000e-04 0.0000e+00 -1.0000e+00
      -12  1    4    4    0    0 -1.2285414274e+01 +1.7048383090e+01 +1.5362443965e+01 2.6030433236e+01 0.0000000000e+00 0.0000e+00 1.0000e+00
       12  1    3    3    0    0 +2.7343873247e+01 -3.0383586083e+01 -1.4586776505e+01 4.3400734512e+01 0.0000000000e+00 0.0000e+00 -1.0000e+00
</event>
<event>
 8      4 +3.7482383e-04 9.11880000e+01 7.81616400e-03 1.18400000e-01
      -11 -1    0    0    0    0 +0.0000000000e+00 +0.0000000000e+00 +4.5593999997e+01 4.5594000000e+01 5.1100000000e-04 0.0000e+00 -1.0000e+00
       11 -1    0    0    0    0 -0.0000000000e+00 -0.0000000000e+00 -4.5593999997e+01 4.5594000000e+01 5.1100000000e-04 0.0000e+00 1.0000e+00
       23  2    1    2    0    0 +0.0000000000e+00 +0.0000000000e+00 +0.0000000000e+00 9.1188000000e+01 9.1188000000e+01 3.5779e-14 0.0000e+00
 -9990012  2    3    3    0    0 +5.7631958795e+00 -2.1839826853e+01 -3.7059841652e+01 4.7787258912e+01 1.9999944685e+01 8.4266e-03 0.0000e+00
      -11  1    4    4    0    0 +5.6811064690e-01 -1.5567359641e+01 -1.6146001614e+01 2.2435659213e+01 5.1100000000e-04 0.0000e+00 1.0000e+00
       11  1    4    4    0    0 +5.3817817276e-01 -2.5629369438e+00 -1.8878895052e+01 1.9059668417e+01 5.1100000000e-04 0.0000e+00 -1.0000e+00
      -12  1    4    4    0    0 +4.6569070598e+00 -3.7095302680e+00 -2.0349449853e+00 6.2919312827e+00 0.0000000000e+00 0.0000e+00 1.0000e+00
       12  1    3    3    0    0 -5.7631958795e+00 +2.1839826853e+01 +3.7059841652e+01 4.3400741088e+01 0.0000000000e+00 0.0000e+00 -1.0000e+00
</event>
<event>
 8      3 +3.7482383e-04 9.11880000e+01 7.81616400e-03 1.18400000e-01
      -11 -1    0    0    0    0 +0.0000000000e+00 +0.0000000000e+00 +4.5593999997e+01 4.5594000000e+01 5.1100000000e-04 0.0000e+00 1.0000e+00
       11 -1    0    0    0    0 -0.0000000000e+00 -0.0000000000e+00 -4.5593999997e+01 4.5594000000e+01 5.1100000000e-04 0.0000e+00 -1.0000e+00
       23  2    1    2    0    0 +0.0000000000e+00 +0.0000000000e+00 +0.0000000000e+00 9.1188000000e+01 9.1188000000e+01 2.9715e-14 0.0000e+00
  9990012  2    3    3    0    0 -2.1318863291e+01 +3.1050250483e+01 -2.1564114639e+01 4.7787273885e+01 2.0000012952e+01 2.2676e-02 0.0000e+00
      -11  1    4    4    0    0 -8.2371532720e-01 +3.1190329325e+00 -1.5213304126e+00 3.5666959304e+00 5.1100000000e-04 0.0000e+00 1.0000e+00
       11  1    4    4    0    0 -1.9584669566e+01 +2.5371708739e+01 -9.6409528862e+00 3.3469850002e+01 5.1100000000e-04 0.0000e+00 -1.0000e+00
       12  1    4    4    0    0 -9.1047839807e-01 +2.5595088118e+00 -1.0401831340e+01 1.0750727952e+01 0.0000000000e+00 0.0000e+00 -1.0000e+00
      -12  1    3    3    0    0 +2.1318863291e+01 -3.1050250483e+01 +2.1564114639e+01 4.3400726115e+01 0.0000000000e+00 0.0000e+00 1.0000e+00
</event>
<event>
 8      4 +3.7482383e-04 9.11880000e+01 7.81616400e-03 1.18400000e-01
      -11 -1    0    0    0    0 +0.0000000000e+00 +0.0000000000e+00 +4.5593999997e+01 4.5594000000e+01 5.1100000000e-04 0.0000e+00 1.0000e+00
       11 -1    0    0    0    0 -0.0000000000e+00 -0.0000000000e+00 -4.5593999997e+01 4.5594000000e+01 5.1100000000e-04 0.0000e+00 -1.0000e+00
       23  2    1    2    0    0 +0.0000000000e+00 +0.0000000000e+00 +0.0000000000e+00 9.1188000000e+01 9.1188000000e+01 1.4447e-15 0.0000e+00
 -9990012  2    3    3    0    0 +3.0138175707e+00 +4.3050493259e+01 -4.6038053039e+00 4.7787273169e+01 2.0000009685e+01 2.5399e-01 0.0000e+00
      -11  1    4    4    0    0 -3.3390082970e+00 +2.6239218369e+01 -1.1834480780e+00 2.6477275287e+01 5.1100000000e-04 0.0000e+00 1.0000e+00
       11  1    4    4    0    0 +1.9426577925e+00 +6.6260088313e+00 -6.8167646952e+00 9.7028961399e+00 5.1100000000e-04 0.0000e+00 -1.0000e+00
      -12  1    4    4    0    0 +4.4101680751e+00 +1.0185266059e+01 +3.3964074694e+00 1.1607101742e+01 0.0000000000e+00 0.0000e+00 1.0000e+00
       12  1    3    3    0    0 -3.0138175707e+00 -4.3050493259e+01 +4.6038053039e+00 4.3400726831e+01 0.0000000000e+00 0.0000e+00 -1.0000e+00
</event>
<event>
 8      3 +3.7482383e-04 9.11880000e+01 7.81616400e-03 1.18400000e-01
      -11 -1    0    0    0    0 +0.0000000000e+00 +0.0000000000e+00 +4.5593999997e+01 4.5594000000e+01 5.1100000000e-04 0.0000e+00 1.0000e+00
       11 -1    0    0    0    0 -0.0000000000e+00 -0.0000000000e+00 -4.5593999997e+01 4.5594000000e+01 5.1100000000e-04 0.0000e+00 -1.0000e+00
       23  2    1    2    0    0 +0.0000000000e+00 +0.0000000000e+00 +0.0000000000e+00 9.1188000000e+01 9.1188000000e+01 4.0338e-14 0.0000e+00
  9990012  2    3    3    0    0 +3.3998780636e+01 +1.7879681922e+01 +2.0199583599e+01 4.7787270883e+01 1.9999999262e+01 4.2428e-02 0.0000e+00
      -11  1    4    4    0    0 -3.2225505498e-01 +2.2906444011e+00 +5.1094495782e+00 5.6086874888e+00 5.1100000000e-04 0.0000e+00 1.0000e+00
       11  1    4    4    0    0 +3.4294880887e+01 +1.3126142415e+01 +1.5128345990e+01 3.9715253020e+01 5.1100000000e-04 0.0000e+00 -1.0000e+00
       12  1    4    4    0    0 +2.6154803518e-02 +2.4628951062e+00 -3.8211969324e-02 2.4633303742e+00 0.0000000000e+00 0.0000e+00 -1.0000e+00
      -12  1    3    3    0    0 -3.3998780636e+01 -1.7879681922e+01 -2.0199583599e+01 4.3400729117e+01 0.0000000000e+00 0.0000e+00 1.0000e+00
</event>
<event>
 8      4 +3.7482383e-04 9.11880000e+01 7.81616400e-03 1.18400000e-01
      -11 -1    0    0    0    0 +0.0000000000e+00 +0.0000000000e+00 +4.5593999997e+01 4.5594000000e+01 5.1100000000e-04 0.0000e+00 1.0000e+00
       11 -1    0    0    0    0 -0.0000000000e+00 -0.0000000000e+00 -4.5593999997e+01 4.5594000000e+01 5.1100000000e-04 0.0000e+00 -1.0000e+00
       23  2    1    2    0    0 -1.7763568394e-15 +0.0000000000e+00 +0.0000000000e+00 9.1188000000e+01 9.1188000000e+01 1.9343e-14 0.0000e+00
 -9990012  2    3    3    0    0 -1.3250791469e+01 -1.4417692657e+01 +3.8732027057e+01 4.7787271250e+01 2.0000000936e+01 2.2917e-02 0.0000e+00
      -11  1    4    4    0    0 -3.2599991430e+00 -7.4227301522e+00 +1.6576450919e+01 1.8452729951e+01 5.1100000000e-04 0.0000e+00 1.0000e+00
       11  1    4    4    0    0 +5.2687167195e-01 -1.8845109445e+00 +1.6001138757e+01 1.6120341716e+01 5.1100000000e-04 0.0000e+00 -1.0000e+00
      -12  1    4    4    0    0 -1.0517663998e+01 -5.1104515605e+00 +6.1544373809e+00 1.3214199582e+01 0.0000000000e+00 0.0000e+00 1.0000e+00
       12  1    3    3    0    0 +1.3250791469e+01 +1.4417692657e+01 -3.8732027057e+01 4.3400728750e+01 0.0000000000e+00 0.0000e+00 -1.0000e+00
</event>
<event>
 8      4 +3.7482383e-04 9.11880000e+01 7.81616400e-03 1.18400000e-01
      -11 -1    0    0    0    0 +0.0000000000e+00 +0.0000000000e+00 +4.5593999997e+01 4.5594000000e+01 5.1100000000e-04 0.0000e+00 -1.0000e+00
       11 -1    0    0    0    0 -0.0000000000e+00 -0.0000000000e+00 -4.5593999997e+01 4.5594000000e+01 5.1100000000e-04 0.0000e+00 1.0000e+00
       23  2    1    2    0    0 +0.0000000000e+00 -7.1054273576e-15 +3.5527136788e-15 9.1188000000e+01 9.1188000000e+01 9.4192e-15 0.0000e+00
 -9990012  2    3    3    0    0 +1.2113758955e+01 -2.7670067807e+01 -3.1164839719e+01 4.7787273702e+01 2.0000012117e+01 9.7330e-02 0.0000e+00
      -11  1    4    4    0    0 -1.5857367804e+00 +9.1716163368e-01 -4.9643491818e+00 5.2915507802e+00 5.1100000000e-04 0.0000e+00 1.0000e+00
       11  1    4    4    0    0 +6.6408887928e+00 -2.1761884970e+01 -1.3549676732e+01 2.6481593253e+01 5.1100000000e-04 0.0000e+00 -1.0000e+00
      -12  1    4    4    0    0 +7.0586069429e+00 -6.8253444706e+00 -1.2650813806e+01 1.6014129669e+01 0.0000000000e+00 0.0000e+00 1.0000e+00
       12  1    3    3    0    0 -1.2113758955e+01 +2.7670067807e+01 +3.1164839719e+01 4.3400726298e+01 0.0000000000e+00 0.0000e+00 -1.0000e+00
</event>
<event>
 8      4 +3.7482383e-04 9.11880000e+01 7.81616400e-03 1.18400000e-01
      -11 -1    0    0    0    0 +0.0000000000e+00 +0.0000000000e+00 +4.5593999997e+01 4.5594000000e+01 5.1100000000e-04 0.0000e+00 1.0000e+00
       11 -1    0    0    0    0 -0.0000000000e+00 -0.0000000000e+00 -4.5593999997e+01 4.5594000000e+01 5.1100000000e-04 0.0000e+00 -1.0000e+00
       23  2    1    2    0    0 -7.1054273576e-15 -3.5527136788e-15 -1.7763568394e-15 9.1188000000e+01 9.1188000000e+01 2.5130e-14 0.0000e+00
 -9990012  2    3    3    0    0 +3.7081457562e+01 +1.8048880970e+01 +1.3521340350e+01 4.7787271388e+01 2.0000001565e+01 4.1861e-01 0.0000e+00
      -11  1    4    4    0    0 +2.0008228017e+01 +9.4456754613e+00 -9.8053159930e-01 2.2147492314e+01 5.1100000000e-04 0.0000e+00 1.0000e+00
       11  1    4    4    0    0 +1.2941295595e+00 -2.7045991827e-01 -1.1165008649e+00 1.7304607267e+00 5.1100000000e-04 0.0000e+00 -1.0000e+00
      -12  1    4    4    0    0 +1.5779099985e+01 +8.8736654271e+00 +1.5618372814e+01 2.3909318347e+01 0.0000000000e+00 0.0000e+00 1.0000e+00
       12  1    3    3    0    0 -3.7081457562e+01 -1.8048880970e+01 -1.3521340350e+01 4.3400728612e+01 0.0000000000e+00 0.0000e+00 -1.0000e+00
</event>
<event>
 8      3 +3.7482383e-04 9.11880000e+01 7.81616400e-03 1.18400000e-01
      -11 -1    0    0    0    0 +0.0000000000e+00 +0.0000000000e+00 +4.5593999997e+01 4.5594000000e+01 5.1100000000e-04 0.0000e+00 -1.0000e+00
       11 -1    0    0    0    0 -0.0000000000e+00 -0.0000000000e+00 -4.5593999997e+01 4.5594000000e+01 5.1100000000e-04 0.0000e+00 1.0000e+00
       23  2    1    2    0    0 +0.0000000000e+00 +0.0000000000e+00 +0.0000000000e+00 9.1188000000e+01 9.1188000000e+01 1.1911e-14 0.0000e+00
  9990012  2    3    3    0    0 +3.0269563573e+01 +3.0626176183e+01 +5.4234664405e+00 4.7787272647e+01 2.0000007308e+01 1.4386e-01 0.0000e+00
      -11  1    4    4    0    0 +1.1691774381e+01 +7.2018367298e+00 +6.4759458676e+00 1.5182289538e+01 5.1100000000e-04 0.0000e+00 1.0000e+00
       11  1    4    4    0    0 +9.1124643073e+00 +1.0705200371e+01 +5.9590068190e+00 1.5269187380e+01 5.1100000000e-04 0.0000e+00 -1.0000e+00
       12  1    4    4    0    0 +9.4653248847e+00 +1.2719139083e+01 -7.0114862462e+00 1.7335795729e+01 0.0000000000e+00 0.0000e+00 -1.0000e+00
      -12  1    3    3    0    0 -3.0269563573e+01 -3.0626176183e+01 -5.4234664405e+00 4.3400727353e+01 0.0000000000e+00 0.0000e+00 1.0000e+00
</event>
<event>
 8      4 +3.7482383e-04 9.11880000e+01 7.81616400e-03 1.18400000e-01
      -11 -1    0    0    0    0 +0.0000000000e+00 +0.0000000000e+00 +4.5593999997e+01 4.5594000000e+01 5.1100000000e-04 0.0000e+00 -1.0000e+00
       11 -1    0    0    0    0 -0.0000000000e+00 -0.0000000000e+00 -4.5593999997e+01 4.5594000000e+01 5.1100000000e-04 0.0000e+00 1.0000e+00
       23  2    1    2    0    0 +0.0000000000e+00 +1.7763568394e-15 -7.1054273576e-15 9.1188000000e+01 9.1188000000e+01 5.8448e-15 0.0000e+00
 -9990012  2    3    3    0    0 -1.8855432139e+00 +6.2557317495e+00 -4.2906103649e+01 4.7787272089e+01 2.0000004761e+01 1.9944e-01 0.0000e+00
      -11  1    4    4    0    0 +1.4198330545e+00 +9.4113339329e+00 -2.3614548823e+01 2.5460480134e+01 5.1100000000e-04 0.0000e+00 1.0000e+00
       11  1    4    4    0    0 +3.4596993069e+00 -1.3077223701e+00 -1.0165309548e+01 1.0817262850e+01 5.1100000000e-04 0.0000e+00 -1.0000e+00
      -12  1    4    4    0    0 -6.7650755753e+00 -1.8478798134e+00 -9.1262452776e+00 1.1509529105e+01 0.0000000000e+00 0.0000e+00 1.0000e+00
       12  1    3    3    0    0 +1.8855432139e+00 -6.2557317495e+00 +4.2906103649e+01 4.3400727911e+01 0.0000000000e+00 0.0000e+00 -1.0000e+00
</event>
<event>
 8      3 +3.7482383e-04 9.11880000e+01 7.81616400e-03 1.18400000e-01
      -11 -1    0    0    0    0 +0.0000000000e+00 +0.0000000000e+00 +4.5593999997e+01 4.5594000000e+01 5.1100000000e-04 0.0000e+00 1.0000e+00
       11 -1    0    0    0    0 -0.0000000000e+00 -0.0000000000e+00 -4.5593999997e+01 4.5594000000e+01 5.1100000000e-04 0.0000e+00 -1.0000e+00
       23  2    1    2    0    0 +0.0000000000e+00 +0.0000000000e+00 +0.0000000000e+00 9.1188000000e+01 9.1188000000e+01 7.4208e-14 0.0000e+00
  9990012  2    3    3    0    0 +9.3668030825e+00 +4.0979856547e+01 +1.0795255133e+01 4.7787272172e+01 2.0000005142e+01 2.4111e-02 0.0000e+00
      -11  1    4    4    0    0 -1.6365753270e+00 -1.1913411830e+00 +2.0544568047e+00 2.8841750360e+00 5.1100000000e-04 0.0000e+00 1.0000e+00
       11  1    4    4    0    0 +7.7529967741e+00 +3.7645497757e+01 +7.0193924971e+00 3.9071272460e+01 5.1100000000e-04 0.0000e+00 -1.0000e+00
       12  1    4    4    0    0 +3.2503816355e+00 +4.5256999730e+00 +1.7214058311e+00 5.8318246765e+00 0.0000000000e+00 0.0000e+00 -1.0000e+00
      -12  1    3    3    0    0 -9.3668030825e+00 -4.0979856547e+01 -1.0795255133e+01 4.3400727828e+01 0.0000000000e+00 0.0000e+00 1.0000e+00
</event>
<event>
 8      3 +3.7482383e-04 9.11880000e+01 7.81616400e-03 1.18400000e-01
      -11 -1    0    0    0    0 +0.0000000000e+00 +0.0000000000e+00 +4.5593999997e+01 4.5594000000e+01 5.1100000000e-04 0.0000e+00 -1.0000e+00
       11 -1    0    0    0    0 -0.0000000000e+00 -0.0000000000e+00 -4.5593999997e+01 4.5594000000e+01 5.1100000000e-04 0.0000e+00 1.0000e+00
       23  2    1    2    0    0 +0.0000000000e+00 +3.5527136788e-15 +3.5527136788e-15 9.1188000000e+01 9.1188000000e+01 4.8723e-14 0.0000e+00
  9990012  2    3    3    0    0 +2.0237443799e+01 +2.2274061383e+01 +3.1271941493e+01 4.7787282647e+01 2.0000052900e+01 1.3592e-01 0.0000e+00
      -11  1    4    4    0    0 +2.8843151806e+00 +6.9385722987e-01 +1.5852289886e-01 2.9708318174e+00 5.1100000000e-04 0.0000e+00 1.0000e+00
       11  1    4    4    0    0 -3.6945022731e-01 +6.0268358289e+00 +1.5237804210e+01 1.6390543645e+01 5.1100000000e-04 0.0000e+00 -1.0000e+00
       12  1    4    4    0    0 +1.7722578846e+01 +1.5553368324e+01 +1.5875614385e+01 2.8425907185e+01 0.0000000000e+00 0.0000e+00 -1.0000e+00
      -12  1    3    3    0    0 -2.0237443799e+01 -2.2274061383e+01 -3.1271941493e+01 4.3400717353e+01 0.0000000000e+00 0.0000e+00 1.0000e+00
</event>
<event>
 8      3 +3.7482383e-04 9.11880000e+01 7.81616400e-03 1.18400000e-01
      -11 -1    0    0    0    0 +0.0000000000e+00 +0.0000000000e+00 +4.5593999997e+01 4.5594000000e+01 5.1100000000e-04 0.0000e+00 1.0000e+00
       11 -1    0    0    0    0 -0.0000000000e+00 -0.0000000000e+00 -4.5593999997e+01 4.5594000000e+01 5.1100000000e-04 0.0000e+00 -1.0000e+00
       23  2    1    2    0    0 +4.4408920985e-16 -3.5527136788e-15 -7.1054273576e-15 9.1188000000e+01 9.1188000000e+01 1.0559e-13 0.0000e+00
  9990012  2    3    3    0    0 +3.7986395325e+00 -2.6191540373e+01 -3.4397629333e+01 4.7787270131e+01 1.9999995836e+01 8.3861e-02 0.0000e+00
      -11  1    4    4    0    0 +2.6897462965e+00 -6.5935728566e+00 -2.0860657343e+01 2.2042616977e+01 5.1100000000e-04 0.0000e+00 1.0000e+00
       11  1    4    4    0    0 +2.1584227155e+00 -1.3783716389e+01 -1.4067420947e+01 1.9812671665e+01 5.1100000000e-04 0.0000e+00 -1.0000e+00
       12  1    4    4    0    0 -1.0495294795e+00 -5.8142511271e+00 +5.3044895719e-01 5.9319814897e+00 0.0000000000e+00 0.0000e+00 -1.0000e+00
      -12  1    3    3    0    0 -3.7986395325e+00 +2.6191540373e+01 +3.4397629333e+01 4.3400729869e+01 0.0000000000e+00 0.0000e+00 1.0000e+00
</event>
<event>
 8      3 +3.7482383e-04 9.11880000e+01 7.81616400e-03 1.18400000e-01
      -11 -1    0    0    0    0 +0.0000000000e+00 +0.0000000000e+00 +4.5593999997e+01 4.5594000000e+01 5.1100000000e-04 0.0000e+00 1.0000e+00
       11 -1    0    0    0    0 -0.0000000000e+00 -0.0000000000e+00 -4.5593999997e+01 4.5594000000e+01 5.1100000000e-04 0.0000e+00 -1.0000e+00
       23  2    1    2    0    0 +0.0000000000e+00 +0.0000000000e+00 +0.0000000000e+00 9.1188000000e+01 9.1188000000e+01 5.0227e-14 0.0000e+00
  9990012  2    3    3    0    0 -9.0627049425e+00 -1.8058844732e+01 -3.8410527424e+01 4.7787272921e+01 2.0000008558e+01 4.3766e-01 0.0000e+00
      -11  1    4    4    0    0 -7.0965353882e+00 -6.6975980357e+00 -8.3899197778e+00 1.2868931117e+01 5.1100000000e-04 0.0000e+00 1.0000e+00
       11  1    4    4    0    0 +9.3792192265e-01 -4.1540017489e+00 -2.5654135956e+01 2.6005194096e+01 5.1100000000e-04 0.0000e+00 -1.0000e+00
       12  1    4    4    0    0 -2.9040914770e+00 -7.2072449476e+00 -4.3664716903e+00 8.9131477079e+00 0.0000000000e+00 0.0000e+00 -1.0000e+00
      -12  1    3    3    0    0 +9.0627049425e+00 +1.8058844732e+01 +3.8410527424e+01 4.3400727079e+01 0.0000000000e+00 0.0000e+00 1.0000e+00
</event>
<event>
 8      4 +3.7482383e-04 9.11880000e+01 7.81616400e-03 1.18400000e-01
      -11 -1    0    0    0    0 +0.0000000000e+00 +0.0000000000e+00 +4.5593999997e+01 4.5594000000e+01 5.1100000000e-04 0.0000e+00 1.0000e+00
       11 -1    0    0    0    0 -0.0000000000e+00 -0.0000000000e+00 -4.5593999997e+01 4.5594000000e+01 5.1100000000e-04 0.0000e+00 -1.0000e+00
       23  2    1    2    0    0 +8.8817841970e-16 +7.1054273576e-15 +0.0000000000e+00 9.1188000000e+01 9.1188000000e+01 1.5391e-15 0.0000e+00
 -9990012  2    3    3    0    0 -3.3320600184e+00 -3.6567567884e+01 +2.3137281836e+01 4.7787268950e+01 1.9999990452e+01 3.8004e-01 0.0000e+00
      -11  1    4    4    0    0 -1.4918579915e+00 -3.0284595306e+01 +1.4325542455e+01 3.3535108766e+01 5.1100000000e-04 0.0000e+00 1.0000e+00
       11  1    4    4    0    0 -3.3974730749e+00 +1.1099578818e+00 +2.0945430440e+00 4.1426972636e+00 5.1100000000e-04 0.0000e+00 -1.0000e+00
      -12  1    4    4    0    0 +1.5572710479e+00 -7.3929304597e+00 +6.7171963375e+00 1.0109462920e+01 0.0000000000e+00 0.0000e+00 1.0000e+00
       12  1    3    3    0    0 +3.3320600184e+00 +3.6567567884e+01 -2.3137281836e+01 4.3400731050e+01 0.0000000000e+00 0.0000e+00 -1.0000e+00
</event>
<event>
 8      4 +3.7482383e-04 9.11880000e+01 7.81616400e-03 1.18400000e-01
      -11 -1    0    0    0    0 +0.0000000000e+00 +0.0000000000e+00 +4.5593999997e+01 4.5594000000e+01 5.1100000000e-04 0.0000e+00 1.0000e+00
       11 -1    0    0    0    0 -0.0000000000e+00 -0.0000000000e+00 -4.5593999997e+01 4.5594000000e+01 5.1100000000e-04 0.0000e+00 -1.0000e+00
       23  2    1    2    0    0 +0.0000000000e+00 +0.0000000000e+00 +0.0000000000e+00 9.1188000000e+01 9.1188000000e+01 3.0019e-14 0.0000e+00
 -9990012  2    3    3    0    0 -1.2280653855e+01 +4.1415297833e+01 -4.1930400222e+00 4.7787274910e+01 2.0000017626e+01 2.8625e-01 0.0000e+00
      -11  1    4    4    0    0 -1.0957723399e+01 +2.4832250408e+01 +1.1027780987e+00 2.7164839079e+01 5.1100000000e-04 0.0000e+00 1.0000e+00
       11  1    4    4    0    0 -2.6109274357e-01 +4.0358505838e+00 -6.8296880100e+00 7.9373104973e+00 5.1100000000e-04 0.0000e+00 -1.0000e+00
      -12  1    4    4    0    0 -1.0618377124e+00 +1.2547196841e+01 +1.5338698891e+00 1.2685125334e+01 0.0000000000e+00 0.0000e+00 1.0000e+00
       12  1    3    3    0    0 +1.2280653855e+01 -4.1415297833e+01 +4.1930400222e+00 4.3400725090e+01 0.0000000000e+00 0.0000e+00 -1.0000e+00
</event>
<event>
 8      3 +3.7482383e-04 9.11880000e+01 7.81616400e-03 1.18400000e-01
      -11 -1    0    0    0    0 +0.0000000000e+00 +0.0000000000e+00 +4.5593999997e+01 4.5594000000e+01 5.1100000000e-04 0.0000e+00 -1.0000e+00
       11 -1    0    0    0    0 -0.0000000000e+00 -0.0000000000e+00 -4.5593999997e+01 4.5594000000e+01 5.1100000000e-04 0.0000e+00 1.0000e+00
       23  2    1    2    0    0 +0.0000000000e+00 +1.7763568394e-15 +0.0000000000e+00 9.1188000000e+01 9.1188000000e+01 1.3014e-13 0.0000e+00
  9990012  2    3    3    0    0 -3.2684583419e+01 +1.3475457057e+01 +2.5174460958e+01 4.7787269353e+01 1.9999992289e+01 4.9470e-01 0.0000e+00
      -11  1    4    4    0    0 -7.4238711769e+00 -3.7758896761e+00 +5.4062011542e+00 9.9296635028e+00 5.1100000000e-04 0.0000e+00 1.0000e+00
       11  1    4    4    0    0 -2.3749396217e+01 +1.6401837853e+01 +1.4477683816e+01 3.2290206480e+01 5.1100000000e-04 0.0000e+00 -1.0000e+00
       12  1    4    4    0    0 -1.5113160253e+00 +8.4950887976e-01 +5.2905759876e+00 5.5673993700e+00 0.0000000000e+00 0.0000e+00 -1.0000e+00
      -12  1    3    3    0    0 +3.2684583419e+01 -1.3475457057e+01 -2.5174460958e+01 4.3400730647e+01 0.0000000000e+00 0.0000e+00 1.0000e+00
</event>
<event>
 8      4 +3.7482383e-04 9.11880000e+01 7.81616400e-03 1.18400000e-01
      -11 -1    0    0    0    0 +0.0000000000e+00 +0.0000000000e+00 +4.5593999997e+01 4.5594000000e+01 5.1100000000e-04 0.0000e+00 -1.0000e+00
       11 -1    0    0    0    0 -0.0000000000e+00 -0.0000000000e+00 -4.5593999997e+01 4.5594000000e+01 5.1100000000e-04 0.0000e+00 1.0000e+00
       23  2    1    2    0    0 +3.5527136788e-15 +0.0000000000e+00 +0.0000000000e+00 9.1188000000e+01 9.1188000000e+01 4.2125e-14 0.0000e+00
 -9990012  2    3    3    0    0 -2.7353268381e+01 +3.0419650436e+01 -1.4493714523e+01 4.7787260555e+01 1.9999952173e+01 1.9279e-01 0.0000e+00
      -11  1    4    4    0    0 -1.1293054058e+01 +8.6919610814e+00 +5.2759025494e-01 1.4260491196e+01 5.1100000000e-04 0.0000e+00 1.0000e+00
       11  1    4    4    0    0 -6.9406346239e+00 +4.5510273548e+00 +9.6031573192e-01 8.3550263634e+00 5.1100000000e-04 0.0000e+00 -1.0000e+00
      -12  1    4    4    0    0 -9.1195796988e+00 +1.7176661999e+01 -1.5981620510e+01 2.5171742996e+01 0.0000000000e+00 0.0000e+00 1.0000e+00
       12  1    3    3    0    0 +2.7353268381e+01 -3.0419650436e+01 +1.4493714523e+01 4.3400739445e+01 0.0000000000e+00 0.0000e+00 -1.0000e+00
</event>
<event>
 8      3 +3.7482383e-04 9.11880000e+01 7.81616400e-03 1.18400000e-01
      -11 -1    0    0    0    0 +0.0000000000e+00 +0.0000000000e+00 +4.5593999997e+01 4.5594000000e+01 5.1100000000e-04 0.0000e+00 -1.0000e+00
       11 -1    0    0    0    0 -0.0000000000e+00 -0.0000000000e+00 -4.5593999997e+01 4.5594000000e+01 5.1100000000e-04 0.0000e+00 1.0000e+00
       23  2    1    2    0    0 +0.0000000000e+00 -7.1054273576e-15 -1.7763568394e-15 9.1188000000e+01 9.1188000000e+01 8.4865e-14 0.0000e+00
  9990012  2    3    3    0    0 -8.0549516322e+00 +3.9577233087e+01 +1.5886589121e+01 4.7787270300e+01 1.9999996605e+01 1.8420e-01 0.0000e+00
      -11  1    4    4    0    0 -3.1795272749e+00 +1.4603488437e+00 -4.9231415544e-01 3.5333250524e+00 5.1100000000e-04 0.0000e+00 1.0000e+00
       11  1    4    4    0    0 +5.0898499774e+00 +1.5674965740e+01 +7.9004946379e+00 1.8276458616e+01 5.1100000000e-04 0.0000e+00 -1.0000e+00
       12  1    4    4    0    0 -9.9652743347e+00 +2.2441918503e+01 +8.4784086385e+00 2.5977486631e+01 0.0000000000e+00 0.0000e+00 -1.0000e+00
      -12  1    3    3    0    0 +8.0549516322e+00 -3.9577233087e+01 -1.5886589121e+01 4.3400729700e+01 0.0000000000e+00 0.0000e+00 1.0000e+00
</event>
<event>
 8      3 +3.7482383e-04 9.11880000e+01 7.81616400e-03 1.18400000e-01
      -11 -1    0    0    0    0 +0.0000000000e+00 +0.0000000000e+00 +4.5593999997e+01 4.5594000000e+01 5.1100000000e-04 0.0000e+00 -1.0000e+00
       11 -1    0    0    0    0 -0.0000000000e+00 -0.0000000000e+00 -4.5593999997e+01 4.5594000000e+01 5.1100000000e-04 0.0000e+00 1.0000e+00
       23  2    1    2    0    0 +0.0000000000e+00 +0.0000000000e+00 +0.0000000000e+00 9.1188000000e+01 9.1188000000e+01 2.8279e-14 0.0000e+00
  9990012  2    3    3    0    0 +2.8703361326e+01 +2.8180289859e+01 +1.6297591542e+01 4.7787272149e+01 2.0000005034e+01 2.7484e-01 0.0000e+00
      -11  1    4    4    0    0 +7.5052978019e-01 +9.6757423468e+00 +7.2992072626e+00 1.2143381400e+01 5.1100000000e-04 0.0000e+00 1.0000e+00
       11  1    4    4    0    0 +2.7072553867e+01 +1.7174230474e+01 +1.0203076105e+01 3.3644912357e+01 5.1100000000e-04 0.0000e+00 -1.0000e+00
       12  1    4    4    0    0 +8.8027767883e-01 +1.3303170390e+00 -1.2046918252e+00 1.9989783915e+00 0.0000000000e+00 0.0000e+00 -1.0000e+00
      -12  1    3    3    0    0 -2.8703361326e+01 -2.8180289859e+01 -1.6297591542e+01 4.3400727851e+01 0.0000000000e+00 0.0000e+00 1.0000e+00
</event>
<event>
 8      4 +3.7482383e-04 9.11880000e+01 7.81616400e-03 1.18400000e-01
      -11 -1    0    0    0    0 +0.0000000000e+00 +0.0000000000e+00 +4.5593999997e+01 4.5594000000e+01 5.1100000000e-04 0.0000e+00 -1.0000e+00
       11 -1    0    0    0    0 -0.0000000000e+00 -0.0000000000e+00 -4.5593999997e+01 4.5594000000e+01 5.1100000000e-04 0.0000e+00 1.0000e+00
       23  2    1    2    0    0 +0.0000000000e+00 +0.0000000000e+00 +0.0000000000e+00 9.1188000000e+01 9.1188000000e+01 9.1124e-14 0.0000e+00
 -9990012  2    3    3    0    0 +2.1321639588e+01 +1.4157935106e+00 -3.7775737942e+01 4.7787272321e+01 2.0000005821e+01 4.2982e-02 0.0000e+00
      -11  1    4    4    0    0 +7.3612133382e+00 +3.1210246652e+00 -2.0943039436e+01 2.2417385170e+01 5.1100000000e-04 0.0000e+00 -1.0000e+00
       11  1    4    4    0    0 +5.9295494138e+00 -5.4390472318e+00 -1.3862863982e+01 1.6028780025e+01 5.1100000000e-04 0.0000e+00 1.0000e+00
      -12  1    4    4    0    0 +8.0308768357e+00 +3.7338160772e+00 -2.9698345245e+00 9.3411071267e+00 0.0000000000e+00 0.0000e+00 1.0000e+00
       12  1    3    3    0    0 -2.1321639588e+01 -1.4157935106e+00 +3.7775737942e+01 4.3400727679e+01 0.0000000000e+00 0.0000e+00 -1.0000e+00
</event>
<event>
 8      3 +3.7482383e-04 9.11880000e+01 7.81616400e-03 1.18400000e-01
      -11 -1    0    0    0    0 +0.0000000000e+00 +0.0000000000e+00 +4.5593999997e+01 4.5594000000e+01 5.1100000000e-04 0.0000e+00 1.0000e+00
       11 -1    0    0    0    0 -0.0000000000e+00 -0.0000000000e+00 -4.5593999997e+01 4.5594000000e+01 5.1100000000e-04 0.0000e+00 -1.0000e+00
       23  2    1    2    0    0 +3.5527136788e-15 +3.5527136788e-15 -1.7763568394e-15 9.1188000000e+01 9.1188000000e+01 4.4862e-14 0.0000e+00
  9990012  2    3    3    0    0 +2.8993627027e+01 +2.9673175539e+01 -1.2747367729e+01 4.7787272601e+01 2.0000007097e+01 4.9983e-02 0.0000e+00
      -11  1    4    4    0    0 +6.8225433096e+00 +6.3675309492e+00 -7.8450562844e+00 1.2191696189e+01 5.1100000000e-04 0.0000e+00 -1.0000e+00
       11  1    4    4    0    0 +2.8447561174e+00 +1.1862060617e+01 -4.8718888744e+00 1.3135311984e+01 5.1100000000e-04 0.0000e+00 1.0000e+00
       12  1    4    4    0    0 +1.9326327600e+01 +1.1443583973e+01 -3.0422570064e-02 2.2460264428e+01 0.0000000000e+00 0.0000e+00 -1.0000e+00
      -12  1    3    3    0    0 -2.8993627027e+01 -2.9673175539e+01 +1.2747367729e+01 4.3400727399e+01 0.0000000000e+00 0.0000e+00 1.0000e+00
</event>
<event>
 8      3 +3.7482383e-04 9.11880000e+01 7.81616400e-03 1.18400000e-01
      -11 -1    0    0    0    0 +0.0000000000e+00 +0.0000000000e+00 +4.5593999997e+01 4.5594000000e+01 5.1100000000e-04 0.0000e+00 -1.0000e+00
       11 -1    0    0    0    0 -0.0000000000e+00 -0.0000000000e+00 -4.5593999997e+01 4.5594000000e+01 5.1100000000e-04 0.0000e+00 1.0000e+00
       23  2    1    2    0    0 +3.5527136788e-15 -3.5527136788e-15 +7.1054273576e-15 9.1188000000e+01 9.1188000000e+01 5.6490e-14 0.0000e+00
  9990012  2    3    3    0    0 +1.7037007822e+01 -2.6378781901e+01 +2.9958696157e+01 4.7787271371e+01 2.0000001489e+01 4.1484e-01 0.0000e+00
      -11  1    4    4    0    0 +5.9970144661e+00 -1.7888977630e+01 +1.0194652316e+01 2.1445527255e+01 5.1100000000e-04 0.0000e+00 1.0000e+00
       11  1    4    4    0    0 +2.5037161357e+00 +1.9979099768e+00 +1.3033280065e+00 3.4581646746e+00 5.1100000000e-04 0.0000e+00 -1.0000e+00
       12  1    4    4    0    0 +8.5362772198e+00 -1.0487714248e+01 +1.8460715835e+01 2.2883579442e+01 0.0000000000e+00 0.0000e+00 -1.0000e+00
      -12  1    3    3    0    0 -1.7037007822e+01 +2.6378781901e+01 -2.9958696157e+01 4.3400728629e+01 0.0000000000e+00 0.0000e+00 1.0000e+00
</event>
<event>
 8      4 +3.7482383e-04 9.11880000e+01 7.81616400e-03 1.18400000e-01
      -11 -1    0    0    0    0 +0.0000000000e+00 +0.0000000000e+00 +4.5593999997e+01 4.5594000000e+01 5.1100000000e-04 0.0000e+00 1.0000e+00
       11 -1    0    0    0    0 -0.0000000000e+00 -0.0000000000e+00 -4.5593999997e+01 4.5594000000e+01 5.1100000000e-04 0.0000e+00 -1.0000e+00
       23  2    1    2    0    0 -1.3322676296e-15 +0.0000000000e+00 +0.0000000000e+00 9.1188000000e+01 9.1188000000e+01 5.2251e-14 0.0000e+00
 -9990012  2    3    3    0    0 -2.4667439345e+00 +2.2160607441e+00 +4.3273873513e+01 4.7787264065e+01 1.9999968177e+01 1.0294e-02 0.0000e+00
      -11  1    4    4    0    0 +3.3591358544e+00 +9.2992593364e-01 +1.2077959573e+01 1.2570825894e+01 5.1100000000e-04 0.0000e+00 1.0000e+00
       11  1    4    4    0    0 +3.1146176402e+00 +5.5251293436e+00 +1.4159751494e+01 1.5515362063e+01 5.1100000000e-04 0.0000e+00 -1.0000e+00
      -12  1    4    4    0    0 -8.9404974292e+00 -4.2389945332e+00 +1.7036162446e+01 1.9701076108e+01 0.0000000000e+00 0.0000e+00 1.0000e+00
       12  1    3    3    0    0 +2.4667439345e+00 -2.2160607441e+00 -4.3273873513e+01 4.3400735935e+01 0.0000000000e+00 0.0000e+00 -1.0000e+00
</event>
<event>
 8      3 +3.7482383e-04 9.11880000e+01 7.81616400e-03 1.18400000e-01
      -11 -1    0    0    0    0 +0.0000000000e+00 +0.0000000000e+00 +4.5593999997e+01 4.5594000000e+01 5.1100000000e-04 0.0000e+00 1.0000e+00
       11 -1    0    0    0    0 -0.0000000000e+00 -0.0000000000e+00 -4.5593999997e+01 4.5594000000e+01 5.1100000000e-04 0.0000e+00 -1.0000e+00
       23  2    1    2    0    0 +0.0000000000e+00 +0.0000000000e+00 +0.0000000000e+00 9.1188000000e+01 9.1188000000e+01 1.4714e-14 0.0000e+00
  9990012  2    3    3    0    0 -1.5150348400e+01 -1.2669413502e+01 -3.8646808656e+01 4.7787275185e+01 2.0000018880e+01 6.8089e-03 0.0000e+00
      -11  1    4    4    0    0 -1.7019821694e+00 -7.9746570569e-01 -6.1709184293e-01 1.9782561665e+00 5.1100000000e-04 0.0000e+00 1.0000e+00
       11  1    4    4    0    0 -7.0751738130e+00 -1.5039533014e+01 -3.3433551818e+01 3.7336952543e+01 5.1100000000e-04 0.0000e+00 -1.0000e+00
       12  1    4    4    0    0 -6.3731924177e+00 +3.1675852179e+00 -4.5961649951e+00 8.4720664756e+00 0.0000000000e+00 0.0000e+00 -1.0000e+00
      -12  1    3    3    0    0 +1.5150348400e+01 +1.2669413502e+01 +3.8646808656e+01 4.3400724815e+01 0.0000000000e+00 0.0000e+00 1.0000e+00
</event>
<event>
 8      4 +3.7482383e-04 9.11880000e+01 7.81616400e-03 1.18400000e-01
      -11 -1    0    0    0    0 +0.0000000000e+00 +0.0000000000e+00 +4.5593999997e+01 4.5594000000e+01 5.1100000000e-04 0.0000e+00 1.0000e+00
       11 -1    0    0    0    0 -0.0000000000e+00 -0.0000000000e+00 -4.5593999997e+01 4.5594000000e+01 5.1100000000e-04 0.0000e+00 -1.0000e+00
       23  2    1    2    0    0 -4.4408920985e-16 +0.0000000000e+00 +0.0000000000e+00 9.1188000000e+01 9.1188000000e+01 1.1415e-13 0.0000e+00
 -9990012  2    3    3    0    0 +3.2802358193e+00 +3.6745407743e+01 +2.2861282174e+01 4.7787272358e+01 2.0000005989e+01 9.5317e-02 0.0000e+00
      -11  1    4    4    0    0 +3.7791949859e+00 +4.5800146639e+00 +3.4715373002e+00 6.8782570867e+00 5.1100000000e-04 0.0000e+00 1.0000e+00
       11  1    4    4    0    0 +5.3648891833e+00 +1.7207590291e+01 +1.6791630002e+01 2.4634164040e+01 5.1100000000e-04 0.0000e+00 -1.0000e+00
      -12  1    4    4    0    0 -5.8638483499e+00 +1.4957802788e+01 +2.5981148722e+00 1.6274851231e+01 0.0000000000e+00 0.0000e+00 1.0000e+00
       12  1    3    3    0    0 -3.2802358193e+00 -3.6745407743e+01 -2.2861282174e+01 4.3400727642e+01 0.0000000000e+00 0.0000e+00 -1.0000e+00
</event>
<event>
 8      4 +3.7482383e-04 9.11880000e+01 7.81616400e-03 1.18400000e-01
      -11 -1    0    0    0    0 +0.0000000000e+00 +0.0000000000e+00 +4.5593999997e+01 4.5594000000e+01 5.1100000000e-04 0.0000e+00 -1.0000e+00
       11 -1    0    0    0    0 -0.0000000000e+00 -0.0000000000e+00 -4.5593999997e+01 4.5594000000e+01 5.1100000000e-04 0.0000e+00 1.0000e+00
       23  2    1    2    0    0 -3.5527136788e-15 -1.7763568394e-15 -7.1054273576e-15 9.1188000000e+01 9.1188000000e+01 3.0174e-13 0.0000e+00
 -9990012  2    3    3    0    0 -3.1230625082e+01 -1.0808565996e+01 -2.8132654302e+01 4.7787270975e+01 1.9999999681e+01 8.2023e-01 0.0000e+00
      -11  1    4    4    0    0 -2.6342811524e+00 +2.8754525708e+00 -4.6763652841e+00 6.0890111848e+00 5.1100000000e-04 0.0000e+00 1.0000e+00
       11  1    4    4    0    0 -2.3469098236e+00 -2.7034219403e+00 -9.2020269126e+00 9.8738936326e+00 5.1100000000e-04 0.0000e+00 -1.0000e+00
      -12  1    4    4    0    0 -2.6249434106e+01 -1.0980596627e+01 -1.4254262105e+01 3.1824366157e+01 0.0000000000e+00 0.0000e+00 1.0000e+00
       12  1    3    3    0    0 +3.1230625082e+01 +1.0808565996e+01 +2.8132654302e+01 4.3400729025e+01 0.0000000000e+00 0.0000e+00 -1.0000e+00
</event>
<event>
 8      4 +3.7482383e-04 9.11880000e+01 7.81616400e-03 1.18400000e-01
      -11 -1    0    0    0    0 +0.0000000000e+00 +0.0000000000e+00 +4.5593999997e+01 4.5594000000e+01 5.1100000000e-04 0.0000e+00 1.0000e+00
       11 -1    0    0    0    0 -0.0000000000e+00 -0.0000000000e+00 -4.5593999997e+01 4.5594000000e+01 5.1100000000e-04 0.0000e+00 -1.0000e+00
       23  2    1    2    0    0 +0.0000000000e+00 +0.0000000000e+00 +0.0000000000e+00 9.1188000000e+01 9.1188000000e+01 1.0418e-14 0.0000e+00
 -9990012  2    3    3    0    0 -2.0178690904e+01 +3.0017798631e+01 +2.3986978804e+01 4.7787274736e+01 2.0000016832e+01 5.8970e-01 0.0000e+00
      -11  1    4    4    0    0 -4.5705918178e+00 +1.5910960197e+01 +1.9041942961e+01 2.5231816343e+01 5.1100000000e-04 0.0000e+00 1.0000e+00
       11  1    4    4    0    0 -2.4948336706e+00 +4.7543017133e+00 -8.5387937329e-01 5.4366064848e+00 5.1100000000e-04 0.0000e+00 -1.0000e+00
      -12  1    4    4    0    0 -1.3113265415e+01 +9.3525367209e+00 +5.7989152162e+00 1.7118851908e+01 0.0000000000e+00 0.0000e+00 1.0000e+00
       12  1    3    3    0    0 +2.0178690904e+01 -3.0017798631e+01 -2.3986978804e+01 4.3400725264e+01 0.0000000000e+00 0.0000e+00 -1.0000e+00
</event>
<event>
 8      3 +3.7482383e-04 9.11880000e+01 7.81616400e-03 1.18400000e-01
      -11 -1    0    0    0    0 +0.0000000000e+00 +0.0000000000e+00 +4.5593999997e+01 4.5594000000e+01 5.1100000000e-04 0.0000e+00 1.0000e+00
       11 -1    0    0    0    0 -0.0000000000e+00 -0.0000000000e+00 -4.5593999997e+01 4.5594000000e+01 5.1100000000e-04 0.0000e+00 -1.0000e+00
       23  2    1    2    0    0 -3.3306690739e-16 +7.1054273576e-15 -2.2204460493e-16 9.1188000000e+01 9.1188000000e+01 1.0425e-13 0.0000e+00
  9990012  2    3    3    0    0 -5.3637260645e-01 +4.3368136000e+01 +1.5938978305e+00 4.7787269293e+01 1.9999992012e+01 4.3211e-01 0.0000e+00
      -11  1    4    4    0    0 -3.1038249103e+00 +2.9996334696e+01 +3.9747309063e+00 3.0417302811e+01 5.1100000000e-04 0.0000e+00 -1.0000e+00
       11  1    4    4    0    0 -1.7565123521e+00 +5.0031771117e+00 +3.4177606298e+00 6.3085818405e+00 5.1100000000e-04 0.0000e+00 1.0000e+00
       12  1    4    4    0    0 +4.3239646560e+00 +8.3686241916e+00 -5.7985937056e+00 1.1061384641e+01 0.0000000000e+00 0.0000e+00 -1.0000e+00
      -12  1    3    3    0    0 +5.3637260645e-01 -4.3368136000e+01 -1.5938978305e+00 4.3400730707e+01 0.0000000000e+00 0.0000e+00 1.0000e+00
</event>
<event>
 8      3 +3.7482383e-04 9.11880000e+01 7.81616400e-03 1.18400000e-01
      -11 -1    0    0    0    0 +0.0000000000e+00 +0.0000000000e+00 +4.5593999997e+01 4.5594000000e+01 5.1100000000e-04 0.0000e+00 1.0000e+00
       11 -1    0    0    0    0 -0.0000000000e+00 -0.0000000000e+00 -4.5593999997e+01 4.5594000000e+01 5.1100000000e-04 0.0000e+00 -1.0000e+00
       23  2    1    2    0    0 +8.8817841970e-16 +0.0000000000e+00 -4.4408920985e-16 9.1188000000e+01 9.1188000000e+01 1.4908e-13 0.0000e+00
  9990012  2    3    3    0    0 -3.7609314705e+00 +4.3161350783e+01 +2.5644855672e+00 4.7787269670e+01 1.9999993732e+01 1.4554e-01 0.0000e+00
      -11  1    4    4    0    0 +5.5155304381e-01 +7.9164263419e+00 +6.7382948132e+00 1.0410505945e+01 5.1100000000e-04 0.0000e+00 1.0000e+00
       11  1    4    4    0    0 -7.8177917038e+00 +2.6752491549e+01 -2.0473595163e+00 2.7946472988e+01 5.1100000000e-04 0.0000e+00 -1.0000e+00
       12  1    4    4    0    0 +3.5053071895e+00 +8.4924328927e+00 -2.1264497297e+00 9.4302907370e+00 0.0000000000e+00 0.0000e+00 -1.0000e+00
      -12  1    3    3    0    0 +3.7609314705e+00 -4.3161350783e+01 -2.5644855672e+00 4.3400730330e+01 0.0000000000e+00 0.0000e+00 1.0000e+00
</event>
<event>
 8      4 +3.7482383e-04 9.11880000e+01 7.81616400e-03 1.18400000e-01
      -11 -1    0    0    0    0 +0.0000000000e+00 +0.0000000000e+00 +4.5593999997e+01 4.5594000000e+01 5.1100000000e-04 0.0000e+00 -1.0000e+00
       11 -1    0    0    0    0 -0.0000000000e+00 -0.0000000000e+00 -4.5593999997e+01 4.5594000000e+01 5.1100000000e-04 0.0000e+00 1.0000e+00
       23  2    1    2    0    0 +4.4408920985e-16 -4.4408920985e-16 +0.0000000000e+00 9.1188000000e+01 9.1188000000e+01 2.1547e-14 0.0000e+00
 -9990012  2    3    3    0    0 -3.3003030849e+00 +1.4281664784e+00 -4.3251497944e+01 4.7787265739e+01 1.9999975812e+01 2.2721e-02 0.0000e+00
      -11  1    4    4    0    0 +5.9783568250e+00 +2.2224058277e-02 -1.2276917123e+01 1.3655179916e+01 5.1100000000e-04 0.0000e+00 1.0000e+00
       11  1    4    4    0    0 -1.9136895411e+00 -3.0773515322e+00 -1.9195098179e+01 1.9534177599e+01 5.1100000000e-04 0.0000e+00 -1.0000e+00
      -12  1    4    4    0    0 -7.3649703688e+00 +4.4832939523e+00 -1.1779482643e+01 1.4597908224e+01 0.0000000000e+00 0.0000e+00 1.0000e+00
       12  1    3    3    0    0 +3.3003030849e+00 -1.4281664784e+00 +4.3251497944e+01 4.3400734261e+01 0.0000000000e+00 0.0000e+00 -1.0000e+00
</event>
<event>
 8      3 +3.7482383e-04 9.11880000e+01 7.81616400e-03 1.18400000e-01
      -11 -1    0    0    0    0 +0.0000000000e+00 +0.0000000000e+00 +4.5593999997e+01 4.5594000000e+01 5.1100000000e-04 0.0000e+00 -1.0000e+00
       11 -1    0    0    0    0 -0.0000000000e+00 -0.0000000000e+00 -4.5593999997e+01 4.5594000000e+01 5.1100000000e-04 0.0000e+00 1.0000e+00
       23  2    1    2    0    0 +0.0000000000e+00 +0.0000000000e+00 +0.0000000000e+00 9.1188000000e+01 9.1188000000e+01 1.1594e-13 0.0000e+00
  9990012  2    3    3    0    0 +2.6396780683e+01 -2.5828520502e+01 +2.2797385507e+01 4.7787270885e+01 1.9999999272e+01 7.8843e-02 0.0000e+00
      -11  1    4    4    0    0 +7.3045399346e+00 -1.0528031818e+01 +1.7465049505e+01 2.1661572244e+01 5.1100000000e-04 0.0000e+00 -1.0000e+00
       11  1    4    4    0    0 +1.2785313680e+01 -6.7256866657e+00 +5.5583554793e+00 1.5478837906e+01 5.1100000000e-04 0.0000e+00 1.0000e+00
       12  1    4    4    0    0 +6.3069270689e+00 -8.5748020186e+00 -2.2601947695e-01 1.0646860735e+01 0.0000000000e+00 0.0000e+00 -1.0000e+00
      -12  1    3    3    0    0 -2.6396780683e+01 +2.5828520502e+01 -2.2797385507e+01 4.3400729115e+01 0.0000000000e+00 0.0000e+00 1.0000e+00
</event>
<event>
 8      3 +3.7482383e-04 9.11880000e+01 7.81616400e-03 1.18400000e-01
      -11 -1    0    0    0    0 +0.0000000000e+00 +0.0000000000e+00 +4.5593999997e+01 4.5594000000e+01 5.1100000000e-04 0.0000e+00 -1.0000e+00
       11 -1    0    0    0    0 -0.0000000000e+00 -0.0000000000e+00 -4.5593999997e+01 4.5594000000e+01 5.1100000000e-04 0.0000e+00 1.0000e+00
       23  2    1    2    0    0 +8.8817841970e-16 -1.7763568394e-15 +0.0000000000e+00 9.1188000000e+01 9.1188000000e+01 6.0951e-15 0.0000e+00
  9990012  2    3    3    0    0 +5.1333065997e+00 -8.6227405798e+00 +4.2224645125e+01 4.7787272498e+01 2.0000006626e+01 1.6552e-01 0.0000e+00
      -11  1    4    4    0    0 +6.5825910916e+00 -8.7024307117e+00 +1.6283245524e+01 1.9601196158e+01 5.1100000000e-04 0.0000e+00 1.0000e+00
       11  1    4    4    0    0 +2.0501633925e+00 +3.4258951639e+00 +3.7665816102e+00 5.4888127038e+00 5.1100000000e-04 0.0000e+00 -1.0000e+00
       12  1    4    4    0    0 -3.4994478844e+00 -3.3462050320e+00 +2.2174817991e+01 2.2697263636e+01 0.0000000000e+00 0.0000e+00 -1.0000e+00
      -12  1    3    3    0    0 -5.1333065997e+00 +8.6227405798e+00 -4.2224645125e+01 4.3400727502e+01 0.0000000000e+00 0.0000e+00 1.0000e+00
</event>
<event>
 8      3 +3.7482383e-04 9.11880000e+01 7.81616400e-03 1.18400000e-01
      -11 -1    0    0    0    0 +0.0000000000e+00 +0.0000000000e+00 +4.5593999997e+01 4.5594000000e+01 5.1100000000e-04 0.0000e+00 1.0000e+00
       11 -1    0    0    0    0 -0.0000000000e+00 -0.0000000000e+00 -4.5593999997e+01 4.5594000000e+01 5.1100000000e-04 0.0000e+00 -1.0000e+00
       23  2    1    2    0    0 +0.0000000000e+00 +0.0000000000e+00 +0.0000000000e+00 9.1188000000e+01 9.1188000000e+01 4.3658e-13 0.0000e+00
  9990012  2    3    3    0    0 -1.8241092381e+01 +5.5884694481e+00 -3.8982750530e+01 4.7787270964e+01 1.9999999631e+01 1.2580e-01 0.0000e+00
      -11  1    4    4    0    0 -7.5934017621e+00 -3.7137657752e+00 -9.1532374530e+00 1.2459276170e+01 5.1100000000e-04 0.0000e+00 1.0000e+00
       11  1    4    4    0    0 -6.6723092248e+00 +1.1500237495e+01 -1.6177510627e+01 2.0940081737e+01 5.1100000000e-04 0.0000e+00 -1.0000e+00
       12  1    4    4    0    0 -3.9753813943e+00 -2.1980022713e+00 -1.3652002450e+01 1.4387913056e+01 0.0000000000e+00 0.0000e+00 -1.0000e+00
      -12  1    3    3    0    0 +1.8241092381e+01 -5.5884694481e+00 +3.8982750530e+01 4.3400729036e+01 0.0000000000e+00 0.0000e+00 1.0000e+00
</event>
<event>
 8      3 +3.7482383e-04 9.11880000e+01 7.81616400e-03 1.18400000e-01
      -11 -1    0    0    0    0 +0.0000000000e+00 +0.0000000000e+00 +4.5593999997e+01 4.5594000000e+01 5.1100000000e-04 0.0000e+00 -1.0000e+00
       11 -1    0    0    0    0 -0.0000000000e+00 -0.0000000000e+00 -4.5593999997e+01 4.5594000000e+01 5.1100000000e-04 0.0000e+00 1.0000e+00
       23  2    1    2    0    0 +1.7763568394e-15 +0.0000000000e+00 +0.0000000000e+00 9.1188000000e+01 9.1188000000e+01 2.4998e-14 0.0000e+00
  9990012  2    3    3    0    0 -9.1539935759e+00 +2.5962323938e+01 +3.3552728885e+01 4.7787268689e+01 1.9999989263e+01 4.2403e-01 0.0000e+00
      -11  1    4    4    0    0 -5.2771595565e-01 +8.7354911748e+00 +2.3953386747e+00 9.0733090889e+00 5.1100000000e-04 0.0000e+00 -1.0000e+00
       11  1    4    4    0    0 -1.4300116752e-01 +8.4094801425e+00 +4.8710275133e+00 9.7193988959e+00 5.1100000000e-04 0.0000e+00 1.0000e+00
       12  1    4    4    0    0 -8.4832764527e+00 +8.8173526207e+00 +2.6286362697e+01 2.8994560705e+01 0.0000000000e+00 0.0000e+00 -1.0000e+00
      -12  1    3    3    0    0 +9.1539935759e+00 -2.5962323938e+01 -3.3552728885e+01 4.3400731311e+01 0.0000000000e+00 0.0000e+00 1.0000e+00
</event>
<event>
 8      3 +3.7482383e-04 9.11880000e+01 7.81616400e-03 1.18400000e-01
      -11 -1    0    0    0    0 +0.0000000000e+00 +0.0000000000e+00 +4.5593999997e+01 4.5594000000e+01 5.1100000000e-04 0.0000e+00 1.0000e+00
       11 -1    0    0    0    0 -0.0000000000e+00 -0.0000000000e+00 -4.5593999997e+01 4.5594000000e+01 5.1100000000e-04 0.0000e+00 -1.0000e+00
       23  2    1    2    0    0 +0.0000000000e+00 +0.0000000000e+00 +0.0000000000e+00 9.1188000000e+01 9.1188000000e+01 1.0309e-13 0.0000e+00
  9990012  2    3    3    0    0 +9.5331580954e+00 +2.5528667656e+01 -3.3779122644e+01 4.7787273023e+01 2.0000009019e+01 5.0759e-02 0.0000e+00
      -11  1    4    4    0    0 +4.0085459480e+00 +9.2707774492e+00 -2.1373267881e+00 1.0323948915e+01 5.1100000000e-04 0.0000e+00 1.0000e+00
       11  1    4    4    0    0 +5.2243346631e+00 +1.2407824747e+01 -1.4074729174e+01 1.9476801309e+01 5.1100000000e-04 0.0000e+00 -1.0000e+00
       12  1    4    4    0    0 +3.0027748429e-01 +3.8500654596e+00 -1.7567066682e+01 1.7986522800e+01 0.0000000000e+00 0.0000e+00 -1.0000e+00
      -12  1    3    3    0    0 -9.5331580954e+00 -2.5528667656e+01 +3.3779122644e+01 4.3400726977e+01 0.0000000000e+00 0.0000e+00 1.0000e+00
</event>
<event>
 8      4 +3.7482383e-04 9.11880000e+01 7.81616400e-03 1.18400000e-01
      -11 -1    0    0    0    0 +0.0000000000e+00 +0.0000000000e+00 +4.5593999997e+01 4.5594000000e+01 5.1100000000e-04 0.0000e+00 -1.0000e+00
       11 -1    0    0    0    0 -0.0000000000e+00 -0.0000000000e+00 -4.5593999997e+01 4.5594000000e+01 5.1100000000e-04 0.0000e+00 1.0000e+00
       23  2    1    2    0    0 +2.1510571102e-16 +0.0000000000e+00 +0.0000000000e+00 9.1188000000e+01 9.1188000000e+01 3.1574e-14 0.0000e+00
 -9990012  2    3    3    0    0 -4.3626342133e-02 -3.9642799316e+01 +1.7665496587e+01 4.7787271774e+01 2.0000003325e+01 2.7713e-01 0.0000e+00
      -11  1    4    4    0    0 +1.0249775975e+00 +9.9351197177e-02 -1.0760001307e+00 1.4893711016e+00 5.1100000000e-04 0.0000e+00 1.0000e+00
       11  1    4    4    0    0 +1.1799893009e+00 -9.8954813638e+00 -1.6214929505e+00 1.0096641314e+01 5.1100000000e-04 0.0000e+00 -1.0000e+00
      -12  1    4    4    0    0 -2.2485932405e+00 -2.9846669150e+01 +2.0362989668e+01 3.6201259358e+01 0.0000000000e+00 0.0000e+00 1.0000e+00
       12  1    3    3    0    0 +4.3626342133e-02 +3.9642799316e+01 -1.7665496587e+01 4.3400728226e+01 0.0000000000e+00 0.0000e+00 -1.0000e+00
</event>
<event>
 8      4 +3.7482383e-04 9.11880000e+01 7.81616400e-03 1.18400000e-01
      -11 -1    0    0    0    0 +0.0000000000e+00 +0.0000000000e+00 +4.5593999997e+01 4.5594000000e+01 5.1100000000e-04 0.0000e+00 1.0000e+00
       11 -1    0    0    0    0 -0.0000000000e+00 -0.0000000000e+00 -4.5593999997e+01 4.5594000000e+01 5.1100000000e-04 0.0000e+00 -1.0000e+00
       23  2    1    2    0    0 -3.5527136788e-15 +1.7763568394e-15 +7.1054273576e-15 9.1188000000e+01 9.1188000000e+01 2.4555e-14 0.0000e+00
 -9990012  2    3    3    0    0 -1.5809826719e+01 +9.1470442395e+00 +3.9370094606e+01 4.7787269724e+01 1.9999993978e+01 1.2841e-01 0.0000e+00
      -11  1    4    4    0    0 -8.6399782677e+00 +4.1578455866e+00 +6.4859409387e+00 1.1576024124e+01 5.1100000000e-04 0.0000e+00 1.0000e+00
       11  1    4    4    0    0 -1.1733902077e+00 +1.2157500233e+00 -7.4302766277e-01 1.8458014702e+00 5.1100000000e-04 0.0000e+00 -1.0000e+00
      -12  1    4    4    0    0 -5.9964582436e+00 +3.7734486296e+00 +3.3627181330e+01 3.4365444130e+01 0.0000000000e+00 0.0000e+00 1.0000e+00
       12  1    3    3    0    0 +1.5809826719e+01 -9.1470442395e+00 -3.9370094606e+01 4.3400730276e+01 0.0000000000e+00 0.0000e+00 -1.0000e+00
</event>
<event>
 8      4 +3.7482383e-04 9.11880000e+01 7.81616400e-03 1.18400000e-01
      -11 -1    0    0    0    0 +0.0000000000e+00 +0.0000000000e+00 +4.5593999997e+01 4.5594000000e+01 5.1100000000e-04 0.0000e+00 1.0000e+00
       11 -1    0    0    0    0 -0.0000000000e+00 -0.0000000000e+00 -4.5593999997e+01 4.5594000000e+01 5.1100000000e-04 0.0000e+00 -1.0000e+00
       23  2    1    2    0    0 +3.3306690739e-16 +0.0000000000e+00 -7.1054273576e-15 9.1188000000e+01 9.1188000000e+01 1.9088e-14 0.0000e+00
 -9990012  2    3    3    0    0 -6.8919887102e-01 +1.4715541085e+00 +4.3370301085e+01 4.7787268638e+01 1.9999989028e+01 1.2827e-01 0.0000e+00
      -11  1    4    4    0    0 -5.7742102359e+00 -3.2130237197e-01 +3.8453021989e+00 6.9448605692e+00 5.1100000000e-04 0.0000e+00 1.0000e+00
       11  1    4    4    0    0 +5.9915133550e+00 -6.2589941991e-02 +1.3927014035e+01 1.5161262150e+01 5.1100000000e-04 0.0000e+00 -1.0000e+00
      -12  1    4    4    0    0 -9.0650199007e-01 +1.8554464224e+00 +2.5597984851e+01 2.5681145919e+01 0.0000000000e+00 0.0000e+00 1.0000e+00
       12  1    3    3    0    0 +6.8919887102e-01 -1.4715541085e+00 -4.3370301085e+01 4.3400731362e+01 0.0000000000e+00 0.0000e+00 -1.0000e+00
</event>
<event>
 7      4 +3.7482383e-04 4.77872700e+01 7.81616400e-03 1.31266800e-01
      -11 -1    0    0    0    0 +0.0000000000e+00 +0.0000000000e+00 +4.5593999997e+01 4.5594000000e+01 5.1100000000e-04 0.0000e+00 1.0000e+00
       11 -1    0    0    0    0 -0.0000000000e+00 -0.0000000000e+00 -4.5593999997e+01 4.5594000000e+01 5.1100000000e-04 0.0000e+00 -1.0000e+00
 -9990012  2    1    2    0    0 +1.5858332642e+01 -2.4325180014e+01 +3.2255575342e+01 4.7787271463e+01 2.0000001910e+01 1.3694e-01 0.0000e+00
      -11  1    3    3    0    0 +4.9986140933e+00 -1.7255403271e+01 +1.8991233018e+01 2.6141958930e+01 5.1100000000e-04 0.0000e+00 1.0000e+00
       11  1    3    3    0    0 +4.6533221334e+00 +2.3462730284e+00 +7.0561082425e+00 8.7719477764e+00 5.1100000000e-04 0.0000e+00 -1.0000e+00
      -12  1    3    3    0    0 +6.2063964155e+00 -9.4160497705e+00 +6.2082340813e+00 1.2873364757e+01 0.0000000000e+00 0.0000e+00 1.0000e+00
       12  1    1    2    0    0 -1.5858332642e+01 +2.4325180014e+01 -3.2255575342e+01 4.3400728537e+01 0.0000000000e+00 0.0000e+00 -1.0000e+00
</event>
<event>
 8      4 +3.7482383e-04 9.11880000e+01 7.81616400e-03 1.18400000e-01
      -11 -1    0    0    0    0 +0.0000000000e+00 +0.0000000000e+00 +4.5593999997e+01 4.5594000000e+01 5.1100000000e-04 0.0000e+00 -1.0000e+00
       11 -1    0    0    0    0 -0.0000000000e+00 -0.0000000000e+00 -4.5593999997e+01 4.5594000000e+01 5.1100000000e-04 0.0000e+00 1.0000e+00
       23  2    1    2    0    0 +0.0000000000e+00 +0.0000000000e+00 +0.0000000000e+00 9.1188000000e+01 9.1188000000e+01 1.2563e-13 0.0000e+00
 -9990012  2    3    3    0    0 -3.7549767227e+01 +1.1235427681e+00 -2.1734230320e+01 4.7787261127e+01 1.9999954781e+01 2.0387e-01 0.0000e+00
      -11  1    4    4    0    0 -1.2052266239e+01 +1.5535429271e+00 +1.6181283064e+00 1.2259239642e+01 5.1100000000e-04 0.0000e+00 -1.0000e+00
       11  1    4    4    0    0 -6.9353662573e+00 +2.9795719796e-01 -1.9961490130e+00 7.2230668526e+00 5.1100000000e-04 0.0000e+00 1.0000e+00
      -12  1    4    4    0    0 -1.8562134731e+01 -7.2795735702e-01 -2.1356209613e+01 2.8304954632e+01 0.0000000000e+00 0.0000e+00 1.0000e+00
       12  1    3    3    0    0 +3.7549767227e+01 -1.1235427681e+00 +2.1734230320e+01 4.3400738873e+01 0.0000000000e+00 0.0000e+00 -1.0000e+00
</event>
<event>
 8      3 +3.7482383e-04 9.11880000e+01 7.81616400e-03 1.18400000e-01
      -11 -1    0    0    0    0 +0.0000000000e+00 +0.0000000000e+00 +4.5593999997e+01 4.5594000000e+01 5.1100000000e-04 0.0000e+00 1.0000e+00
       11 -1    0    0    0    0 -0.0000000000e+00 -0.0000000000e+00 -4.5593999997e+01 4.5594000000e+01 5.1100000000e-04 0.0000e+00 -1.0000e+00
       23  2    1    2    0    0 +0.0000000000e+00 +0.0000000000e+00 +0.0000000000e+00 9.1188000000e+01 9.1188000000e+01 1.6199e-13 0.0000e+00
  9990012  2    3    3    0    0 -2.6246085740e+01 +3.4316552628e+01 -4.1400756182e+00 4.7787273888e+01 2.0000012964e+01 7.7382e-01 0.0000e+00
      -11  1    4    4    0    0 -4.5502158649e+00 +1.0744195304e+00 -1.4145156685e+00 4.8846388385e+00 5.1100000000e-04 0.0000e+00 1.0000e+00
       11  1    4    4    0    0 -1.7627600150e+01 +1.2332752120e+01 -1.5182900261e+00 2.1566971664e+01 5.1100000000e-04 0.0000e+00 -1.0000e+00
       12  1    4    4    0    0 -4.0682697256e+00 +2.0909380978e+01 -1.2072699235e+00 2.1335663385e+01 0.0000000000e+00 0.0000e+00 -1.0000e+00
      -12  1    3    3    0    0 +2.6246085740e+01 -3.4316552628e+01 +4.1400756182e+00 4.3400726112e+01 0.0000000000e+00 0.0000e+00 1.0000e+00
</event>
<event>
 8      4 +3.7482383e-04 9.11880000e+01 7.81616400e-03 1.18400000e-01
      -11 -1    0    0    0    0 +0.0000000000e+00 +0.0000000000e+00 +4.5593999997e+01 4.5594000000e+01 5.1100000000e-04 0.0000e+00 1.0000e+00
       11 -1    0    0    0    0 -0.0000000000e+00 -0.0000000000e+00 -4.5593999997e+01 4.5594000000e+01 5.1100000000e-04 0.0000e+00 -1.0000e+00
       23  2    1    2    0    0 +0.0000000000e+00 +0.0000000000e+00 +0.0000000000e+00 9.1188000000e+01 9.1188000000e+01 9.0908e-14 0.0000e+00
 -9990012  2    3    3    0    0 -1.6764231811e+01 -3.9378379399e+01 +7.2060409389e+00 4.7787271223e+01 2.0000000816e+01 1.3164e-01 0.0000e+00
      -11  1    4    4    0    0 -2.9548715476e+00 -1.1829765801e+01 -2.2374868592e+00 1.2396812997e+01 5.1100000000e-04 0.0000e+00 1.0000e+00
       11  1    4    4    0    0 -1.9608178351e+00 -7.6643549110e+00 -3.7420273552e+00 8.7515662468e+00 5.1100000000e-04 0.0000e+00 -1.0000e+00
      -12  1    4    4    0    0 -1.1848542428e+01 -1.9884258687e+01 +1.3185555153e+01 2.6638891980e+01 0.0000000000e+00 0.0000e+00 1.0000e+00
       12  1    3    3    0    0 +1.6764231811e+01 +3.9378379399e+01 -7.2060409389e+00 4.3400728777e+01 0.0000000000e+00 0.0000e+00 -1.0000e+00
</event>
<event>
 8      4 +3.7482383e-04 9.11880000e+01 7.81616400e-03 1.18400000e-01
      -11 -1    0    0    0    0 +0.0000000000e+00 +0.0000000000e+00 +4.5593999997e+01 4.5594000000e+01 5.1100000000e-04 0.0000e+00 1.0000e+00
       11 -1    0    0    0    0 -0.0000000000e+00 -0.0000000000e+00 -4.5593999997e+01 4.5594000000e+01 5.1100000000e-04 0.0000e+00 -1.0000e+00
       23  2    1    2    0    0 -1.7763568394e-15 +0.0000000000e+00 -7.1054273576e-15 9.1188000000e+01 9.1188000000e+01 6.1888e-15 0.0000e+00
 -9990012  2    3    3    0    0 +8.7736096113e+00 +2.7744420275e+01 +3.2200850926e+01 4.7787264035e+01 1.9999968041e+01 3.1639e-01 0.0000e+00
      -11  1    4    4    0    0 +3.4977881216e+00 -1.1895870440e-01 -1.0042102250e+00 3.6410316332e+00 5.1100000000e-04 0.0000e+00 1.0000e+00
       11  1    4    4    0    0 +1.5566769231e+00 +1.4963939772e+01 +2.2039783512e+01 2.6685104347e+01 5.1100000000e-04 0.0000e+00 -1.0000e+00
      -12  1    4    4    0    0 +3.7191445666e+00 +1.2899439208e+01 +1.1165277639e+01 1.7461128054e+01 0.0000000000e+00 0.0000e+00 1.0000e+00
       12  1    3    3    0    0 -8.7736096113e+00 -2.7744420275e+01 -3.2200850926e+01 4.3400735965e+01 0.0000000000e+00 0.0000e+00 -1.0000e+00
</event>
<event>
 8      3 +3.7482383e-04 9.11880000e+01 7.81616400e-03 1.18400000e-01
      -11 -1    0    0    0    0 +0.0000000000e+00 +0.0000000000e+00 +4.5593999997e+01 4.5594000000e+01 5.1100000000e-04 0.0000e+00 -1.0000e+00
       11 -1    0    0    0    0 -0.0000000000e+00 -0.0000000000e+00 -4.5593999997e+01 4.5594000000e+01 5.1100000000e-04 0.0000e+00 1.0000e+00
       23  2    1    2    0    0 +0.0000000000e+00 +7.1054273576e-15 -3.5527136788e-15 9.1188000000e+01 9.1188000000e+01 2.6365e-14 0.0000e+00
  9990012  2    3    3    0    0 -6.5844764645e+00 +3.7992256869e+01 +1.9921253508e+01 4.7787271277e+01 2.0000001061e+01 9.9734e-02 0.0000e+00
      -11  1    4    4    0    0 -1.0994731671e+01 +2.1145903430e+01 +1.3458831575e+01 2.7371034033e+01 5.1100000000e-04 0.0000e+00 -1.0000e+00
       11  1    4    4    0    0 +3.9817697761e+00 +1.0956415110e+01 -5.9870782146e-03 1.1657510829e+01 5.1100000000e-04 0.0000e+00 1.0000e+00
       12  1    4    4    0    0 +4.2848543045e-01 +5.8899383287e+00 +6.4684090112e+00 8.7587264152e+00 0.0000000000e+00 0.0000e+00 -1.0000e+00
      -12  1    3    3    0    0 +6.5844764645e+00 -3.7992256869e+01 -1.9921253508e+01 4.3400728723e+01 0.0000000000e+00 0.0000e+00 1.0000e+00
</event>
<event>
 8      4 +3.7482383e-04 9.11880000e+01 7.81616400e-03 1.18400000e-01
      -11 -1    0    0    0    0 +0.0000000000e+00 +0.0000000000e+00 +4.5593999997e+01 4.5594000000e+01 5.1100000000e-04 0.0000e+00 -1.0000e+00
       11 -1    0    0    0    0 -0.0000000000e+00 -0.0000000000e+00 -4.5593999997e+01 4.5594000000e+01 5.1100000000e-04 0.0000e+00 1.0000e+00
       23  2    1    2    0    0 +0.0000000000e+00 -1.7763568394e-15 +3.5527136788e-15 9.1188000000e+01 9.1188000000e+01 2.4063e-14 0.0000e+00
 -9990012  2    3    3    0    0 +3.8463082030e+01 +8.0292770378e+00 -1.8432188702e+01 4.7787267871e+01 1.9999985533e+01 4.7597e-01 0.0000e+00
      -11  1    4    4    0    0 +2.7008908506e+01 +1.1646365151e+00 -7.1643662374e+00 2.7967224760e+01 5.1100000000e-04 0.0000e+00 1.0000e+00
       11  1    4    4    0    0 +1.1425765426e+01 +8.0853165115e+00 -1.1964864565e+01 1.8414082735e+01 5.1100000000e-04 0.0000e+00 -1.0000e+00
      -12  1    4    4    0    0 +2.8408097628e-02 -1.2206759888e+00 +6.9704210082e-01 1.4059603764e+00 0.0000000000e+00 0.0000e+00 1.0000e+00
       12  1    3    3    0    0 -3.8463082030e+01 -8.0292770378e+00 +1.8432188702e+01 4.3400732129e+01 0.0000000000e+00 0.0000e+00 -1.0000e+00
</event>
<event>
 8      3 +3.7482383e-04 9.11880000e+01 7.81616400e-03 1.18400000e-01
      -11 -1    0    0    0    0 +0.0000000000e+00 +0.0000000000e+00 +4.5593999997e+01 4.5594000000e+01 5.1100000000e-04 0.0000e+00 1.0000e+00
       11 -1    0    0    0    0 -0.0000000000e+00 -0.0000000000e+00 -4.5593999997e+01 4.5594000000e+01 5.1100000000e-04 0.0000e+00 -1.0000e+00
       23  2    1    2    0    0 +0.0000000000e+00 +1.7763568394e-15 +0.0000000000e+00 9.1188000000e+01 9.1188000000e+01 1.0092e-14 0.0000e+00
  9990012  2    3    3    0    0 -1.6920313852e+01 +6.6410079789e+00 -3.9410951559e+01 4.7787272925e+01 2.0000008573e+01 1.5526e-01 0.0000e+00
      -11  1    4    4    0    0 -6.9655783152e+00 -1.2844222744e+00 -1.6771002912e+01 1.8205371756e+01 5.1100000000e-04 0.0000e+00 -1.0000e+00
       11  1    4    4    0    0 -7.6549243678e+00 -2.6405845329e+00 -1.1417690933e+01 1.3997650526e+01 5.1100000000e-04 0.0000e+00 1.0000e+00
       12  1    4    4    0    0 -2.2998111694e+00 +1.0566014786e+01 -1.1222257715e+01 1.5584250643e+01 0.0000000000e+00 0.0000e+00 -1.0000e+00
      -12  1    3    3    0    0 +1.6920313852e+01 -6.6410079789e+00 +3.9410951559e+01 4.3400727075e+01 0.0000000000e+00 0.0000e+00 1.0000e+00
</event>
<event>
 8      4 +3.7482383e-04 9.11880000e+01 7.81616400e-03 1.18400000e-01
      -11 -1    0    0    0    0 +0.0000000000e+00 +0.0000000000e+00 +4.5593999997e+01 4.5594000000e+01 5.1100000000e-04 0.0000e+00 -1.0000e+00
       11 -1    0    0    0    0 -0.0000000000e+00 -0.0000000000e+00 -4.5593999997e+01 4.5594000000e+01 5.1100000000e-04 0.0000e+00 1.0000e+00
       23  2    1    2    0    0 +0.0000000000e+00 +0.0000000000e+00 +0.0000000000e+00 9.1188000000e+01 9.1188000000e+01 1.5798e-14 0.0000e+00
 -9990012  2    3    3    0    0 -1.0493033440e+01 -2.7057747874e+01 -3.2270685486e+01 4.7787278663e+01 2.0000034737e+01 9.9966e-02 0.0000e+00
      -11  1    4    4    0    0 +2.8067475317e+00 -1.3612435946e+01 -1.4048988662e+01 1.9762346186e+01 5.1100000000e-04 0.0000e+00 1.0000e+00
       11  1    4    4    0    0 +1.1993815646e+00 -8.0749271273e-01 -3.5528007205e+00 3.8357468424e+00 5.1100000000e-04 0.0000e+00 -1.0000e+00
      -12  1    4    4    0    0 -1.4499162536e+01 -1.2637819215e+01 -1.4668896104e+01 2.4189185635e+01 0.0000000000e+00 0.0000e+00 1.0000e+00
       12  1    3    3    0    0 +1.0493033440e+01 +2.7057747874e+01 +3.2270685486e+01 4.3400721337e+01 0.0000000000e+00 0.0000e+00 -1.0000e+00
</event>
<event>
 8      3 +3.7482383e-04 9.11880000e+01 7.81616400e-03 1.18400000e-01
      -11 -1    0    0    0    0 +0.0000000000e+00 +0.0000000000e+00 +4.5593999997e+01 4.5594000000e+01 5.1100000000e-04 0.0000e+00 -1.0000e+00
       11 -1    0    0    0    0 -0.0000000000e+00 -0.0000000000e+00 -4.5593999997e+01 4.5594000000e+01 5.1100000000e-04 0.0000e+00 1.0000e+00
       23  2    1    2    0    0 -3.5527136788e-15 -3.5527136788e-15 +0.0000000000e+00 9.1188000000e+01 9.1188000000e+01 1.5656e-13 0.0000e+00
  9990012  2    3    3    0    0 -2.4790629653e+01 -1.2883908131e+01 +3.3212247961e+01 4.7787264731e+01 1.9999971214e+01 5.3216e-02 0.0000e+00
      -11  1    4    4    0    0 -8.7403891070e+00 +1.1834476493e+00 +1.0472908387e+01 1.3692215322e+01 5.1100000000e-04 0.0000e+00 1.0000e+00
       11  1    4    4    0    0 -2.0456491351e+00 +1.9406683816e+00 -1.8210883599e-01 2.8256040134e+00 5.1100000000e-04 0.0000e+00 -1.0000e+00
       12  1    4    4    0    0 -1.4004591411e+01 -1.6008024162e+01 +2.2921448410e+01 3.1269445396e+01 0.0000000000e+00 0.0000e+00 -1.0000e+00
      -12  1    3    3    0    0 +2.4790629653e+01 +1.2883908131e+01 -3.3212247961e+01 4.3400735269e+01 0.0000000000e+00 0.0000e+00 1.0000e+00
</event>
<event>
 8      4 +3.7482383e-04 9.11880000e+01 7.81616400e-03 1.18400000e-01
      -11 -1    0    0    0    0 +0.0000000000e+00 +0.0000000000e+00 +4.5593999997e+01 4.5594000000e+01 5.1100000000e-04 0.0000e+00 1.0000e+00
       11 -1    0    0    0    0 -0.0000000000e+00 -0.0000000000e+00 -4.5593999997e+01 4.5594000000e+01 5.1100000000e-04 0.0000e+00 -1.0000e+00
       23  2    1    2    0    0 +7.1054273576e-15 +0.0000000000e+00 +0.0000000000e+00 9.1188000000e+01 9.1188000000e+01 1.8904e-13 0.0000e+00
 -9990012  2    3    3    0    0 -3.4268466443e+01 +1.8603702973e+01 +1.9057747825e+01 4.7787270642e+01 1.9999998163e+01 7.5069e-02 0.0000e+00
      -11  1    4    4    0    0 -1.5665562237e+00 +4.9134730377e-01 +2.8828931733e-01 1.6669227837e+00 5.1100000000e-04 0.0000e+00 1.0000e+00
       11  1    4    4    0    0 -9.4632362659e+00 -2.8685726429e+00 +8.8702695149e+00 1.3283946370e+01 5.1100000000e-04 0.0000e+00 -1.0000e+00
      -12  1    4    4    0    0 -2.3238673954e+01 +2.0980928312e+01 +9.8991889927e+00 3.2836401488e+01 0.0000000000e+00 0.0000e+00 1.0000e+00
       12  1    3    3    0    0 +3.4268466443e+01 -1.8603702973e+01 -1.9057747825e+01 4.3400729358e+01 0.0000000000e+00 0.0000e+00 -1.0000e+00
</event>
<event>
 8      3 +3.7482383e-04 9.11880000e+01 7.81616400e-03 1.18400000e-01
      -11 -1    0    0    0    0 +0.0000000000e+00 +0.0000000000e+00 +4.5593999997e+01 4.5594000000e+01 5.1100000000e-04 0.0000e+00 1.0000e+00
       11 -1    0    0    0    0 -0.0000000000e+00 -0.0000000000e+00 -4.5593999997e+01 4.5594000000e+01 5.1100000000e-04 0.0000e+00 -1.0000e+00
       23  2    1    2    0    0 +0.0000000000e+00 +0.0000000000e+00 +0.0000000000e+00 9.1188000000e+01 9.1188000000e+01 3.4471e-14 0.0000e+00
  9990012  2    3    3    0    0 -3.5267177208e+01 -1.4014009757e+01 -2.1058419776e+01 4.7787270730e+01 1.9999998567e+01 6.3097e-02 0.0000e+00
      -11  1    4    4    0    0 -1.3071636209e+01 -7.3062541306e+00 -2.0546951005e+00 1.5115250406e+01 5.1100000000e-04 0.0000e+00 1.0000e+00
       11  1    4    4    0    0 -4.1044385306e+00 -1.0645434330e+00 +1.7326142746e+00 4.5805699271e+00 5.1100000000e-04 0.0000e+00 -1.0000e+00
       12  1    4    4    0    0 -1.8091102468e+01 -5.6432121935e+00 -2.0736338950e+01 2.8091450397e+01 0.0000000000e+00 0.0000e+00 -1.0000e+00
      -12  1    3    3    0    0 +3.5267177208e+01 +1.4014009757e+01 +2.1058419776e+01 4.3400729270e+01 0.0000000000e+00 0.0000e+00 1.0000e+00
</event>
<event>
 8      3 +3.7482383e-04 9.11880000e+01 7.81616400e-03 1.18400000e-01
      -11 -1    0    0    0    0 +0.0000000000e+00 +0.0000000000e+00 +4.5593999997e+01 4.5594000000e+01 5.1100000000e-04 0.0000e+00 1.0000e+00
       11 -1    0    0    0    0 -0.0000000000e+00 -0.0000000000e+00 -4.5593999997e+01 4.5594000000e+01 5.1100000000e-04 0.0000e+00 -1.0000e+00
       23  2    1    2    0    0 +3.5527136788e-15 +3.5527136788e-15 +3.5527136788e-15 9.1188000000e+01 9.1188000000e+01 1.1637e-13 0.0000e+00
  9990012  2    3    3    0    0 -3.0200465843e+01 -2.1626697115e+01 -2.2446425065e+01 4.7787260796e+01 1.9999953274e+01 4.4155e-01 0.0000e+00
      -11  1    4    4    0    0 +4.5467237579e-01 -3.7308990168e+00 -3.3368259307e+00 5.0260065654e+00 5.1100000000e-04 0.0000e+00 -1.0000e+00
       11  1    4    4    0    0 -7.2965056364e+00 -1.2154783152e+01 -6.3687705466e+00 1.5541524588e+01 5.1100000000e-04 0.0000e+00 1.0000e+00
       12  1    4    4    0    0 -2.3358632582e+01 -5.7410149458e+00 -1.2740828588e+01 2.7219729643e+01 0.0000000000e+00 0.0000e+00 -1.0000e+00
      -12  1    3    3    0    0 +3.0200465843e+01 +2.1626697115e+01 +2.2446425065e+01 4.3400739204e+01 0.0000000000e+00 0.0000e+00 1.0000e+00
</event>
<event>
 8      3 +3.7482383e-04 9.11880000e+01 7.81616400e-03 1.18400000e-01
      -11 -1    0    0    0    0 +0.0000000000e+00 +0.0000000000e+00 +4.5593999997e+01 4.5594000000e+01 5.1100000000e-04 0.0000e+00 1.0000e+00
       11 -1    0    0    0    0 -0.0000000000e+00 -0.0000000000e+00 -4.5593999997e+01 4.5594000000e+01 5.1100000000e-04 0.0000e+00 -1.0000e+00
       23  2    1    2    0    0 -4.4408920985e-16 -7.1054273576e-15 +3.5527136788e-15 9.1188000000e+01 9.1188000000e+01 3.2299e-14 0.0000e+00
  9990012  2    3    3    0    0 +3.4356794406e+00 +3.8747486186e+01 -1.9247125481e+01 4.7787269382e+01 1.9999992418e+01 5.5505e-02 0.0000e+00
      -11  1    4    4    0    0 +7.0009801565e+00 +1.6491516860e+01 -9.6168362191e-01 1.7941813932e+01 5.1100000000e-04 0.0000e+00 1.0000e+00
       11  1    4    4    0    0 -1.6935796894e+00 +1.7691324105e+01 -1.0541018966e+01 2.0663113073e+01 5.1100000000e-04 0.0000e+00 -1.0000e+00
       12  1    4    4    0    0 -1.8717210266e+00 +4.5646452204e+00 -7.7444228923e+00 9.1823423768e+00 0.0000000000e+00 0.0000e+00 -1.0000e+00
      -12  1    3    3    0    0 -3.4356794406e+00 -3.8747486186e+01 +1.9247125481e+01 4.3400730618e+01 0.0000000000e+00 0.0000e+00 1.0000e+00
</event>
<event>
 8      4 +3.7482383e-04 9.11880000e+01 7.81616400e-03 1.18400000e-01
      -11 -1    0    0    0    0 +0.0000000000e+00 +0.0000000000e+00 +4.5593999997e+01 4.5594000000e+01 5.1100000000e-04 0.0000e+00 -1.0000e+00
       11 -1    0    0    0    0 -0.0000000000e+00 -0.0000000000e+00 -4.5593999997e+01 4.5594000000e+01 5.1100000000e-04 0.0000e+00 1.0000e+00
       23  2    1    2    0    0 +0.0000000000e+00 +0.0000000000e+00 -7.1054273576e-15 9.1188000000e+01 9.1188000000e+01 2.9564e-14 0.0000e+00
 -9990012  2    3    3    0    0 -5.8498726917e+00 +3.0188505692e+00 -4.2898612232e+01 4.7787246542e+01 1.9999888282e+01 1.1276e-01 0.0000e+00
      -11  1    4    4    0    0 -3.3241988803e+00 -3.6053725195e-01 -7.3680970661e+00 8.0913002627e+00 5.1100000000e-04 0.0000e+00 1.0000e+00
       11  1    4    4    0    0 -2.6988581921e+00 +6.1700655555e+00 -3.5868408802e+00 7.6301357958e+00 5.1100000000e-04 0.0000e+00 -1.0000e+00
      -12  1    4    4    0    0 +1.7318438063e-01 -2.7906777344e+00 -3.1943674286e+01 3.2065810483e+01 0.0000000000e+00 0.0000e+00 1.0000e+00
       12  1    3    3    0    0 +5.8498726917e+00 -3.0188505692e+00 +4.2898612232e+01 4.3400753458e+01 0.0000000000e+00 0.0000e+00 -1.0000e+00
</event>
<event>
 8      3 +3.7482383e-04 9.11880000e+01 7.81616400e-03 1.18400000e-01
      -11 -1    0    0    0    0 +0.0000000000e+00 +0.0000000000e+00 +4.5593999997e+01 4.5594000000e+01 5.1100000000e-04 0.0000e+00 1.0000e+00
       11 -1    0    0    0    0 -0.0000000000e+00 -0.0000000000e+00 -4.5593999997e+01 4.5594000000e+01 5.1100000000e-04 0.0000e+00 -1.0000e+00
       23  2    1    2    0    0 +0.0000000000e+00 +0.0000000000e+00 +0.0000000000e+00 9.1188000000e+01 9.1188000000e+01 2.4118e-14 0.0000e+00
  9990012  2    3    3    0    0 +7.1622839515e+00 -1.4113232207e+01 -4.0412146389e+01 4.7787271774e+01 2.0000003328e+01 2.1930e-01 0.0000e+00
      -11  1    4    4    0    0 +5.4247851329e-01 -1.3608127974e+01 -2.0267310089e+01 2.4418011557e+01 5.1100000000e-04 0.0000e+00 -1.0000e+00
       11  1    4    4    0    0 +3.3675781257e+00 +5.5212075645e-01 -5.2387860090e-01 3.4525163015e+00 5.1100000000e-04 0.0000e+00 1.0000e+00
       12  1    4    4    0    0 +3.2522273126e+00 -1.0572249892e+00 -1.9620957699e+01 1.9916743916e+01 0.0000000000e+00 0.0000e+00 -1.0000e+00
      -12  1    3    3    0    0 -7.1622839515e+00 +1.4113232207e+01 +4.0412146389e+01 4.3400728226e+01 0.0000000000e+00 0.0000e+00 1.0000e+00
</event>
<event>
 8      3 +3.7482383e-04 9.11880000e+01 7.81616400e-03 1.18400000e-01
      -11 -1    0    0    0    0 +0.0000000000e+00 +0.0000000000e+00 +4.5593999997e+01 4.5594000000e+01 5.1100000000e-04 0.0000e+00 -1.0000e+00
       11 -1    0    0    0    0 -0.0000000000e+00 -0.0000000000e+00 -4.5593999997e+01 4.5594000000e+01 5.1100000000e-04 0.0000e+00 1.0000e+00
       23  2    1    2    0    0 -3.5527136788e-15 +8.8817841970e-16 +0.0000000000e+00 9.1188000000e+01 9.1188000000e+01 1.1450e-13 0.0000e+00
  9990012  2    3    3    0    0 -2.0898424896e+01 +5.7566824452e+00 +3.7599727123e+01 4.7787273790e+01 2.0000012517e+01 1.1119e-01 0.0000e+00
      -11  1    4    4    0    0 -5.9853499896e+00 -1.0542107994e+00 +2.4318682170e+01 2.5066592861e+01 5.1100000000e-04 0.0000e+00 -1.0000e+00
       11  1    4    4    0    0 -4.1138541981e-01 -1.3417176428e+00 +2.5888578975e+00 2.9447630926e+00 5.1100000000e-04 0.0000e+00 1.0000e+00
       12  1    4    4    0    0 -1.4501689486e+01 +8.1526108875e+00 +1.0692187055e+01 1.9775917836e+01 0.0000000000e+00 0.0000e+00 -1.0000e+00
      -12  1    3    3    0    0 +2.0898424896e+01 -5.7566824452e+00 -3.7599727123e+01 4.3400726210e+01 0.0000000000e+00 0.0000e+00 1.0000e+00
</event>
<event>
 8      4 +3.7482383e-04 9.11880000e+01 7.81616400e-03 1.18400000e-01
      -11 -1    0    0    0    0 +0.0000000000e+00 +0.0000000000e+00 +4.5593999997e+01 4.5594000000e+01 5.1100000000e-04 0.0000e+00 1.0000e+00
       11 -1    0    0    0    0 -0.0000000000e+00 -0.0000000000e+00 -4.5593999997e+01 4.5594000000e+01 5.1100000000e-04 0.0000e+00 -1.0000e+00
       23  2    1    2    0    0 +0.0000000000e+00 +0.0000000000e+00 +3.5527136788e-15 9.1188000000e+01 9.1188000000e+01 1.4829e-14 0.0000e+00
 -9990012  2    3    3    0    0 +2.1061164209e+01 +3.3353789798e+01 +1.8098981211e+01 4.7787296635e+01 2.0000116676e+01 1.4265e-01 0.0000e+00
      -11  1    4    4    0    0 +2.6405358110e+00 +8.1977279839e+00 +3.7555984501e+00 9.3957274038e+00 5.1100000000e-04 0.0000e+00 1.0000e+00
       11  1    4    4    0    0 +1.6875439132e+00 +1.6842318070e+01 +6.8908822905e+00 1.8275550373e+01 5.1100000000e-04 0.0000e+00 -1.0000e+00
      -12  1    4    4    0    0 +1.6733084485e+01 +8.3137437439e+00 +7.4525004705e+00 2.0116018858e+01 0.0000000000e+00 0.0000e+00 1.0000e+00
       12  1    3    3    0    0 -2.1061164209e+01 -3.3353789798e+01 -1.8098981211e+01 4.3400703365e+01 0.0000000000e+00 0.0000e+00 -1.0000e+00
</event>
<event>
 8      3 +3.7482383e-04 9.11880000e+01 7.81616400e-03 1.18400000e-01
      -11 -1    0    0    0    0 +0.0000000000e+00 +0.0000000000e+00 +4.5593999997e+01 4.5594000000e+01 5.1100000000e-04 0.0000e+00 -1.0000e+00
       11 -1    0    0    0    0 -0.0000000000e+00 -0.0000000000e+00 -4.5593999997e+01 4.5594000000e+01 5.1100000000e-04 0.0000e+00 1.0000e+00
       23  2    1    2    0    0 +3.5527136788e-15 +3.5527136788e-15 +1.7763568394e-15 9.1188000000e+01 9.1188000000e+01 2.3640e-15 0.0000e+00
  9990012  2    3    3    0    0 +2.9563735201e+01 -3.0608744518e+01 +8.5272467123e+00 4.7787267098e+01 1.9999982006e+01 2.9038e-01 0.0000e+00
      -11  1    4    4    0    0 +2.3092245755e+01 -1.7724986654e+01 +9.6563633804e+00 3.0670381802e+01 5.1100000000e-04 0.0000e+00 -1.0000e+00
       11  1    4    4    0    0 +2.4924756286e+00 -3.0074389913e+00 +3.7407418129e+00 5.4083522090e+00 5.1100000000e-04 0.0000e+00 1.0000e+00
       12  1    4    4    0    0 +3.9790138174e+00 -9.8763188721e+00 -4.8698584809e+00 1.1708533087e+01 0.0000000000e+00 0.0000e+00 -1.0000e+00
      -12  1    3    3    0    0 -2.9563735201e+01 +3.0608744518e+01 -8.5272467123e+00 4.3400732902e+01 0.0000000000e+00 0.0000e+00 1.0000e+00
</event>
<event>
 8      3 +3.7482383e-04 9.11880000e+01 7.81616400e-03 1.18400000e-01
      -11 -1    0    0    0    0 +0.0000000000e+00 +0.0000000000e+00 +4.5593999997e+01 4.5594000000e+01 5.1100000000e-04 0.0000e+00 1.0000e+00
       11 -1    0    0    0    0 -0.0000000000e+00 -0.0000000000e+00 -4.5593999997e+01 4.5594000000e+01 5.1100000000e-04 0.0000e+00 -1.0000e+00
       23  2    1    2    0    0 -7.1054273576e-15 -3.5527136788e-15 +0.0000000000e+00 9.1188000000e+01 9.1188000000e+01 1.5437e-13 0.0000e+00
  9990012  2    3    3    0    0 +3.7656206046e+01 +2.0672958394e+01 -6.1856575873e+00 4.7787269334e+01 1.9999992202e+01 9.0678e-02 0.0000e+00
      -11  1    4    4    0    0 +2.9496426553e-01 +4.0673622053e+00 -1.9567992233e+00 4.5232181783e+00 5.1100000000e-04 0.0000e+00 1.0000e+00
       11  1    4    4    0    0 +1.0243317574e+01 +8.5504722644e+00 -6.5805315566e+00 1.4877483883e+01 5.1100000000e-04 0.0000e+00 -1.0000e+00
       12  1    4    4    0    0 +2.7117924207e+01 +8.0551239238e+00 +2.3516731926e+00 2.8386567273e+01 0.0000000000e+00 0.0000e+00 -1.0000e+00
      -12  1    3    3    0    0 -3.7656206046e+01 -2.0672958394e+01 +6.1856575873e+00 4.3400730666e+01 0.0000000000e+00 0.0000e+00 1.0000e+00
</event>
<event>
 8      3 +3.7482383e-04 9.11880000e+01 7.81616400e-03 1.18400000e-01
      -11 -1    0    0    0    0 +0.0000000000e+00 +0.0000000000e+00 +4.5593999997e+01 4.5594000000e+01 5.1100000000e-04 0.0000e+00 1.0000e+00
       11 -1    0    0    0    0 -0.0000000000e+00 -0.0000000000e+00 -4.5593999997e+01 4.5594000000e+01 5.1100000000e-04 0.0000e+00 -1.0000e+00
       23  2    1    2    0    0 +0.0000000000e+00 +0.0000000000e+00 -1.7763568394e-15 9.1188000000e+01 9.1188000000e+01 5.7397e-14 0.0000e+00
  9990012  2    3    3    0    0 -2.4393218375e+01 +3.4748160650e+01 +9.0088338696e+00 4.7787275824e+01 2.0000021794e+01 5.0226e-01 0.0000e+00
      -11  1    4    4    0    0 +1.1759081246e-01 +1.8010844200e+00 -4.9659048768e-01 1.8719869286e+00 5.1100000000e-04 0.0000e+00 1.0000e+00
       11  1    4    4    0    0 -1.7167533938e+01 +1.9003026055e+01 -3.0169469505e+00 2.5786453613e+01 5.1100000000e-04 0.0000e+00 -1.0000e+00
       12  1    4    4    0    0 -7.3432752489e+00 +1.3944050175e+01 +1.2522371308e+01 2.0128835283e+01 0.0000000000e+00 0.0000e+00 -1.0000e+00
      -12  1    3    3    0    0 +2.4393218375e+01 -3.4748160650e+01 -9.0088338696e+00 4.3400724176e+01 0.0000000000e+00 0.0000e+00 1.0000e+00
</event>
<event>
 8      4 +3.7482383e-04 9.11880000e+01 7.81616400e-03 1.18400000e-01
      -11 -1    0    0    0    0 +0.0000000000e+00 +0.0000000000e+00 +4.5593999997e+01 4.5594000000e+01 5.1100000000e-04 0.0000e+00 1.0000e+00
       11 -1    0    0    0    0 -0.0000000000e+00 -0.0000000000e+00 -4.5593999997e+01 4.5594000000e+01 5.1100000000e-04 0.0000e+00 -1.0000e+00
       23  2    1    2    0    0 -1.7763568394e-15 +0.0000000000e+00 +1.7763568394e-15 9.1188000000e+01 9.1188000000e+01 1.4799e-13 0.0000e+00
 -9990012  2    3    3    0    0 +1.1609404788e+01 +3.8901148131e+01 +1.5347498591e+01 4.7787270531e+01 1.9999997658e+01 1.6881e-01 0.0000e+00
      -11  1    4    4    0    0 +1.0096593822e+00 +1.8811268714e+00 +6.6918353136e+00 7.0241519417e+00 5.1100000000e-04 0.0000e+00 1.0000e+00
       11  1    4    4    0    0 -1.1026969355e+00 +1.2318636490e+00 -9.4662160733e-01 1.9051302606e+00 5.1100000000e-04 0.0000e+00 -1.0000e+00
      -12  1    4    4    0    0 +1.1702442341e+01 +3.5788157611e+01 +9.6022848843e+00 3.8857988328e+01 0.0000000000e+00 0.0000e+00 1.0000e+00
       12  1    3    3    0    0 -1.1609404788e+01 -3.8901148131e+01 -1.5347498591e+01 4.3400729469e+01 0.0000000000e+00 0.0000e+00 -1.0000e+00
</event>
<event>
 8      3 +3.7482383e-04 9.11880000e+01 7.81616400e-03 1.18400000e-01
      -11 -1    0    0    0    0 +0.0000000000e+00 +0.0000000000e+00 +4.5593999997e+01 4.5594000000e+01 5.1100000000e-04 0.0000e+00 -1.0000e+00
       11 -1    0    0    0    0 -0.0000000000e+00 -0.0000000000e+00 -4.5593999997e+01 4.5594000000e+01 5.1100000000e-04 0.0000e+00 1.0000e+00
       23  2    1    2    0    0 +0.0000000000e+00 +8.8817841970e-16 +1.4210854715e-14 9.1188000000e+01 9.1188000000e+01 3.8898e-14 0.0000e+00
  9990012  2    3    3    0    0 -9.9768181153e+00 +6.5633874433e+00 +4.1725392025e+01 4.7787270812e+01 1.9999998938e+01 2.1684e-03 0.0000e+00
      -11  1    4    4    0    0 +6.9667087151e-01 +7.2206962413e+00 +4.1178078594e+00 8.3414714733e+00 5.1100000000e-04 0.0000e+00 1.0000e+00
       11  1    4    4    0    0 -2.3021148962e+00 -2.4242363514e+00 +1.0218956718e+01 1.0751917575e+01 5.1100000000e-04 0.0000e+00 -1.0000e+00
       12  1    4    4    0    0 -8.3713740906e+00 +1.7669275534e+00 +2.7388627448e+01 2.8693881763e+01 0.0000000000e+00 0.0000e+00 -1.0000e+00
      -12  1    3    3    0    0 +9.9768181153e+00 -6.5633874433e+00 -4.1725392025e+01 4.3400729188e+01 0.0000000000e+00 0.0000e+00 1.0000e+00
</event>
<event>
 8      3 +3.7482383e-04 9.11880000e+01 7.81616400e-03 1.18400000e-01
      -11 -1    0    0    0    0 +0.0000000000e+00 +0.0000000000e+00 +4.5593999997e+01 4.5594000000e+01 5.1100000000e-04 0.0000e+00 1.0000e+00
       11 -1    0    0    0    0 -0.0000000000e+00 -0.0000000000e+00 -4.5593999997e+01 4.5594000000e+01 5.1100000000e-04 0.0000e+00 -1.0000e+00
       23  2    1    2    0    0 +0.0000000000e+00 +8.8817841970e-16 +0.0000000000e+00 9.1188000000e+01 9.1188000000e+01 5.3143e-15 0.0000e+00
  9990012  2    3    3    0    0 -2.1767172364e+01 -5.1620213557e+00 -3.7190951739e+01 4.7787272489e+01 2.0000006586e+01 6.5151e-02 0.0000e+00
      -11  1    4    4    0    0 +2.2294287570e-01 +2.7029500229e+00 -8.5484579192e-01 2.8436603069e+00 5.1100000000e-04 0.0000e+00 1.0000e+00
       11  1    4    4    0    0 -2.3550676851e+00 +2.7096386278e+00 -2.3398764648e+00 4.2852663192e+00 5.1100000000e-04 0.0000e+00 -1.0000e+00
       12  1    4    4    0    0 -1.9635047555e+01 -1.0574610006e+01 -3.3996229483e+01 4.0658345863e+01 0.0000000000e+00 0.0000e+00 -1.0000e+00
      -12  1    3    3    0    0 +2.1767172364e+01 +5.1620213557e+00 +3.7190951739e+01 4.3400727511e+01 0.0000000000e+00 0.0000e+00 1.0000e+00
</event>
<event>
 8      3 +3.7482383e-04 9.11880000e+01 7.81616400e-03 1.18400000e-01
      -11 -1    0    0    0    0 +0.0000000000e+00 +0.0000000000e+00 +4.5593999997e+01 4.5594000000e+01 5.1100000000e-04 0.0000e+00 1.0000e+00
       11 -1    0    0    0    0 -0.0000000000e+00 -0.0000000000e+00 -4.5593999997e+01 4.5594000000e+01 5.1100000000e-04 0.0000e+00 -1.0000e+00
       23  2    1    2    0    0 +3.5527136788e-15 -7.1054273576e-15 -8.8817841970e-16 9.1188000000e+01 9.1188000000e+01 1.2212e-13 0.0000e+00
  9990012  2    3    3    0    0 +2.6977346544e+01 -3.3563341242e+01 -5.4173856905e+00 4.7787272246e+01 2.0000005477e+01 6.0771e-01 0.0000e+00
      -11  1    4    4    0    0 +2.1421069532e+00 -1.5839935265e+01 -3.8628873163e+00 1.6444271649e+01 5.1100000000e-04 0.0000e+00 1.0000e+00
       11  1    4    4    0    0 +2.2833335521e+00 -3.9395760603e+00 +1.3596943555e+00 4.7521195951e+00 5.1100000000e-04 0.0000e+00 -1.0000e+00
       12  1    4    4    0    0 +2.2551906039e+01 -1.3783829917e+01 -2.9141927297e+00 2.6590881001e+01 0.0000000000e+00 0.0000e+00 -1.0000e+00
      -12  1    3    3    0    0 -2.6977346544e+01 +3.3563341242e+01 +5.4173856905e+00 4.3400727754e+01 0.0000000000e+00 0.0000e+00 1.0000e+00
</event>
<event>
 8      3 +3.7482383e-04 9.11880000e+01 7.81616400e-03 1.18400000e-01
      -11 -1    0    0    0    0 +0.0000000000e+00 +0.0000000000e+00 +4.5593999997e+01 4.5594000000e+01 5.1100000000e-04 0.0000e+00 1.0000e+00
       11 -1    0    0    0    0 -0.0000000000e+00 -0.0000000000e+00 -4.5593999997e+01 4.5594000000e+01 5.1100000000e-04 0.0000e+00 -1.0000e+00
       23  2    1    2    0    0 +3.5527136788e-15 +7.1054273576e-15 +0.0000000000e+00 9.1188000000e+01 9.1188000000e+01 9.0576e-14 0.0000e+00
  9990012  2    3    3    0    0 +1.6675294026e+01 +3.7184228822e+01 -1.4929515103e+01 4.7787277366e+01 2.0000028821e+01 1.8892e-02 0.0000e+00
      -11  1    4    4    0    0 +8.1981922785e+00 +8.2459174377e+00 +3.1455415554e+00 1.2045743770e+01 5.1100000000e-04 0.0000e+00 1.0000e+00
       11  1    4    4    0    0 +5.9199173902e-01 +3.8141359126e-01 +4.1694445600e-01 8.1839690076e-01 5.1100000000e-04 0.0000e+00 -1.0000e+00
       12  1    4    4    0    0 +7.8851100081e+00 +2.8556897793e+01 -1.8492001114e+01 3.4923136695e+01 0.0000000000e+00 0.0000e+00 -1.0000e+00
      -12  1    3    3    0    0 -1.6675294026e+01 -3.7184228822e+01 +1.4929515103e+01 4.3400722634e+01 0.0000000000e+00 0.0000e+00 1.0000e+00
</event>
<event>
 8      4 +3.7482383e-04 9.11880000e+01 7.81616400e-03 1.18400000e-01
      -11 -1    0    0    0    0 +0.0000000000e+00 +0.0000000000e+00 +4.5593999997e+01 4.5594000000e+01 5.1100000000e-04 0.0000e+00 -1.0000e+00
       11 -1    0    0    0    0 -0.0000000000e+00 -0.0000000000e+00 -4.5593999997e+01 4.5594000000e+01 5.1100000000e-04 0.0000e+00 1.0000e+00
       23  2    1    2    0    0 +3.5527136788e-15 +3.5527136788e-15 +0.0000000000e+00 9.1188000000e+01 9.1188000000e+01 8.6003e-15 0.0000e+00
 -9990012  2    3    3    0    0 +2.8507357548e+01 +3.1382798670e+01 +9.2776019892e+00 4.7787269759e+01 1.9999994141e+01 2.5155e-01 0.0000e+00
      -11  1    4    4    0    0 +1.9674754959e+00 +5.0549673295e+00 -3.0728405144e+00 6.2342604707e+00 5.1100000000e-04 0.0000e+00 1.0000e+00
       11  1    4    4    0    0 +2.8208860771e+00 -1.3652518194e+00 +2.8720957035e-01 3.1470304080e+00 5.1100000000e-04 0.0000e+00 -1.0000e+00
      -12  1    4    4    0    0 +2.3718995975e+01 +2.7693083160e+01 +1.2063232933e+01 3.8405978881e+01 0.0000000000e+00 0.0000e+00 1.0000e+00
       12  1    3    3    0    0 -2.8507357548e+01 -3.1382798670e+01 -9.2776019892e+00 4.3400730241e+01 0.0000000000e+00 0.0000e+00 -1.0000e+00
</event>
<event>
 8      3 +3.7482383e-04 9.11880000e+01 7.81616400e-03 1.18400000e-01
      -11 -1    0    0    0    0 +0.0000000000e+00 +0.0000000000e+00 +4.5593999997e+01 4.5594000000e+01 5.1100000000e-04 0.0000e+00 1.0000e+00
       11 -1    0    0    0    0 -0.0000000000e+00 -0.0000000000e+00 -4.5593999997e+01 4.5594000000e+01 5.1100000000e-04 0.0000e+00 -1.0000e+00
       23  2    1    2    0    0 +0.0000000000e+00 +0.0000000000e+00 +0.0000000000e+00 9.1188000000e+01 9.1188000000e+01 2.9395e-14 0.0000e+00
  9990012  2    3    3    0    0 +2.4043762366e+01 +3.3858482234e+01 -1.2614401061e+01 4.7787280627e+01 2.0000043692e+01 1.1717e+00 0.0000e+00
      -11  1    4    4    0    0 -2.9855784909e+00 +3.8882559159e+00 -1.6137926269e+00 5.1610599587e+00 5.1100000000e-04 0.0000e+00 1.0000e+00
       11  1    4    4    0    0 +4.5533937070e+00 +2.2265900996e+00 -3.4494409014e+00 6.1310472610e+00 5.1100000000e-04 0.0000e+00 -1.0000e+00
       12  1    4    4    0    0 +2.2475947150e+01 +2.7743636219e+01 -7.5511675326e+00 3.6495173408e+01 0.0000000000e+00 0.0000e+00 -1.0000e+00
      -12  1    3    3    0    0 -2.4043762366e+01 -3.3858482234e+01 +1.2614401061e+01 4.3400719373e+01 0.0000000000e+00 0.0000e+00 1.0000e+00
</event>
<event>
 8      4 +3.7482383e-04 9.11880000e+01 7.81616400e-03 1.18400000e-01
      -11 -1    0    0    0    0 +0.0000000000e+00 +0.0000000000e+00 +4.5593999997e+01 4.5594000000e+01 5.1100000000e-04 0.0000e+00 1.0000e+00
       11 -1    0    0    0    0 -0.0000000000e+00 -0.0000000000e+00 -4.5593999997e+01 4.5594000000e+01 5.1100000000e-04 0.0000e+00 -1.0000e+00
       23  2    1    2    0    0 -1.7763568394e-15 +0.0000000000e+00 -3.5527136788e-15 9.1188000000e+01 9.1188000000e+01 8.3785e-14 0.0000e+00
 -9990012  2    3    3    0    0 +1.0608754172e+01 -3.8620045728e+01 +1.6720370800e+01 4.7787258108e+01 1.9999941015e+01 4.1634e-02 0.0000e+00
      -11  1    4    4    0    0 +1.1339192134e+01 -8.4900089184e+00 +6.1019669113e+00 1.5423732692e+01 5.1100000000e-04 0.0000e+00 1.0000e+00
       11  1    4    4    0    0 +5.5096823620e-01 -1.8751137062e+00 -4.2501545263e-01 2.0000639502e+00 5.1100000000e-04 0.0000e+00 -1.0000e+00
      -12  1    4    4    0    0 -1.2814061985e+00 -2.8254923103e+01 +1.1043419341e+01 3.0363461466e+01 0.0000000000e+00 0.0000e+00 1.0000e+00
       12  1    3    3    0    0 -1.0608754172e+01 +3.8620045728e+01 -1.6720370800e+01 4.3400741892e+01 0.0000000000e+00 0.0000e+00 -1.0000e+00
</event>
<event>
 8      4 +3.7482383e-04 9.11880000e+01 7.81616400e-03 1.18400000e-01
      -11 -1    0    0    0    0 +0.0000000000e+00 +0.0000000000e+00 +4.5593999997e+01 4.5594000000e+01 5.1100000000e-04 0.0000e+00 1.0000e+00
       11 -1    0    0    0    0 -0.0000000000e+00 -0.0000000000e+00 -4.5593999997e+01 4.5594000000e+01 5.1100000000e-04 0.0000e+00 -1.0000e+00
       23  2    1    2    0    0 +0.0000000000e+00 +1.7763568394e-15 +7.1054273576e-15 9.1188000000e+01 9.1188000000e+01 1.6116e-13 0.0000e+00
 -9990012  2    3    3    0    0 -1.9755474298e+01 +6.3858703309e+00 +3.8112542774e+01 4.7787262433e+01 1.9999960738e+01 2.1932e-01 0.0000e+00
      -11  1    4    4    0    0 -4.7533737687e+00 -3.3682668576e+00 +4.4453811580e+00 7.3281101049e+00 5.1100000000e-04 0.0000e+00 -1.0000e+00
       11  1    4    4    0    0 -1.1799884137e+01 +9.5018089085e+00 +1.4318419294e+01 2.0845593528e+01 5.1100000000e-04 0.0000e+00 1.0000e+00
      -12  1    4    4    0    0 -3.2022163928e+00 +2.5232827999e-01 +1.9348742322e+01 1.9613558800e+01 0.0000000000e+00 0.0000e+00 1.0000e+00
       12  1    3    3    0    0 +1.9755474298e+01 -6.3858703309e+00 -3.8112542774e+01 4.3400737567e+01 0.0000000000e+00 0.0000e+00 -1.0000e+00
</event>
<event>
 8      4 +3.7482383e-04 9.11880000e+01 7.81616400e-03 1.18400000e-01
      -11 -1    0    0    0    0 +0.0000000000e+00 +0.0000000000e+00 +4.5593999997e+01 4.5594000000e+01 5.1100000000e-04 0.0000e+00 -1.0000e+00
       11 -1    0    0    0    0 -0.0000000000e+00 -0.0000000000e+00 -4.5593999997e+01 4.5594000000e+01 5.1100000000e-04 0.0000e+00 1.0000e+00
       23  2    1    2    0    0 +0.0000000000e+00 +0.0000000000e+00 +7.1054273576e-15 9.1188000000e+01 9.1188000000e+01 1.3183e-13 0.0000e+00
 -9990012  2    3    3    0    0 -1.0356834224e+01 +1.0661714912e+01 -4.0776062977e+01 4.7787268533e+01 1.9999988547e+01 1.5527e-01 0.0000e+00
      -11  1    4    4    0    0 -3.4153338202e+00 -9.2294391854e-01 -4.7801461238e+00 5.9469427277e+00 5.1100000000e-04 0.0000e+00 1.0000e+00
       11  1    4    4    0    0 -8.0436437538e+00 +1.2452697790e-01 -7.0790063315e+00 1.0715784745e+01 5.1100000000e-04 0.0000e+00 -1.0000e+00
      -12  1    4    4    0    0 +1.1021433503e+00 +1.1460131853e+01 -2.8916910522e+01 3.1124541060e+01 0.0000000000e+00 0.0000e+00 1.0000e+00
       12  1    3    3    0    0 +1.0356834224e+01 -1.0661714912e+01 +4.0776062977e+01 4.3400731467e+01 0.0000000000e+00 0.0000e+00 -1.0000e+00
</event>
<event>
 8      4 +3.7482383e-04 9.11880000e+01 7.81616400e-03 1.18400000e-01
      -11 -1    0    0    0    0 +0.0000000000e+00 +0.0000000000e+00 +4.5593999997e+01 4.5594000000e+01 5.1100000000e-04 0.0000e+00 -1.0000e+00
       11 -1    0    0    0    0 -0.0000000000e+00 -0.0000000000e+00 -4.5593999997e+01 4.5594000000e+01 5.1100000000e-04 0.0000e+00 1.0000e+00
       23  2    1    2    0    0 +0.0000000000e+00 -3.5527136788e-15 +3.5527136788e-15 9.1188000000e+01 9.1188000000e+01 8.8501e-14 0.0000e+00
 -9990012  2    3    3    0    0 -1.8600295664e+01 +3.0282034544e+01 -2.4912872342e+01 4.7787264715e+01 1.9999971142e+01 4.3637e-03 0.0000e+00
      -11  1    4    4    0    0 -9.3658423972e+00 +2.3741969844e+01 -6.9902288799e+00 2.6462491114e+01 5.1100000000e-04 0.0000e+00 1.0000e+00
       11  1    4    4    0    0 -6.1215958297e+00 +4.7021580961e+00 -1.0141991756e+01 1.2745360854e+01 5.1100000000e-04 0.0000e+00 -1.0000e+00
      -12  1    4    4    0    0 -3.1128574374e+00 +1.8379066034e+00 -7.7806517066e+00 8.5794127472e+00 0.0000000000e+00 0.0000e+00 1.0000e+00
       12  1    3    3    0    0 +1.8600295664e+01 -3.0282034544e+01 +2.4912872342e+01 4.3400735285e+01 0.0000000000e+00 0.0000e+00 -1.0000e+00
</event>
<event>
 8      4 +3.7482383e-04 9.11880000e+01 7.81616400e-03 1.18400000e-01
      -11 -1    0    0    0    0 +0.0000000000e+00 +0.0000000000e+00 +4.5593999997e+01 4.5594000000e+01 5.1100000000e-04 0.0000e+00 -1.0000e+00
       11 -1    0    0    0    0 -0.0000000000e+00 -0.0000000000e+00 -4.5593999997e+01 4.5594000000e+01 5.1100000000e-04 0.0000e+00 1.0000e+00
       23  2    1    2    0    0 +0.0000000000e+00 +8.8817841970e-16 +0.0000000000e+00 9.1188000000e+01 9.1188000000e+01 6.0503e-14 0.0000e+00
 -9990012  2    3    3    0    0 +4.4597394448e+00 +6.7088895746e+00 -4.2646514407e+01 4.7787266524e+01 1.9999979388e+01 2.4709e-01 0.0000e+00
      -11  1    4    4    0    0 +5.2311104420e+00 +7.8940047017e+00 -2.2461668622e+01 2.4376348870e+01 5.1100000000e-04 0.0000e+00 1.0000e+00
       11  1    4    4    0    0 -3.8389508870e+00 +3.8022894961e+00 -1.3402995781e+01 1.4451133017e+01 5.1100000000e-04 0.0000e+00 -1.0000e+00
      -12  1    4    4    0    0 +3.0675798897e+00 -4.9874046232e+00 -6.7818500038e+00 8.9597846363e+00 0.0000000000e+00 0.0000e+00 1.0000e+00
       12  1    3    3    0    0 -4.4597394448e+00 -6.7088895746e+00 +4.2646514407e+01 4.3400733476e+01 0.0000000000e+00 0.0000e+00 -1.0000e+00
</event>
<event>
 8      3 +3.7482383e-04 9.11880000e+01 7.81616400e-03 1.18400000e-01
      -11 -1    0    0    0    0 +0.0000000000e+00 +0.0000000000e+00 +4.5593999997e+01 4.5594000000e+01 5.1100000000e-04 0.0000e+00 -1.0000e+00
       11 -1    0    0    0    0 -0.0000000000e+00 -0.0000000000e+00 -4.5593999997e+01 4.5594000000e+01 5.1100000000e-04 0.0000e+00 1.0000e+00
       23  2    1    2    0    0 +0.0000000000e+00 +0.0000000000e+00 -1.7763568394e-15 9.1188000000e+01 9.1188000000e+01 7.4427e-14 0.0000e+00
  9990012  2    3    3    0    0 +1.5749963804e+01 -3.9483522633e+01 +8.7529046070e+00 4.7787271223e+01 2.0000000812e+01 1.0205e-01 0.0000e+00
      -11  1    4    4    0    0 -4.7237792261e-01 +1.0129019760e+00 +5.4890730194e-01 1.2451549309e+00 5.1100000000e-04 0.0000e+00 1.0000e+00
       11  1    4    4    0    0 +9.7927757691e+00 -2.5569548260e+01 +1.1931561870e+01 2.9867414089e+01 5.1100000000e-04 0.0000e+00 -1.0000e+00
       12  1    4    4    0    0 +6.4295659571e+00 -1.4926876350e+01 -3.7275645644e+00 1.6674702202e+01 0.0000000000e+00 0.0000e+00 -1.0000e+00
      -12  1    3    3    0    0 -1.5749963804e+01 +3.9483522633e+01 -8.7529046070e+00 4.3400728777e+01 0.0000000000e+00 0.0000e+00 1.0000e+00
</event>
<event>
 8      4 +3.7482383e-04 9.11880000e+01 7.81616400e-03 1.18400000e-01
      -11 -1    0    0    0    0 +0.0000000000e+00 +0.0000000000e+00 +4.5593999997e+01 4.5594000000e+01 5.1100000000e-04 0.0000e+00 1.0000e+00
       11 -1    0    0    0    0 -0.0000000000e+00 -0.0000000000e+00 -4.5593999997e+01 4.5594000000e+01 5.1100000000e-04 0.0000e+00 -1.0000e+00
       23  2    1    2    0    0 -4.4408920985e-16 +1.7763568394e-15 +7.1054273576e-15 9.1188000000e+01 9.1188000000e+01 2.9385e-14 0.0000e+00
 -9990012  2    3    3    0    0 -1.9104617496e+00 +1.3859842077e+01 +4.1083790997e+01 4.7787274555e+01 2.0000016004e+01 1.2651e-01 0.0000e+00
      -11  1    4    4    0    0 +1.7746315123e+00 +1.2160063081e+01 +3.1088177355e+01 3.3428898017e+01 5.1100000000e-04 0.0000e+00 1.0000e+00
       11  1    4    4    0    0 -6.7235411229e+00 +2.3961526561e+00 +7.6055325739e+00 1.0430324960e+01 5.1100000000e-04 0.0000e+00 -1.0000e+00
      -12  1    4    4    0    0 +3.0384478609e+00 -6.9637366002e-01 +2.3900810682e+00 3.9280515769e+00 0.0000000000e+00 0.0000e+00 1.0000e+00
       12  1    3    3    0    0 +1.9104617496e+00 -1.3859842077e+01 -4.1083790997e+01 4.3400725445e+01 0.0000000000e+00 0.0000e+00 -1.0000e+00
</event>
<event>
 8      4 +3.7482383e-04 9.11880000e+01 7.81616400e-03 1.18400000e-01
      -11 -1    0    0    0    0 +0.0000000000e+00 +0.0000000000e+00 +4.5593999997e+01 4.5594000000e+01 5.1100000000e-04 0.0000e+00 -1.0000e+00
       11 -1    0    0    0    0 -0.0000000000e+00 -0.0000000000e+00 -4.5593999997e+01 4.5594000000e+01 5.1100000000e-04 0.0000e+00 1.0000e+00
       23  2    1    2    0    0 +0.0000000000e+00 -8.8817841970e-16 -7.1054273576e-15 9.1188000000e+01 9.1188000000e+01 1.0504e-13 0.0000e+00
 -9990012  2    3    3    0    0 +1.7371032495e+01 -5.1358631186e+00 -3.9439743067e+01 4.7787271975e+01 2.0000004244e+01 2.4447e-02 0.0000e+00
      -11  1    4    4    0    0 -2.9414257191e+00 -2.4424370497e+00 -3.0364804089e+00 4.8823864593e+00 5.1100000000e-04 0.0000e+00 1.0000e+00
       11  1    4    4    0    0 -1.8270045064e-01 -1.7829313155e+00 -1.1901602559e+00 2.1514425919e+00 5.1100000000e-04 0.0000e+00 -1.0000e+00
      -12  1    4    4    0    0 +2.0495158664e+01 -9.1049475341e-01 -3.5213102402e+01 4.0753442924e+01 0.0000000000e+00 0.0000e+00 1.0000e+00
       12  1    3    3    0    0 -1.7371032495e+01 +5.1358631186e+00 +3.9439743067e+01 4.3400728025e+01 0.0000000000e+00 0.0000e+00 -1.0000e+00
</event>
<event>
 8      4 +3.7482383e-04 9.11880000e+01 7.81616400e-03 1.18400000e-01
      -11 -1    0    0    0    0 +0.0000000000e+00 +0.0000000000e+00 +4.5593999997e+01 4.5594000000e+01 5.1100000000e-04 0.0000e+00 1.0000e+00
       11 -1    0    0    0    0 -0.0000000000e+00 -0.0000000000e+00 -4.5593999997e+01 4.5594000000e+01 5.1100000000e-04 0.0000e+00 -1.0000e+00
       23  2    1    2    0    0 +0.0000000000e+00 +0.0000000000e+00 +0.0000000000e+00 9.1188000000e+01 9.1188000000e+01 3.4599e-13 0.0000e+00
 -9990012  2    3    3    0    0 -3.7982195613e+00 +4.3277845311e+00 +4.3017054720e+01 4.7787272039e+01 2.0000004533e+01 4.9666e-02 0.0000e+00
      -11  1    4    4    0    0 +5.0472739231e+00 -2.9405396773e-01 +3.7571183013e+00 6.2989983316e+00 5.1100000000e-04 0.0000e+00 -1.0000e+00
       11  1    4    4    0    0 -1.5379720021e+00 +4.9131299014e+00 +9.1101298007e+00 1.0464161149e+01 5.1100000000e-04 0.0000e+00 1.0000e+00
      -12  1    4    4    0    0 -7.3075214822e+00 -2.9129140248e-01 +3.0149806618e+01 3.1024112558e+01 0.0000000000e+00 0.0000e+00 1.0000e+00
       12  1    3    3    0    0 +3.7982195613e+00 -4.3277845311e+00 -4.3017054720e+01 4.3400727961e+01 0.0000000000e+00 0.0000e+00 -1.0000e+00
</event>
<event>
 8      3 +3.7482383e-04 9.11880000e+01 7.81616400e-03 1.18400000e-01
      -11 -1    0    0    0    0 +0.0000000000e+00 +0.0000000000e+00 +4.5593999997e+01 4.5594000000e+01 5.1100000000e-04 0.0000e+00 1.0000e+00
       11 -1    0    0    0    0 -0.0000000000e+00 -0.0000000000e+00 -4.5593999997e+01 4.5594000000e+01 5.1100000000e-04 0.0000e+00 -1.0000e+00
       23  2    1    2    0    0 +0.0000000000e+00 +0.0000000000e+00 -8.8817841970e-16 9.1188000000e+01 9.1188000000e+01 3.1606e-14 0.0000e+00
  9990012  2    3    3    0    0 -3.5292277320e+01 -2.4798530891e+01 +4.8074203377e+00 4.7787271169e+01 2.0000000568e+01 1.7777e-01 0.0000e+00
      -11  1    4    4    0    0 -9.1479816281e+00 -1.1318931666e+01 +3.5657360194e+00 1.4983933247e+01 5.1100000000e-04 0.0000e+00 1.0000e+00
       11  1    4    4    0    0 -1.9242888456e+01 -2.3893637716e+00 -1.5276168988e+00 1.9450743662e+01 5.1100000000e-04 0.0000e+00 -1.0000e+00
       12  1    4    4    0    0 -6.9014072359e+00 -1.1090235453e+01 +2.7693012171e+00 1.3352594260e+01 0.0000000000e+00 0.0000e+00 -1.0000e+00
      -12  1    3    3    0    0 +3.5292277320e+01 +2.4798530891e+01 -4.8074203377e+00 4.3400728831e+01 0.0000000000e+00 0.0000e+00 1.0000e+00
</event>
<event>
 8      3 +3.7482383e-04 9.11880000e+01 7.81616400e-03 1.18400000e-01
      -11 -1    0    0    0    0 +0.0000000000e+00 +0.0000000000e+00 +4.5593999997e+01 4.5594000000e+01 5.1100000000e-04 0.0000e+00 1.0000e+00
       11 -1    0    0    0    0 -0.0000000000e+00 -0.0000000000e+00 -4.5593999997e+01 4.5594000000e+01 5.1100000000e-04 0.0000e+00 -1.0000e+00
       23  2    1    2    0    0 +0.0000000000e+00 +0.0000000000e+00 -3.5527136788e-15 9.1188000000e+01 9.1188000000e+01 3.5586e-14 0.0000e+00
  9990012  2    3    3    0    0 +3.0646141544e+01 +3.1270817224e+00 -3.0572189173e+01 4.7787269793e+01 1.9999994296e+01 2.0971e-01 0.0000e+00
      -11  1    4    4    0    0 -3.5240733426e-02 +2.3077658639e+00 -3.8802108310e+00 4.5147604084e+00 5.1100000000e-04 0.0000e+00 1.0000e+00
       11  1    4    4    0    0 +1.0492053361e+01 +1.9876677131e+00 -1.8686494490e+01 2.1522525020e+01 5.1100000000e-04 0.0000e+00 -1.0000e+00
       12  1    4    4    0    0 +2.0189328917e+01 -1.1683518546e+00 -8.0054838520e+00 2.1749984365e+01 0.0000000000e+00 0.0000e+00 -1.0000e+00
      -12  1    3    3    0    0 -3.0646141544e+01 -3.1270817224e+00 +3.0572189173e+01 4.3400730207e+01 0.0000000000e+00 0.0000e+00 1.0000e+00
</event>
<event>
 8      4 +3.7482383e-04 9.11880000e+01 7.81616400e-03 1.18400000e-01
      -11 -1    0    0    0    0 +0.0000000000e+00 +0.0000000000e+00 +4.5593999997e+01 4.5594000000e+01 5.1100000000e-04 0.0000e+00 1.0000e+00
       11 -1    0    0    0    0 -0.0000000000e+00 -0.0000000000e+00 -4.5593999997e+01 4.5594000000e+01 5.1100000000e-04 0.0000e+00 -1.0000e+00
       23  2    1    2    0    0 -3.5527136788e-15 +3.5527136788e-15 +0.0000000000e+00 9.1188000000e+01 9.1188000000e+01 1.2002e-13 0.0000e+00
 -9990012  2    3    3    0    0 -3.0388957988e+01 +1.9978340882e+01 +2.3685444732e+01 4.7787272309e+01 2.0000005763e+01 2.5663e-02 0.0000e+00
      -11  1    4    4    0    0 -1.2666823202e+01 +1.0130864095e+01 +1.1284365191e+01 1.9759041357e+01 5.1100000000e-04 0.0000e+00 1.0000e+00
       11  1    4    4    0    0 -1.5473308316e+01 +9.1835068876e+00 +2.8796212899e+00 1.8222301941e+01 5.1100000000e-04 0.0000e+00 -1.0000e+00
      -12  1    4    4    0    0 -2.2488264704e+00 +6.6396989946e-01 +9.5214582518e+00 9.8059290106e+00 0.0000000000e+00 0.0000e+00 1.0000e+00
       12  1    3    3    0    0 +3.0388957988e+01 -1.9978340882e+01 -2.3685444732e+01 4.3400727691e+01 0.0000000000e+00 0.0000e+00 -1.0000e+00
</event>
<event>
 8      4 +3.7482383e-04 9.11880000e+01 7.81616400e-03 1.18400000e-01
      -11 -1    0    0    0    0 +0.0000000000e+00 +0.0000000000e+00 +4.5593999997e+01 4.5594000000e+01 5.1100000000e-04 0.0000e+00 1.0000e+00
       11 -1    0    0    0    0 -0.0000000000e+00 -0.0000000000e+00 -4.5593999997e+01 4.5594000000e+01 5.1100000000e-04 0.0000e+00 -1.0000e+00
       23  2    1    2    0    0 +0.0000000000e+00 +1.7763568394e-15 +7.1054273576e-15 9.1188000000e+01 9.1188000000e+01 2.5120e-13 0.0000e+00
 -9990012  2    3    3    0    0 +1.9513796506e+01 -1.5751095693e+01 +3.5422280171e+01 4.7787271871e+01 2.0000003767e+01 8.0401e-02 0.0000e+00
      -11  1    4    4    0    0 +3.6563610309e+00 +2.3700806235e+00 +2.7339767676e+00 5.1440147139e+00 5.1100000000e-04 0.0000e+00 1.0000e+00
       11  1    4    4    0    0 -1.8698767942e+00 -4.7368233871e+00 +7.4238850060e+00 9.0026664866e+00 5.1100000000e-04 0.0000e+00 -1.0000e+00
      -12  1    4    4    0    0 +1.7727312270e+01 -1.3384352929e+01 +2.5264418398e+01 3.3640590670e+01 0.0000000000e+00 0.0000e+00 1.0000e+00
       12  1    3    3    0    0 -1.9513796506e+01 +1.5751095693e+01 -3.5422280171e+01 4.3400728129e+01 0.0000000000e+00 0.0000e+00 -1.0000e+00
</event>
<event>
 8      3 +3.7482383e-04 9.11880000e+01 7.81616400e-03 1.18400000e-01
      -11 -1    0    0    0    0 +0.0000000000e+00 +0.0000000000e+00 +4.5593999997e+01 4.5594000000e+01 5.1100000000e-04 0.0000e+00 -1.0000e+00
       11 -1    0    0    0    0 -0.0000000000e+00 -0.0000000000e+00 -4.5593999997e+01 4.5594000000e+01 5.1100000000e-04 0.0000e+00 1.0000e+00
       23  2    1    2    0    0 +1.7763568394e-15 +2.2204460493e-16 +0.0000000000e+00 9.1188000000e+01 9.1188000000e+01 2.5895e-14 0.0000e+00
  9990012  2    3    3    0    0 -1.0362923996e+01 -1.2782678199e+00 +4.2125978563e+01 4.7787283044e+01 2.0000054711e+01 4.3519e-01 0.0000e+00
      -11  1    4    4    0    0 +3.0142674696e+00 -7.6237253763e-01 +1.7859137222e+00 3.5855973489e+00 5.1100000000e-04 0.0000e+00 1.0000e+00
       11  1    4    4    0    0 -8.9242383858e+00 -5.8413877111e+00 +2.9072976832e+01 3.0967754573e+01 5.1100000000e-04 0.0000e+00 -1.0000e+00
       12  1    4    4    0    0 -4.4529530796e+00 +5.3254924288e+00 +1.1267088009e+01 1.3233931122e+01 0.0000000000e+00 0.0000e+00 -1.0000e+00
      -12  1    3    3    0    0 +1.0362923996e+01 +1.2782678199e+00 -4.2125978563e+01 4.3400716956e+01 0.0000000000e+00 0.0000e+00 1.0000e+00
</event>
<event>
 8      4 +3.7482383e-04 9.11880000e+01 7.81616400e-03 1.18400000e-01
      -11 -1    0    0    0    0 +0.0000000000e+00 +0.0000000000e+00 +4.5593999997e+01 4.5594000000e+01 5.1100000000e-04 0.0000e+00 1.0000e+00
       11 -1    0    0    0    0 -0.0000000000e+00 -0.0000000000e+00 -4.5593999997e+01 4.5594000000e+01 5.1100000000e-04 0.0000e+00 -1.0000e+00
       23  2    1    2    0    0 +8.8817841970e-16 +7.1054273576e-15 +1.7763568394e-15 9.1188000000e+01 9.1188000000e+01 6.0797e-14 0.0000e+00
 -9990012  2    3    3    0    0 -4.6860510524e+00 -4.0402555476e+01 -1.5142571083e+01 4.7787273941e+01 2.0000013208e+01 3.2783e-02 0.0000e+00
      -11  1    4    4    0    0 +3.0538005384e+00 -6.0995444478e-01 +4.2806530457e-01 3.1434029839e+00 5.1100000000e-04 0.0000e+00 1.0000e+00
       11  1    4    4    0    0 +1.6761236045e+00 -1.5660322663e+01 -7.9470076162e+00 1.7641145840e+01 5.1100000000e-04 0.0000e+00 -1.0000e+00
      -12  1    4    4    0    0 -9.4159751953e+00 -2.4132278368e+01 -7.6236287713e+00 2.7002725117e+01 0.0000000000e+00 0.0000e+00 1.0000e+00
       12  1    3    3    0    0 +4.6860510524e+00 +4.0402555476e+01 +1.5142571083e+01 4.3400726059e+01 0.0000000000e+00 0.0000e+00 -1.0000e+00
</event>
<event>
 8      4 +3.7482383e-04 9.11880000e+01 7.81616400e-03 1.18400000e-01
      -11 -1    0    0    0    0 +0.0000000000e+00 +0.0000000000e+00 +4.5593999997e+01 4.5594000000e+01 5.1100000000e-04 0.0000e+00 1.0000e+00
       11 -1    0    0    0    0 -0.0000000000e+00 -0.0000000000e+00 -4.5593999997e+01 4.5594000000e+01 5.1100000000e-04 0.0000e+00 -1.0000e+00
       23  2    1    2    0    0 +0.0000000000e+00 +3.5527136788e-15 +0.0000000000e+00 9.1188000000e+01 9.1188000000e+01 4.3343e-14 0.0000e+00
 -9990012  2    3    3    0    0 +1.7163470796e+01 +1.6081976857e+01 +3.6474763423e+01 4.7787273322e+01 2.0000010385e+01 1.1429e-01 0.0000e+00
      -11  1    4    4    0    0 +3.3821073528e+00 +3.6807257663e-01 +2.3841721083e+00 4.1543235876e+00 5.1100000000e-04 0.0000e+00 1.0000e+00
       11  1    4    4    0    0 +1.1178695797e+01 +1.5846540958e-02 +1.1903199520e+01 1.6329410581e+01 5.1100000000e-04 0.0000e+00 -1.0000e+00
      -12  1    4    4    0    0 +2.6026676458e+00 +1.5698057739e+01 +2.2187391795e+01 2.7303539154e+01 0.0000000000e+00 0.0000e+00 1.0000e+00
       12  1    3    3    0    0 -1.7163470796e+01 -1.6081976857e+01 -3.6474763423e+01 4.3400726678e+01 0.0000000000e+00 0.0000e+00 -1.0000e+00
</event>
<event>
 8      4 +3.7482383e-04 9.11880000e+01 7.81616400e-03 1.18400000e-01
      -11 -1    0    0    0    0 +0.0000000000e+00 +0.0000000000e+00 +4.5593999997e+01 4.5594000000e+01 5.1100000000e-04 0.0000e+00 -1.0000e+00
       11 -1    0    0    0    0 -0.0000000000e+00 -0.0000000000e+00 -4.5593999997e+01 4.5594000000e+01 5.1100000000e-04 0.0000e+00 1.0000e+00
       23  2    1    2    0    0 -7.1054273576e-15 +1.7763568394e-15 -3.5527136788e-15 9.1188000000e+01 9.1188000000e+01 9.3563e-14 0.0000e+00
 -9990012  2    3    3    0    0 +3.7803937660e+01 -8.5920230428e+00 +1.9510584317e+01 4.7787268866e+01 1.9999990069e+01 5.8454e-01 0.0000e+00
      -11  1    4    4    0    0 -4.3410049971e-01 -2.7435190681e+00 +9.9755052914e-01 2.9513467164e+00 5.1100000000e-04 0.0000e+00 -1.0000e+00
       11  1    4    4    0    0 +1.5512979949e+01 +3.9528488837e+00 +5.9257057006e+00 1.7070194771e+01 5.1100000000e-04 0.0000e+00 1.0000e+00
      -12  1    4    4    0    0 +2.2725058210e+01 -9.8013528584e+00 +1.2587328087e+01 2.7765727379e+01 0.0000000000e+00 0.0000e+00 1.0000e+00
       12  1    3    3    0    0 -3.7803937660e+01 +8.5920230428e+00 -1.9510584317e+01 4.3400731134e+01 0.0000000000e+00 0.0000e+00 -1.0000e+00
</event>
<event>
 8      4 +3.7482383e-04 9.11880000e+01 7.81616400e-03 1.18400000e-01
      -11 -1    0    0    0    0 +0.0000000000e+00 +0.0000000000e+00 +4.5593999997e+01 4.5594000000e+01 5.1100000000e-04 0.0000e+00 1.0000e+00
       11 -1    0    0    0    0 -0.0000000000e+00 -0.0000000000e+00 -4.5593999997e+01 4.5594000000e+01 5.1100000000e-04 0.0000e+00 -1.0000e+00
       23  2    1    2    0    0 +0.0000000000e+00 +0.0000000000e+00 +0.0000000000e+00 9.1188000000e+01 9.1188000000e+01 7.4809e-14 0.0000e+00
 -9990012  2    3    3    0    0 -3.1986934188e+01 +2.0659541105e+01 -2.0824080578e+01 4.7787275014e+01 2.0000018097e+01 1.7980e-01 0.0000e+00
      -11  1    4    4    0    0 -1.1725608465e+01 +2.6174590755e+00 +1.6823267486e+00 1.2131414156e+01 5.1100000000e-04 0.0000e+00 1.0000e+00
       11  1    4    4    0    0 -2.6527794027e+00 +3.1848414690e+00 -6.0884643697e+00 7.3654499105e+00 5.1100000000e-04 0.0000e+00 -1.0000e+00
      -12  1    4    4    0    0 -1.7608546321e+01 +1.4857240561e+01 -1.6417942957e+01 2.8290410947e+01 0.0000000000e+00 0.0000e+00 1.0000e+00
       12  1    3    3    0    0 +3.1986934188e+01 -2.0659541105e+01 +2.0824080578e+01 4.3400724986e+01 0.0000000000e+00 0.0000e+00 -1.0000e+00
</event>
<event>
 8      3 +3.7482383e-04 9.11880000e+01 7.81616400e-03 1.18400000e-01
      -11 -1    0    0    0    0 +0.0000000000e+00 +0.0000000000e+00 +4.5593999997e+01 4.5594000000e+01 5.1100000000e-04 0.0000e+00 1.0000e+00
       11 -1    0    0    0    0 -0.0000000000e+00 -0.0000000000e+00 -4.5593999997e+01 4.5594000000e+01 5.1100000000e-04 0.0000e+00 -1.0000e+00
       23  2    1    2    0    0 +3.5527136788e-15 -3.5527136788e-15 +7.1054273576e-15 9.1188000000e+01 9.1188000000e+01 2.5710e-14 0.0000e+00
  9990012  2    3    3    0    0 -1.7519765559e+01 +1.6427394803e+01 -3.6149990858e+01 4.7787270464e+01 1.9999997353e+01 7.1789e-01 0.0000e+00
      -11  1    4    4    0    0 -6.5043910517e+00 +8.6225624319e+00 -4.8095948179e+00 1.1823192818e+01 5.1100000000e-04 0.0000e+00 1.0000e+00
       11  1    4    4    0    0 +3.0480926998e-01 -2.1032339198e+00 -1.6887735912e+00 2.7144903971e+00 5.1100000000e-04 0.0000e+00 -1.0000e+00
       12  1    4    4    0    0 -1.1320183777e+01 +9.9080662908e+00 -2.9651622449e+01 3.3249587249e+01 0.0000000000e+00 0.0000e+00 -1.0000e+00
      -12  1    3    3    0    0 +1.7519765559e+01 -1.6427394803e+01 +3.6149990858e+01 4.3400729536e+01 0.0000000000e+00 0.0000e+00 1.0000e+00
</event>
<event>
 8      4 +3.7482383e-04 9.11880000e+01 7.81616400e-03 1.18400000e-01
      -11 -1    0    0    0    0 +0.0000000000e+00 +0.0000000000e+00 +4.5593999997e+01 4.5594000000e+01 5.1100000000e-04 0.0000e+00 1.0000e+00
       11 -1    0    0    0    0 -0.0000000000e+00 -0.0000000000e+00 -4.5593999997e+01 4.5594000000e+01 5.1100000000e-04 0.0000e+00 -1.0000e+00
       23  2    1    2    0    0 +0.0000000000e+00 +1.6653345369e-16 +0.0000000000e+00 9.1188000000e+01 9.1188000000e+01 8.2418e-14 0.0000e+00
 -9990012  2    3    3    0    0 +1.5969145887e+01 +4.5233861723e-01 +4.0353499124e+01 4.7787272793e+01 2.0000007972e+01 1.5129e-01 0.0000e+00
      -11  1    4    4    0    0 +1.3010754583e+01 -1.0921828587e+00 +3.6347086323e+01 3.8621021254e+01 5.1100000000e-04 0.0000e+00 1.0000e+00
       11  1    4    4    0    0 +4.6272259662e+00 +5.0479865793e-01 +5.1094459116e+00 6.9117638568e+00 5.1100000000e-04 0.0000e+00 -1.0000e+00
      -12  1    4    4    0    0 -1.6688346614e+00 +1.0397228180e+00 -1.1030331115e+00 2.2544876825e+00 0.0000000000e+00 0.0000e+00 1.0000e+00
       12  1    3    3    0    0 -1.5969145887e+01 -4.5233861723e-01 -4.0353499124e+01 4.3400727207e+01 0.0000000000e+00 0.0000e+00 -1.0000e+00
</event>
<event>
 8      4 +3.7482383e-04 9.11880000e+01 7.81616400e-03 1.18400000e-01
      -11 -1    0    0    0    0 +0.0000000000e+00 +0.0000000000e+00 +4.5593999997e+01 4.5594000000e+01 5.1100000000e-04 0.0000e+00 -1.0000e+00
       11 -1    0    0    0    0 -0.0000000000e+00 -0.0000000000e+00 -4.5593999997e+01 4.5594000000e+01 5.1100000000e-04 0.0000e+00 1.0000e+00
       23  2    1    2    0    0 +0.0000000000e+00 +0.0000000000e+00 -6.6613381478e-16 9.1188000000e+01 9.1188000000e+01 1.0116e-13 0.0000e+00
 -9990012  2    3    3    0    0 +2.8518587968e+01 +3.2712500712e+01 +4.5374952936e-01 4.7787269002e+01 1.9999990689e+01 3.0474e-02 0.0000e+00
      -11  1    4    4    0    0 +1.5820338930e+01 +1.8569141298e+01 -8.6275762050e+00 2.5875301039e+01 5.1100000000e-04 0.0000e+00 1.0000e+00
       11  1    4    4    0    0 +2.3477750621e+00 +6.7334896937e+00 +2.3241523314e+00 7.5002410306e+00 5.1100000000e-04 0.0000e+00 -1.0000e+00
      -12  1    4    4    0    0 +1.0350473975e+01 +7.4098697206e+00 +6.7571734029e+00 1.4411726933e+01 0.0000000000e+00 0.0000e+00 1.0000e+00
       12  1    3    3    0    0 -2.8518587968e+01 -3.2712500712e+01 -4.5374952936e-01 4.3400730998e+01 0.0000000000e+00 0.0000e+00 -1.0000e+00
</event>
<event>
 8      4 +3.7482383e-04 9.11880000e+01 7.81616400e-03 1.18400000e-01
      -11 -1    0    0    0    0 +0.0000000000e+00 +0.0000000000e+00 +4.5593999997e+01 4.5594000000e+01 5.1100000000e-04 0.0000e+00 -1.0000e+00
       11 -1    0    0    0    0 -0.0000000000e+00 -0.0000000000e+00 -4.5593999997e+01 4.5594000000e+01 5.1100000000e-04 0.0000e+00 1.0000e+00
       23  2    1    2    0    0 +0.0000000000e+00 -1.7763568394e-15 +0.0000000000e+00 9.1188000000e+01 9.1188000000e+01 5.0618e-15 0.0000e+00
 -9990012  2    3    3    0    0 -4.2484422442e+01 -8.5958514355e+00 -2.1928547971e+00 4.7787269311e+01 1.9999992098e+01 8.7643e-02 0.0000e+00
      -11  1    4    4    0    0 -1.5499597245e+01 -1.9660219680e+00 +2.5868268268e+00 1.5836490471e+01 5.1100000000e-04 0.0000e+00 1.0000e+00
       11  1    4    4    0    0 -3.5586814099e+00 -2.1040578084e+00 +4.7158209255e+00 6.2713826148e+00 5.1100000000e-04 0.0000e+00 -1.0000e+00
      -12  1    4    4    0    0 -2.3426143787e+01 -4.5257716591e+00 -9.4955025494e+00 2.5679396226e+01 0.0000000000e+00 0.0000e+00 1.0000e+00
       12  1    3    3    0    0 +4.2484422442e+01 +8.5958514355e+00 +2.1928547971e+00 4.3400730689e+01 0.0000000000e+00 0.0000e+00 -1.0000e+00
</event>
<event>
 8      3 +3.7482383e-04 9.11880000e+01 7.81616400e-03 1.18400000e-01
      -11 -1    0    0    0    0 +0.0000000000e+00 +0.0000000000e+00 +4.5593999997e+01 4.5594000000e+01 5.1100000000e-04 0.0000e+00 1.0000e+00
       11 -1    0    0    0    0 -0.0000000000e+00 -0.0000000000e+00 -4.5593999997e+01 4.5594000000e+01 5.1100000000e-04 0.0000e+00 -1.0000e+00
       23  2    1    2    0    0 +0.0000000000e+00 +0.0000000000e+00 +0.0000000000e+00 9.1188000000e+01 9.1188000000e+01 5.1288e-15 0.0000e+00
  9990012  2    3    3    0    0 -3.2282304778e+01 -9.4553690611e+00 -2.7423932875e+01 4.7787270742e+01 1.9999998619e+01 8.4572e-02 0.0000e+00
      -11  1    4    4    0    0 +2.4082460406e+00 +2.3353519451e-01 -2.8142221979e+00 3.7113386426e+00 5.1100000000e-04 0.0000e+00 1.0000e+00
       11  1    4    4    0    0 -3.4530243106e+00 +6.7127375782e-01 -1.3159014794e+00 3.7557399154e+00 5.1100000000e-04 0.0000e+00 -1.0000e+00
       12  1    4    4    0    0 -3.1237526508e+01 -1.0360178013e+01 -2.3293809198e+01 4.0320192184e+01 0.0000000000e+00 0.0000e+00 -1.0000e+00
      -12  1    3    3    0    0 +3.2282304778e+01 +9.4553690611e+00 +2.7423932875e+01 4.3400729258e+01 0.0000000000e+00 0.0000e+00 1.0000e+00
</event>
<event>
 8      4 +3.7482383e-04 9.11880000e+01 7.81616400e-03 1.18400000e-01
      -11 -1    0    0    0    0 +0.0000000000e+00 +0.0000000000e+00 +4.5593999997e+01 4.5594000000e+01 5.1100000000e-04 0.0000e+00 -1.0000e+00
       11 -1    0    0    0    0 -0.0000000000e+00 -0.0000000000e+00 -4.5593999997e+01 4.5594000000e+01 5.1100000000e-04 0.0000e+00 1.0000e+00
       23  2    1    2    0    0 +0.0000000000e+00 +1.7763568394e-15 +0.0000000000e+00 9.1188000000e+01 9.1188000000e+01 6.0061e-15 0.0000e+00
 -9990012  2    3    3    0    0 +1.7166995598e+01 +1.5071316475e+01 -3.6902211684e+01 4.7787267917e+01 1.9999985741e+01 7.0711e-02 0.0000e+00
      -11  1    4    4    0    0 +1.8313446529e+01 +1.3769206749e+01 -2.1731223949e+01 3.1578782004e+01 5.1100000000e-04 0.0000e+00 1.0000e+00
       11  1    4    4    0    0 +6.1703798595e-01 +2.5483310420e+00 -1.2508735787e+01 1.2780578948e+01 5.1100000000e-04 0.0000e+00 -1.0000e+00
      -12  1    4    4    0    0 -1.7634889175e+00 -1.2462213159e+00 -2.6622519476e+00 3.4279069653e+00 0.0000000000e+00 0.0000e+00 1.0000e+00
       12  1    3    3    0    0 -1.7166995598e+01 -1.5071316475e+01 +3.6902211684e+01 4.3400732083e+01 0.0000000000e+00 0.0000e+00 -1.0000e+00
</event>
<event>
 8      4 +3.7482383e-04 9.11880000e+01 7.81616400e-03 1.18400000e-01
      -11 -1    0    0    0    0 +0.0000000000e+00 +0.0000000000e+00 +4.5593999997e+01 4.5594000000e+01 5.1100000000e-04 0.0000e+00 -1.0000e+00
       11 -1    0    0    0    0 -0.0000000000e+00 -0.0000000000e+00 -4.5593999997e+01 4.5594000000e+01 5.1100000000e-04 0.0000e+00 1.0000e+00
       23  2    1    2    0    0 -8.8817841970e-16 +0.0000000000e+00 +0.0000000000e+00 9.1188000000e+01 9.1188000000e+01 6.1367e-14 0.0000e+00
 -9990012  2    3    3    0    0 +4.0027353329e+00 +4.2792146420e+01 +6.0360165899e+00 4.7787272107e+01 2.0000004843e+01 1.0514e-01 0.0000e+00
      -11  1    4    4    0    0 +6.8711263573e+00 +2.4507138496e+01 +6.2067984033e+00 2.6198025905e+01 5.1100000000e-04 0.0000e+00 1.0000e+00
       11  1    4    4    0    0 +8.0339124055e-01 -1.1460413061e-02 -2.6453044336e+00 2.7646346294e+00 5.1100000000e-04 0.0000e+00 -1.0000e+00
      -12  1    4    4    0    0 -3.6717822650e+00 +1.8296468338e+01 +2.4745226202e+00 1.8824611572e+01 0.0000000000e+00 0.0000e+00 1.0000e+00
       12  1    3    3    0    0 -4.0027353329e+00 -4.2792146420e+01 -6.0360165899e+00 4.3400727893e+01 0.0000000000e+00 0.0000e+00 -1.0000e+00
</event>
<event>
 8      3 +3.7482383e-04 9.11880000e+01 7.81616400e-03 1.18400000e-01
      -11 -1    0    0    0    0 +0.0000000000e+00 +0.0000000000e+00 +4.5593999997e+01 4.5594000000e+01 5.1100000000e-04 0.0000e+00 -1.0000e+00
       11 -1    0    0    0    0 -0.0000000000e+00 -0.0000000000e+00 -4.5593999997e+01 4.5594000000e+01 5.1100000000e-04 0.0000e+00 1.0000e+00
       23  2    1    2    0    0 +3.5527136788e-15 +0.0000000000e+00 +3.5527136788e-15 9.1188000000e+01 9.1188000000e+01 2.6195e-14 0.0000e+00
  9990012  2    3    3    0    0 +2.5488169063e+01 -3.1139468103e+01 +1.6257626370e+01 4.7787266699e+01 1.9999980186e+01 1.8908e-01 0.0000e+00
      -11  1    4    4    0    0 +1.5605643784e+00 +1.3623829736e+00 +9.0722036667e-01 2.2615255030e+00 5.1100000000e-04 0.0000e+00 1.0000e+00
       11  1    4    4    0    0 -1.0393215829e+00 -4.4432827440e+00 +4.5530104467e+00 6.4461504236e+00 5.1100000000e-04 0.0000e+00 -1.0000e+00
       12  1    4    4    0    0 +2.4966926267e+01 -2.8058568332e+01 +1.0797395557e+01 3.9079590772e+01 0.0000000000e+00 0.0000e+00 -1.0000e+00
      -12  1    3    3    0    0 -2.5488169063e+01 +3.1139468103e+01 -1.6257626370e+01 4.3400733301e+01 0.0000000000e+00 0.0000e+00 1.0000e+00
</event>
<event>
 8      4 +3.7482383e-04 9.11880000e+01 7.81616400e-03 1.18400000e-01
      -11 -1    0    0    0    0 +0.0000000000e+00 +0.0000000000e+00 +4.5593999997e+01 4.5594000000e+01 5.1100000000e-04 0.0000e+00 -1.0000e+00
       11 -1    0    0    0    0 -0.0000000000e+00 -0.0000000000e+00 -4.5593999997e+01 4.5594000000e+01 5.1100000000e-04 0.0000e+00 1.0000e+00
       23  2    1    2    0    0 +2.6367796835e-16 +0.0000000000e+00 -7.1054273576e-15 9.1188000000e+01 9.1188000000e+01 1.4411e-13 0.0000e+00
 -9990012  2    3    3    0    0 +1.2233495370e-01 +2.5860165134e+01 -3.4854842647e+01 4.7787272327e+01 2.0000005848e+01 1.1093e+00 0.0000e+00
      -11  1    4    4    0    0 -1.3699171830e+00 +1.9764713727e+01 -3.4728552166e+01 3.9982407601e+01 5.1100000000e-04 0.0000e+00 1.0000e+00
       11  1    4    4    0    0 +5.3109424679e-01 +5.5982067499e+00 -1.7181813963e+00 5.8799768269e+00 5.1100000000e-04 0.0000e+00 -1.0000e+00
      -12  1    4    4    0    0 +9.6115788992e-01 +4.9724465721e-01 +1.5918909150e+00 1.9248878990e+00 0.0000000000e+00 0.0000e+00 1.0000e+00
       12  1    3    3    0    0 -1.2233495370e-01 -2.5860165134e+01 +3.4854842647e+01 4.3400727673e+01 0.0000000000e+00 0.0000e+00 -1.0000e+00
</event>
<event>
 8      3 +3.7482383e-04 9.11880000e+01 7.81616400e-03 1.18400000e-01
      -11 -1    0    0    0    0 +0.0000000000e+00 +0.0000000000e+00 +4.5593999997e+01 4.5594000000e+01 5.1100000000e-04 0.0000e+00 1.0000e+00
       11 -1    0    0    0    0 -0.0000000000e+00 -0.0000000000e+00 -4.5593999997e+01 4.5594000000e+01 5.1100000000e-04 0.0000e+00 -1.0000e+00
       23  2    1    2    0    0 +0.0000000000e+00 +1.7763568394e-15 -3.5527136788e-15 9.1188000000e+01 9.1188000000e+01 5.8259e-14 0.0000e+00
  9990012  2    3    3    0    0 -3.0202332778e+01 +1.3296682764e+01 -2.8189369035e+01 4.7787271846e+01 2.0000003653e+01 1.6769e-01 0.0000e+00
      -11  1    4    4    0    0 -6.2942918393e+00 +3.7297585193e+00 -1.4675079951e+01 1.6397779734e+01 5.1100000000e-04 0.0000e+00 1.0000e+00
       11  1    4    4    0    0 -2.1867650966e+01 +7.6282641463e+00 -6.8445225628e+00 2.4150197971e+01 5.1100000000e-04 0.0000e+00 -1.0000e+00
       12  1    4    4    0    0 -2.0403899732e+00 +1.9386600980e+00 -6.6697665209e+00 7.2392941412e+00 0.0000000000e+00 0.0000e+00 -1.0000e+00
      -12  1    3    3    0    0 +3.0202332778e+01 -1.3296682764e+01 +2.8189369035e+01 4.3400728154e+01 0.0000000000e+00 0.0000e+00 1.0000e+00
</event>
<event>
 8      4 +3.7482383e-04 9.11880000e+01 7.81616400e-03 1.18400000e-01
      -11 -1    0    0    0    0 +0.0000000000e+00 +0.0000000000e+00 +4.5593999997e+01 4.5594000000e+01 5.1100000000e-04 0.0000e+00 -1.0000e+00
       11 -1    0    0    0    0 -0.0000000000e+00 -0.0000000000e+00 -4.5593999997e+01 4.5594000000e+01 5.1100000000e-04 0.0000e+00 1.0000e+00
       23  2    1    2    0    0 +0.0000000000e+00 +3.5527136788e-15 +0.0000000000e+00 9.1188000000e+01 9.1188000000e+01 2.0063e-14 0.0000e+00
 -9990012  2    3    3    0    0 +1.3333231222e+01 +3.0361042140e+01 -2.8000998339e+01 4.7787264492e+01 1.9999970124e+01 3.2688e-02 0.0000e+00
      -11  1    4    4    0    0 +5.2073007169e+00 +7.8385960140e+00 -1.3741738767e-01 9.4116126156e+00 5.1100000000e-04 0.0000e+00 1.0000e+00
       11  1    4    4    0    0 +2.6237880083e-01 -1.2436443703e+00 -2.0889785982e+00 2.4452659978e+00 5.1100000000e-04 0.0000e+00 -1.0000e+00
      -12  1    4    4    0    0 +7.8635517043e+00 +2.3766090497e+01 -2.5774602353e+01 3.5930385878e+01 0.0000000000e+00 0.0000e+00 1.0000e+00
       12  1    3    3    0    0 -1.3333231222e+01 -3.0361042140e+01 +2.8000998339e+01 4.3400735508e+01 0.0000000000e+00 0.0000e+00 -1.0000e+00
</event>
<event>
 8      4 +3.7482383e-04 9.11880000e+01 7.81616400e-03 1.18400000e-01
      -11 -1    0    0    0    0 +0.0000000000e+00 +0.0000000000e+00 +4.5593999997e+01 4.5594000000e+01 5.1100000000e-04 0.0000e+00 1.0000e+00
       11 -1    0    0    0    0 -0.0000000000e+00 -0.0000000000e+00 -4.5593999997e+01 4.5594000000e+01 5.1100000000e-04 0.0000e+00 -1.0000e+00
       23  2    1    2    0    0 -8.8817841970e-16 +0.0000000000e+00 +2.6367796835e-16 9.1188000000e+01 9.1188000000e+01 9.1059e-15 0.0000e+00
 -9990012  2    3    3    0    0 -5.8525026896e+00 -4.3004234237e+01 +9.1775567569e-02 4.7787258384e+01 1.9999942275e+01 3.1865e-01 0.0000e+00
      -11  1    4    4    0    0 +2.3771270188e+00 -2.5277386070e+01 +3.9764726043e+00 2.5698430186e+01 5.1100000000e-04 0.0000e+00 1.0000e+00
       11  1    4    4    0    0 -4.5643350455e+00 -3.2651888562e+00 -4.4454590739e+00 7.1593798134e+00 5.1100000000e-04 0.0000e+00 -1.0000e+00
      -12  1    4    4    0    0 -3.6652946629e+00 -1.4461659311e+01 +5.6076203715e-01 1.4929448384e+01 0.0000000000e+00 0.0000e+00 1.0000e+00
       12  1    3    3    0    0 +5.8525026896e+00 +4.3004234237e+01 -9.1775567569e-02 4.3400741616e+01 0.0000000000e+00 0.0000e+00 -1.0000e+00
</event>
<event>
 8      4 +3.7482383e-04 9.11880000e+01 7.81616400e-03 1.18400000e-01
      -11 -1    0    0    0    0 +0.0000000000e+00 +0.0000000000e+00 +4.5593999997e+01 4.5594000000e+01 5.1100000000e-04 0.0000e+00 1.0000e+00
       11 -1    0    0    0    0 -0.0000000000e+00 -0.0000000000e+00 -4.5593999997e+01 4.5594000000e+01 5.1100000000e-04 0.0000e+00 -1.0000e+00
       23  2    1    2    0    0 -1.7763568394e-15 -3.5527136788e-15 +3.5527136788e-15 9.1188000000e+01 9.1188000000e+01 1.8873e-14 0.0000e+00
 -9990012  2    3    3    0    0 +1.5337087589e+01 +2.7290974460e+01 +3.0059934280e+01 4.7787271992e+01 2.0000004320e+01 3.2536e-01 0.0000e+00
      -11  1    4    4    0    0 +7.4161045067e+00 +1.0713422406e+01 +2.5794424364e+01 2.8898587409e+01 5.1100000000e-04 0.0000e+00 1.0000e+00
       11  1    4    4    0    0 +5.9804442383e+00 +1.2273879817e+01 +3.6093079448e+00 1.4122356147e+01 5.1100000000e-04 0.0000e+00 -1.0000e+00
      -12  1    4    4    0    0 +1.9405388443e+00 +4.3036722373e+00 +6.5620197148e-01 4.7663284360e+00 0.0000000000e+00 0.0000e+00 1.0000e+00
       12  1    3    3    0    0 -1.5337087589e+01 -2.7290974460e+01 -3.0059934280e+01 4.3400728008e+01 0.0000000000e+00 0.0000e+00 -1.0000e+00
</event>
<event>
 8      4 +3.7482383e-04 9.11880000e+01 7.81616400e-03 1.18400000e-01
      -11 -1    0    0    0    0 +0.0000000000e+00 +0.0000000000e+00 +4.5593999997e+01 4.5594000000e+01 5.1100000000e-04 0.0000e+00 1.0000e+00
       11 -1    0    0    0    0 -0.0000000000e+00 -0.0000000000e+00 -4.5593999997e+01 4.5594000000e+01 5.1100000000e-04 0.0000e+00 -1.0000e+00
       23  2    1    2    0    0 +0.0000000000e+00 +0.0000000000e+00 +3.5527136788e-15 9.1188000000e+01 9.1188000000e+01 3.0201e-14 0.0000e+00
 -9990012  2    3    3    0    0 +3.5972396701e+01 +2.2645283117e+00 +2.4176039322e+01 4.7787282377e+01 2.0000051669e+01 2.7486e-01 0.0000e+00
      -11  1    4    4    0    0 +2.4243250705e+01 +2.9340083646e+00 +1.5529549919e+01 2.8939774200e+01 5.1100000000e-04 0.0000e+00 1.0000e+00
       11  1    4    4    0    0 +7.7079408018e-01 -3.3952031462e+00 +6.4702042556e+00 7.3474533880e+00 5.1100000000e-04 0.0000e+00 -1.0000e+00
      -12  1    4    4    0    0 +1.0958351916e+01 +2.7257230933e+00 +2.1762851478e+00 1.1500054789e+01 0.0000000000e+00 0.0000e+00 1.0000e+00
       12  1    3    3    0    0 -3.5972396701e+01 -2.2645283117e+00 -2.4176039322e+01 4.3400717623e+01 0.0000000000e+00 0.0000e+00 -1.0000e+00
</event>
<event>
 8      3 +3.7482383e-04 9.11880000e+01 7.81616400e-03 1.18400000e-01
      -11 -1    0    0    0    0 +0.0000000000e+00 +0.0000000000e+00 +4.5593999997e+01 4.5594000000e+01 5.1100000000e-04 0.0000e+00 1.0000e+00
       11 -1    0    0    0    0 -0.0000000000e+00 -0.0000000000e+00 -4.5593999997e+01 4.5594000000e+01 5.1100000000e-04 0.0000e+00 -1.0000e+00
       23  2    1    2    0    0 +3.5527136788e-15 -1.7763568394e-15 +0.0000000000e+00 9.1188000000e+01 9.1188000000e+01 2.9950e-14 0.0000e+00
  9990012  2    3    3    0    0 +3.0229554825e+01 +1.0990000324e+01 -2.9137906504e+01 4.7787266279e+01 1.9999978274e+01 2.3030e-01 0.0000e+00
      -11  1    4    4    0    0 -5.9307567946e-01 +3.8701060475e+00 -2.6435247278e-01 3.9241995453e+00 5.1100000000e-04 0.0000e+00 1.0000e+00
       11  1    4    4    0    0 +1.2600084416e+01 +4.0614604826e+00 -1.8260862010e+01 2.2554748284e+01 5.1100000000e-04 0.0000e+00 -1.0000e+00
       12  1    4    4    0    0 +1.8222546088e+01 +3.0584337936e+00 -1.0612692021e+01 2.1308318450e+01 0.0000000000e+00 0.0000e+00 -1.0000e+00
      -12  1    3    3    0    0 -3.0229554825e+01 -1.0990000324e+01 +2.9137906504e+01 4.3400733721e+01 0.0000000000e+00 0.0000e+00 1.0000e+00
</event>
<event>
 8      4 +3.7482383e-04 9.11880000e+01 7.81616400e-03 1.18400000e-01
      -11 -1    0    0    0    0 +0.0000000000e+00 +0.0000000000e+00 +4.5593999997e+01 4.5594000000e+01 5.1100000000e-04 0.0000e+00 1.0000e+00
       11 -1    0    0    0    0 -0.0000000000e+00 -0.0000000000e+00 -4.5593999997e+01 4.5594000000e+01 5.1100000000e-04 0.0000e+00 -1.0000e+00
       23  2    1    2    0    0 +7.1054273576e-15 +0.0000000000e+00 -3.5527136788e-15 9.1188000000e+01 9.1188000000e+01 1.4989e-14 0.0000e+00
 -9990012  2    3    3    0    0 +3.4688730943e+01 -1.5726205092e+00 +2.6035401418e+01 4.7787270551e+01 1.9999997751e+01 6.6991e-02 0.0000e+00
      -11  1    4    4    0    0 +5.3674123738e-01 -3.0437877097e+00 +3.8921690614e+00 4.9700819954e+00 5.1100000000e-04 0.0000e+00 1.0000e+00
       11  1    4    4    0    0 +9.3415047169e+00 -5.0104650621e+00 +3.6888810822e+00 1.1223917071e+01 5.1100000000e-04 0.0000e+00 -1.0000e+00
      -12  1    4    4    0    0 +2.4810484988e+01 +6.4816322626e+00 +1.8454351275e+01 3.1593271485e+01 0.0000000000e+00 0.0000e+00 1.0000e+00
       12  1    3    3    0    0 -3.4688730943e+01 +1.5726205092e+00 -2.6035401418e+01 4.3400729449e+01 0.0000000000e+00 0.0000e+00 -1.0000e+00
</event>
<event>
 8      4 +3.7482383e-04 9.11880000e+01 7.81616400e-03 1.18400000e-01
      -11 -1    0    0    0    0 +0.0000000000e+00 +0.0000000000e+00 +4.5593999997e+01 4.5594000000e+01 5.1100000000e-04 0.0000e+00 -1.0000e+00
       11 -1    0    0    0    0 -0.0000000000e+00 -0.0000000000e+00 -4.5593999997e+01 4.5594000000e+01 5.1100000000e-04 0.0000e+00 1.0000e+00
       23  2    1    2    0    0 +1.7763568394e-15 +0.0000000000e+00 -3.5527136788e-15 9.1188000000e+01 9.1188000000e+01 5.4863e-14 0.0000e+00
 -9990012  2    3    3    0    0 +1.4820093083e+01 +3.2417733002e+01 -2.4760424921e+01 4.7787271732e+01 2.0000003135e+01 1.1326e-01 0.0000e+00
      -11  1    4    4    0    0 +3.9759343047e+00 +2.5700874936e+00 -1.2194870048e+01 1.3081600019e+01 5.1100000000e-04 0.0000e+00 1.0000e+00
       11  1    4    4    0    0 +5.3911922201e+00 +8.0091115022e+00 -2.0890931816e+00 9.8780125121e+00 5.1100000000e-04 0.0000e+00 -1.0000e+00
      -12  1    4    4    0    0 +5.4529665579e+00 +2.1838534006e+01 -1.0476461691e+01 2.4827659201e+01 0.0000000000e+00 0.0000e+00 1.0000e+00
       12  1    3    3    0    0 -1.4820093083e+01 -3.2417733002e+01 +2.4760424921e+01 4.3400728268e+01 0.0000000000e+00 0.0000e+00 -1.0000e+00
</event>
<event>
 8      3 +3.7482383e-04 9.11880000e+01 7.81616400e-03 1.18400000e-01
      -11 -1    0    0    0    0 +0.0000000000e+00 +0.0000000000e+00 +4.5593999997e+01 4.5594000000e+01 5.1100000000e-04 0.0000e+00 1.0000e+00
       11 -1    0    0    0    0 -0.0000000000e+00 -0.0000000000e+00 -4.5593999997e+01 4.5594000000e+01 5.1100000000e-04 0.0000e+00 -1.0000e+00
       23  2    1    2    0    0 +0.0000000000e+00 +0.0000000000e+00 -4.4408920985e-16 9.1188000000e+01 9.1188000000e+01 6.1625e-14 0.0000e+00
  9990012  2    3    3    0    0 -4.3257152287e+01 -2.4724159089e+00 -2.5162329293e+00 4.7787245484e+01 1.9999883458e+01 6.6286e-01 0.0000e+00
      -11  1    4    4    0    0 -5.0161054619e+00 +3.0212266236e+00 +1.3954469027e+00 6.0196674854e+00 5.1100000000e-04 0.0000e+00 1.0000e+00
       11  1    4    4    0    0 +3.3715356471e-01 -2.3073803328e+00 +1.3618954041e+00 2.7004510511e+00 5.1100000000e-04 0.0000e+00 -1.0000e+00
       12  1    4    4    0    0 -3.8578200390e+01 -3.1862621997e+00 -5.2735752361e+00 3.9067126947e+01 0.0000000000e+00 0.0000e+00 -1.0000e+00
      -12  1    3    3    0    0 +4.3257152287e+01 +2.4724159089e+00 +2.5162329293e+00 4.3400754516e+01 0.0000000000e+00 0.0000e+00 1.0000e+00
</event>
<event>
 8      4 +3.7482383e-04 9.11880000e+01 7.81616400e-03 1.18400000e-01
      -11 -1    0    0    0    0 +0.0000000000e+00 +0.0000000000e+00 +4.5593999997e+01 4.5594000000e+01 5.1100000000e-04 0.0000e+00 1.0000e+00
       11 -1    0    0    0    0 -0.0000000000e+00 -0.0000000000e+00 -4.5593999997e+01 4.5594000000e+01 5.1100000000e-04 0.0000e+00 -1.0000e+00
       23  2    1    2    0    0 +0.0000000000e+00 -3.5527136788e-15 +0.0000000000e+00 9.1188000000e+01 9.1188000000e+01 5.9752e-14 0.0000e+00
 -9990012  2    3    3    0    0 +2.1630356258e+01 +3.1854947865e+01 +2.0025300663e+01 4.7787277864e+01 2.0000031092e+01 3.4054e-01 0.0000e+00
      -11  1    4    4    0    0 +1.0885270385e+01 +2.8488253220e+01 +1.8247422025e+01 3.5539247231e+01 5.1100000000e-04 0.0000e+00 1.0000e+00
       11  1    4    4    0    0 +1.6495228974e+00 -1.0230262563e+00 +8.0677926306e-01 2.1019994173e+00 5.1100000000e-04 0.0000e+00 -1.0000e+00
      -12  1    4    4    0    0 +9.0955629758e+00 +4.3897209008e+00 +9.7109937409e-01 1.0146031216e+01 0.0000000000e+00 0.0000e+00 1.0000e+00
       12  1    3    3    0    0 -2.1630356258e+01 -3.1854947865e+01 -2.0025300663e+01 4.3400722136e+01 0.0000000000e+00 0.0000e+00 -1.0000e+00
</event>
<event>
 8      3 +3.7482383e-04 9.11880000e+01 7.81616400e-03 1.18400000e-01
      -11 -1    0    0    0    0 +0.0000000000e+00 +0.0000000000e+00 +4.5593999997e+01 4.5594000000e+01 5.1100000000e-04 0.0000e+00 1.0000e+00
       11 -1    0    0    0    0 -0.0000000000e+00 -0.0000000000e+00 -4.5593999997e+01 4.5594000000e+01 5.1100000000e-04 0.0000e+00 -1.0000e+00
       23  2    1    2    0    0 +0.0000000000e+00 +0.0000000000e+00 +0.0000000000e+00 9.1188000000e+01 9.1188000000e+01 2.9042e-14 0.0000e+00
  9990012  2    3    3    0    0 -1.6396607510e+01 +3.5011729580e+01 -1.9721896015e+01 4.7787272720e+01 2.0000007641e+01 1.6793e-01 0.0000e+00
      -11  1    4    4    0    0 -4.6078850152e+00 +9.8786021280e-02 -4.9708924976e-01 4.6356726562e+00 5.1100000000e-04 0.0000e+00 1.0000e+00
       11  1    4    4    0    0 -4.7883229203e+00 +7.9898172929e+00 +3.8226041400e-02 9.3148632977e+00 5.1100000000e-04 0.0000e+00 -1.0000e+00
       12  1    4    4    0    0 -7.0003995741e+00 +2.6923126266e+01 -1.9263032806e+01 3.3836736767e+01 0.0000000000e+00 0.0000e+00 -1.0000e+00
      -12  1    3    3    0    0 +1.6396607510e+01 -3.5011729580e+01 +1.9721896015e+01 4.3400727280e+01 0.0000000000e+00 0.0000e+00 1.0000e+00
</event>
<event>
 8      3 +3.7482383e-04 9.11880000e+01 7.81616400e-03 1.18400000e-01
      -11 -1    0    0    0    0 +0.0000000000e+00 +0.0000000000e+00 +4.5593999997e+01 4.5594000000e+01 5.1100000000e-04 0.0000e+00 -1.0000e+00
       11 -1    0    0    0    0 -0.0000000000e+00 -0.0000000000e+00 -4.5593999997e+01 4.5594000000e+01 5.1100000000e-04 0.0000e+00 1.0000e+00
       23  2    1    2    0    0 -8.8817841970e-16 +4.4408920985e-16 +7.1054273576e-15 9.1188000000e+01 9.1188000000e+01 1.4843e-14 0.0000e+00
  9990012  2    3    3    0    0 -7.6630713590e+00 +2.4161582946e+00 +4.2650462910e+01 4.7787280305e+01 2.0000042225e+01 9.2567e-02 0.0000e+00
      -11  1    4    4    0    0 +1.0971060222e-01 -2.3726382708e+00 +6.4929333193e-01 2.4623222519e+00 5.1100000000e-04 0.0000e+00 1.0000e+00
       11  1    4    4    0    0 -2.0500891315e+00 +5.5690879283e+00 +4.6752617698e+00 7.5548447157e+00 5.1100000000e-04 0.0000e+00 -1.0000e+00
       12  1    4    4    0    0 -5.7226928297e+00 -7.8029136298e-01 +3.7325907808e+01 3.7770113338e+01 0.0000000000e+00 0.0000e+00 -1.0000e+00
      -12  1    3    3    0    0 +7.6630713590e+00 -2.4161582946e+00 -4.2650462910e+01 4.3400719695e+01 0.0000000000e+00 0.0000e+00 1.0000e+00
</event>
<event>
 8      4 +3.7482383e-04 9.11880000e+01 7.81616400e-03 1.18400000e-01
      -11 -1    0    0    0    0 +0.0000000000e+00 +0.0000000000e+00 +4.5593999997e+01 4.5594000000e+01 5.1100000000e-04 0.0000e+00 1.0000e+00
       11 -1    0    0    0    0 -0.0000000000e+00 -0.0000000000e+00 -4.5593999997e+01 4.5594000000e+01 5.1100000000e-04 0.0000e+00 -1.0000e+00
       23  2    1    2    0    0 -3.5527136788e-15 +0.0000000000e+00 +0.0000000000e+00 9.1188000000e+01 9.1188000000e+01 6.2730e-15 0.0000e+00
 -9990012  2    3    3    0    0 -1.6230417246e+01 +3.7726517323e+01 -1.4032340248e+01 4.7787272746e+01 2.0000007760e+01 5.0834e-01 0.0000e+00
      -11  1    4    4    0    0 -1.7372043487e+00 +1.3993187455e+01 -4.9009542417e+00 1.4928044977e+01 5.1100000000e-04 0.0000e+00 1.0000e+00
       11  1    4    4    0    0 +2.5449976502e+00 +6.6752470150e+00 -4.0768509660e+00 8.2253662418e+00 5.1100000000e-04 0.0000e+00 -1.0000e+00
      -12  1    4    4    0    0 -1.7038210548e+01 +1.7058082853e+01 -5.0545350403e+00 2.4633861528e+01 0.0000000000e+00 0.0000e+00 1.0000e+00
       12  1    3    3    0    0 +1.6230417246e+01 -3.7726517323e+01 +1.4032340248e+01 4.3400727254e+01 0.0000000000e+00 0.0000e+00 -1.0000e+00
</event>
<event>
 8      4 +3.7482383e-04 9.11880000e+01 7.81616400e-03 1.18400000e-01
      -11 -1    0    0    0    0 +0.0000000000e+00 +0.0000000000e+00 +4.5593999997e+01 4.5594000000e+01 5.1100000000e-04 0.0000e+00 -1.0000e+00
       11 -1    0    0    0    0 -0.0000000000e+00 -0.0000000000e+00 -4.5593999997e+01 4.5594000000e+01 5.1100000000e-04 0.0000e+00 1.0000e+00
       23  2    1    2    0    0 -7.1054273576e-15 +0.0000000000e+00 +0.0000000000e+00 9.1188000000e+01 9.1188000000e+01 1.9881e-13 0.0000e+00
 -9990012  2    3    3    0    0 +3.9932994269e+01 +1.4518423637e+01 +8.8427802101e+00 4.7787269384e+01 1.9999992428e+01 3.5311e-01 0.0000e+00
      -11  1    4    4    0    0 +1.1998444567e+01 +3.8055527642e-01 -5.4767463286e+00 1.3194780974e+01 5.1100000000e-04 0.0000e+00 1.0000e+00
       11  1    4    4    0    0 +2.0132756328e+01 +8.4594246527e+00 +9.7403080360e+00 2.3911573426e+01 5.1100000000e-04 0.0000e+00 -1.0000e+00
      -12  1    4    4    0    0 +7.8017933745e+00 +5.6784437079e+00 +4.5792185027e+00 1.0680914984e+01 0.0000000000e+00 0.0000e+00 1.0000e+00
       12  1    3    3    0    0 -3.9932994269e+01 -1.4518423637e+01 -8.8427802101e+00 4.3400730616e+01 0.0000000000e+00 0.0000e+00 -1.0000e+00
</event>
<event>
 8      3 +3.7482383e-04 9.11880000e+01 7.81616400e-03 1.18400000e-01
      -11 -1    0    0    0    0 +0.0000000000e+00 +0.0000000000e+00 +4.5593999997e+01 4.5594000000e+01 5.1100000000e-04 0.0000e+00 -1.0000e+00
       11 -1    0    0    0    0 -0.0000000000e+00 -0.0000000000e+00 -4.5593999997e+01 4.5594000000e+01 5.1100000000e-04 0.0000e+00 1.0000e+00
       23  2    1    2    0    0 -3.5527136788e-15 +0.0000000000e+00 +7.1054273576e-15 9.1188000000e+01 9.1188000000e+01 7.4562e-14 0.0000e+00
  9990012  2    3    3    0    0 -2.7181850308e+01 +2.3039743613e+00 +3.3755918944e+01 4.7787270193e+01 1.9999996120e+01 4.0707e-02 0.0000e+00
      -11  1    4    4    0    0 -2.1705284323e+01 -1.4220469778e+00 +2.9118062555e+01 3.6345607057e+01 5.1100000000e-04 0.0000e+00 -1.0000e+00
       11  1    4    4    0    0 -2.1074732383e-01 +2.4003462881e+00 +5.4426850212e+00 5.9522178420e+00 5.1100000000e-04 0.0000e+00 1.0000e+00
       12  1    4    4    0    0 -5.2658186608e+00 +1.3256750510e+00 -8.0482863232e-01 5.4894452941e+00 0.0000000000e+00 0.0000e+00 -1.0000e+00
      -12  1    3    3    0    0 +2.7181850308e+01 -2.3039743613e+00 -3.3755918944e+01 4.3400729807e+01 0.0000000000e+00 0.0000e+00 1.0000e+00
</event>
<event>
 8      4 +3.7482383e-04 9.11880000e+01 7.81616400e-03 1.18400000e-01
      -11 -1    0    0    0    0 +0.0000000000e+00 +0.0000000000e+00 +4.5593999997e+01 4.5594000000e+01 5.1100000000e-04 0.0000e+00 -1.0000e+00
       11 -1    0    0    0    0 -0.0000000000e+00 -0.0000000000e+00 -4.5593999997e+01 4.5594000000e+01 5.1100000000e-04 0.0000e+00 1.0000e+00
       23  2    1    2    0    0 +7.1054273576e-15 +8.8817841970e-16 +0.0000000000e+00 9.1188000000e+01 9.1188000000e+01 7.7498e-14 0.0000e+00
 -9990012  2    3    3    0    0 +4.2325529590e+01 +7.4246249001e+00 +6.0867329639e+00 4.7787264659e+01 1.9999970887e+01 1.0229e-01 0.0000e+00
      -11  1    4    4    0    0 +1.9102689617e+01 +1.2500988787e+01 +7.7700086831e-01 2.2842749437e+01 5.1100000000e-04 0.0000e+00 1.0000e+00
       11  1    4    4    0    0 +2.2509795819e+00 -1.2312133877e+00 +2.2347249889e+00 3.4024684453e+00 5.1100000000e-04 0.0000e+00 -1.0000e+00
      -12  1    4    4    0    0 +2.0971860391e+01 -3.8451504990e+00 +3.0750071066e+00 2.1542046777e+01 0.0000000000e+00 0.0000e+00 1.0000e+00
       12  1    3    3    0    0 -4.2325529590e+01 -7.4246249001e+00 -6.0867329639e+00 4.3400735341e+01 0.0000000000e+00 0.0000e+00 -1.0000e+00
</event>
<event>
 8      4 +3.7482383e-04 9.11880000e+01 7.81616400e-03 1.18400000e-01
      -11 -1    0    0    0    0 +0.0000000000e+00 +0.0000000000e+00 +4.5593999997e+01 4.5594000000e+01 5.1100000000e-04 0.0000e+00 -1.0000e+00
       11 -1    0    0    0    0 -0.0000000000e+00 -0.0000000000e+00 -4.5593999997e+01 4.5594000000e+01 5.1100000000e-04 0.0000e+00 1.0000e+00
       23  2    1    2    0    0 +4.4408920985e-16 +0.0000000000e+00 +0.0000000000e+00 9.1188000000e+01 9.1188000000e+01 1.5540e-13 0.0000e+00
 -9990012  2    3    3    0    0 -2.0734045062e+00 +1.5587482306e+01 -4.0451881900e+01 4.7787270051e+01 1.9999995468e+01 1.3943e-01 0.0000e+00
      -11  1    4    4    0    0 -4.8182851431e+00 +5.5381079571e+00 -1.9051291784e+01 2.0416616526e+01 5.1100000000e-04 0.0000e+00 1.0000e+00
       11  1    4    4    0    0 -1.5387723734e+00 +1.1316186730e+01 -1.0200277157e+01 1.5312398795e+01 5.1100000000e-04 0.0000e+00 -1.0000e+00
      -12  1    4    4    0    0 +4.2836530103e+00 -1.2668123819e+00 -1.1200312960e+01 1.2058254729e+01 0.0000000000e+00 0.0000e+00 1.0000e+00
       12  1    3    3    0    0 +2.0734045062e+00 -1.5587482306e+01 +4.0451881900e+01 4.3400729949e+01 0.0000000000e+00 0.0000e+00 -1.0000e+00
</event>
<event>
 8      3 +3.7482383e-04 9.11880000e+01 7.81616400e-03 1.18400000e-01
      -11 -1    0    0    0    0 +0.0000000000e+00 +0.0000000000e+00 +4.5593999997e+01 4.5594000000e+01 5.1100000000e-04 0.0000e+00 -1.0000e+00
       11 -1    0    0    0    0 -0.0000000000e+00 -0.0000000000e+00 -4.5593999997e+01 4.5594000000e+01 5.1100000000e-04 0.0000e+00 1.0000e+00
       23  2    1    2    0    0 +0.0000000000e+00 +0.0000000000e+00 -3.5527136788e-15 9.1188000000e+01 9.1188000000e+01 5.5816e-14 0.0000e+00
  9990012  2    3    3    0    0 -3.6104128263e+01 +1.1822968998e+01 +2.0984100844e+01 4.7787272335e+01 2.0000005886e+01 5.5934e-01 0.0000e+00
      -11  1    4    4    0    0 -4.8561347234e+00 -4.2171512629e+00 +5.3301077484e+00 8.3532303989e+00 5.1100000000e-04 0.0000e+00 1.0000e+00
       11  1    4    4    0    0 -1.5198615032e+01 +6.3828233363e+00 +1.1899257194e+01 2.0330535031e+01 5.1100000000e-04 0.0000e+00 -1.0000e+00
       12  1    4    4    0    0 -1.6049378508e+01 +9.6572969249e+00 +3.7547359014e+00 1.9103506905e+01 0.0000000000e+00 0.0000e+00 -1.0000e+00
      -12  1    3    3    0    0 +3.6104128263e+01 -1.1822968998e+01 -2.0984100844e+01 4.3400727665e+01 0.0000000000e+00 0.0000e+00 1.0000e+00
</event>
<event>
 8      4 +3.7482383e-04 9.11880000e+01 7.81616400e-03 1.18400000e-01
      -11 -1    0    0    0    0 +0.0000000000e+00 +0.0000000000e+00 +4.5593999997e+01 4.5594000000e+01 5.1100000000e-04 0.0000e+00 1.0000e+00
       11 -1    0    0    0    0 -0.0000000000e+00 -0.0000000000e+00 -4.5593999997e+01 4.5594000000e+01 5.1100000000e-04 0.0000e+00 -1.0000e+00
       23  2    1    2    0    0 +0.0000000000e+00 +0.0000000000e+00 +0.0000000000e+00 9.1188000000e+01 9.1188000000e+01 3.3129e-13 0.0000e+00
 -9990012  2    3    3    0    0 +1.4542635053e+01 -1.0774620325e+01 +3.9446706486e+01 4.7787270398e+01 1.9999997053e+01 1.6449e-01 0.0000e+00
      -11  1    4    4    0    0 +4.8834634285e+00 -5.3605724788e+00 +2.0648135992e+01 2.1884457328e+01 5.1100000000e-04 0.0000e+00 1.0000e+00
       11  1    4    4    0    0 -3.0636880658e+00 +6.1724933907e-01 +1.1598348525e+00 3.3335264296e+00 5.1100000000e-04 0.0000e+00 -1.0000e+00
      -12  1    4    4    0    0 +1.2722859690e+01 -6.0312971848e+00 +1.7638735641e+01 2.2569286640e+01 0.0000000000e+00 0.0000e+00 1.0000e+00
       12  1    3    3    0    0 -1.4542635053e+01 +1.0774620325e+01 -3.9446706486e+01 4.3400729602e+01 0.0000000000e+00 0.0000e+00 -1.0000e+00
</event>
<event>
 8      4 +3.7482383e-04 9.11880000e+01 7.81616400e-03 1.18400000e-01
      -11 -1    0    0    0    0 +0.0000000000e+00 +0.0000000000e+00 +4.5593999997e+01 4.5594000000e+01 5.1100000000e-04 0.0000e+00 -1.0000e+00
       11 -1    0    0    0    0 -0.0000000000e+00 -0.0000000000e+00 -4.5593999997e+01 4.5594000000e+01 5.1100000000e-04 0.0000e+00 1.0000e+00
       23  2    1    2    0    0 +0.0000000000e+00 +4.4408920985e-16 +0.0000000000e+00 9.1188000000e+01 9.1188000000e+01 8.3722e-14 0.0000e+00
 -9990012  2    3    3    0    0 +3.8226121467e+01 -2.5285640210e+00 -2.0395926576e+01 4.7787264761e+01 1.9999971351e+01 2.5774e-01 0.0000e+00
      -11  1    4    4    0    0 +2.5657315047e+01 +3.7339950779e+00 -2.0029897332e+01 3.2763353340e+01 5.1100000000e-04 0.0000e+00 1.0000e+00
       11  1    4    4    0    0 +9.3038437690e+00 -6.0581419918e+00 -2.1336690829e+00 1.1305535692e+01 5.1100000000e-04 0.0000e+00 -1.0000e+00
      -12  1    4    4    0    0 +3.2649626503e+00 -2.0441710712e-01 +1.7676398388e+00 3.7183757289e+00 0.0000000000e+00 0.0000e+00 1.0000e+00
       12  1    3    3    0    0 -3.8226121467e+01 +2.5285640210e+00 +2.0395926576e+01 4.3400735239e+01 0.0000000000e+00 0.0000e+00 -1.0000e+00
</event>
<event>
 8      4 +3.7482383e-04 9.11880000e+01 7.81616400e-03 1.18400000e-01
      -11 -1    0    0    0    0 +0.0000000000e+00 +0.0000000000e+00 +4.5593999997e+01 4.5594000000e+01 5.1100000000e-04 0.0000e+00 1.0000e+00
       11 -1    0    0    0    0 -0.0000000000e+00 -0.0000000000e+00 -4.5593999997e+01 4.5594000000e+01 5.1100000000e-04 0.0000e+00 -1.0000e+00
       23  2    1    2    0    0 +1.7763568394e-15 +0.0000000000e+00 -7.1054273576e-15 9.1188000000e+01 9.1188000000e+01 7.7176e-15 0.0000e+00
 -9990012  2    3    3    0    0 +1.4391715914e+01 -2.3999914091e+01 +3.3173876163e+01 4.7787269326e+01 1.9999992166e+01 4.9922e-03 0.0000e+00
      -11  1    4    4    0    0 -7.0554334193e-01 -1.8951230301e-01 -3.2211688466e-01 7.9841459709e-01 5.1100000000e-04 0.0000e+00 1.0000e+00
       11  1    4    4    0    0 -2.5582071826e+00 -4.1023917361e-01 +1.5723542633e-01 2.5956585694e+00 5.1100000000e-04 0.0000e+00 -1.0000e+00
      -12  1    4    4    0    0 +1.7655466439e+01 -2.3400162614e+01 +3.3338757622e+01 4.4393196160e+01 0.0000000000e+00 0.0000e+00 1.0000e+00
       12  1    3    3    0    0 -1.4391715914e+01 +2.3999914091e+01 -3.3173876163e+01 4.3400730674e+01 0.0000000000e+00 0.0000e+00 -1.0000e+00
</event>
<event>
 8      4 +3.7482383e-04 9.11880000e+01 7.81616400e-03 1.18400000e-01
      -11 -1    0    0    0    0 +0.0000000000e+00 +0.0000000000e+00 +4.5593999997e+01 4.5594000000e+01 5.1100000000e-04 0.0000e+00 1.0000e+00
       11 -1    0    0    0    0 -0.0000000000e+00 -0.0000000000e+00 -4.5593999997e+01 4.5594000000e+01 5.1100000000e-04 0.0000e+00 -1.0000e+00
       23  2    1    2    0    0 +0.0000000000e+00 +0.0000000000e+00 +0.0000000000e+00 9.1188000000e+01 9.1188000000e+01 6.7077e-14 0.0000e+00
 -9990012  2    3    3    0    0 +4.5614572936e+00 -2.1588460696e+01 +3.7373183482e+01 4.7787269920e+01 1.9999994875e+01 1.9712e-01 0.0000e+00
      -11  1    4    4    0    0 -2.9650761277e-01 -3.8877362862e+00 +1.1284187000e+01 1.1938814292e+01 5.1100000000e-04 0.0000e+00 1.0000e+00
       11  1    4    4    0    0 +7.0034460873e+00 -2.6207003454e+00 +1.5761966014e+01 1.7445798929e+01 5.1100000000e-04 0.0000e+00 -1.0000e+00
      -12  1    4    4    0    0 -2.1454811809e+00 -1.5080024065e+01 +1.0327030468e+01 1.8402656699e+01 0.0000000000e+00 0.0000e+00 1.0000e+00
       12  1    3    3    0    0 -4.5614572936e+00 +2.1588460696e+01 -3.7373183482e+01 4.3400730080e+01 0.0000000000e+00 0.0000e+00 -1.0000e+00
</event>
<event>
 8      3 +3.7482383e-04 9.11880000e+01 7.81616400e-03 1.18400000e-01
      -11 -1    0    0    0    0 +0.0000000000e+00 +0.0000000000e+00 +4.5593999997e+01 4.5594000000e+01 5.1100000000e-04 0.0000e+00 1.0000e+00
       11 -1    0    0    0    0 -0.0000000000e+00 -0.0000000000e+00 -4.5593999997e+01 4.5594000000e+01 5.1100000000e-04 0.0000e+00 -1.0000e+00
       23  2    1    2    0    0 +0.0000000000e+00 -3.5527136788e-15 -1.7763568394e-15 9.1188000000e+01 9.1188000000e+01 1.5720e-13 0.0000e+00
  9990012  2    3    3    0    0 -3.2311054915e+01 -2.6108767853e+01 -1.2567835134e+01 4.7787279862e+01 2.0000040204e+01 1.6557e-01 0.0000e+00
      -11  1    4    4    0    0 -2.1298592350e+01 -8.1327582493e+00 -1.1076243067e+01 2.5346695121e+01 5.1100000000e-04 0.0000e+00 1.0000e+00
       11  1    4    4    0    0 -4.2592036569e+00 -1.5736302004e+00 +5.9755220810e-01 4.5797594588e+00 5.1100000000e-04 0.0000e+00 -1.0000e+00
       12  1    4    4    0    0 -6.7532589084e+00 -1.6402379403e+01 -2.0891442750e+00 1.7860825282e+01 0.0000000000e+00 0.0000e+00 -1.0000e+00
      -12  1    3    3    0    0 +3.2311054915e+01 +2.6108767853e+01 +1.2567835134e+01 4.3400720138e+01 0.0000000000e+00 0.0000e+00 1.0000e+00
</event>
<event>
 8      3 +3.7482383e-04 9.11880000e+01 7.81616400e-03 1.18400000e-01
      -11 -1    0    0    0    0 +0.0000000000e+00 +0.0000000000e+00 +4.5593999997e+01 4.5594000000e+01 5.1100000000e-04 0.0000e+00 1.0000e+00
       11 -1    0    0    0    0 -0.0000000000e+00 -0.0000000000e+00 -4.5593999997e+01 4.5594000000e+01 5.1100000000e-04 0.0000e+00 -1.0000e+00
       23  2    1    2    0    0 +0.0000000000e+00 +0.0000000000e+00 -1.7763568394e-15 9.1188000000e+01 9.1188000000e+01 2.9138e-14 0.0000e+00
  9990012  2    3    3    0    0 -2.4160536310e+01 -3.4460892890e+01 -1.0598985773e+01 4.7787272437e+01 2.0000006350e+01 4.0059e-02 0.0000e+00
      -11  1    4    4    0    0 -7.4836406263e+00 -2.4058744878e+01 -5.8210575423e+00 2.5859481690e+01 5.1100000000e-04 0.0000e+00 -1.0000e+00
       11  1    4    4    0    0 -3.2757541518e+00 -2.7354587624e+00 -4.8870827154e+00 6.4882106649e+00 5.1100000000e-04 0.0000e+00 1.0000e+00
       12  1    4    4    0    0 -1.3401141531e+01 -7.6666892503e+00 +1.0915448484e-01 1.5439580082e+01 0.0000000000e+00 0.0000e+00 -1.0000e+00
      -12  1    3    3    0    0 +2.4160536310e+01 +3.4460892890e+01 +1.0598985773e+01 4.3400727563e+01 0.0000000000e+00 0.0000e+00 1.0000e+00
</event>
<event>
 8      3 +3.7482383e-04 9.11880000e+01 7.81616400e-03 1.18400000e-01
      -11 -1    0    0    0    0 +0.0000000000e+00 +0.0000000000e+00 +4.5593999997e+01 4.5594000000e+01 5.1100000000e-04 0.0000e+00 -1.0000e+00
       11 -1    0    0    0    0 -0.0000000000e+00 -0.0000000000e+00 -4.5593999997e+01 4.5594000000e+01 5.1100000000e-04 0.0000e+00 1.0000e+00
       23  2    1    2    0    0 +0.0000000000e+00 +7.1054273576e-15 -1.7763568394e-15 9.1188000000e+01 9.1188000000e+01 1.2196e-13 0.0000e+00
  9990012  2    3    3    0    0 -7.8634060095e+00 -4.2421709323e+01 +4.7101728207e+00 4.7787305259e+01 2.0000155998e+01 2.5266e-01 0.0000e+00
      -11  1    4    4    0    0 -4.8009150674e+00 -4.8491955281e+00 -1.4380068602e+00 6.9736179093e+00 5.1100000000e-04 0.0000e+00 1.0000e+00
       11  1    4    4    0    0 -4.8606454405e-01 -1.6953688576e-01 -2.3210036106e+00 2.3774060482e+00 5.1100000000e-04 0.0000e+00 -1.0000e+00
       12  1    4    4    0    0 -2.5764263981e+00 -3.7402976909e+01 +8.4691832914e+00 3.8436281302e+01 0.0000000000e+00 0.0000e+00 -1.0000e+00
      -12  1    3    3    0    0 +7.8634060095e+00 +4.2421709323e+01 -4.7101728207e+00 4.3400694741e+01 0.0000000000e+00 0.0000e+00 1.0000e+00
</event>
<event>
 8      3 +3.7482383e-04 9.11880000e+01 7.81616400e-03 1.18400000e-01
      -11 -1    0    0    0    0 +0.0000000000e+00 +0.0000000000e+00 +4.5593999997e+01 4.5594000000e+01 5.1100000000e-04 0.0000e+00 1.0000e+00
       11 -1    0    0    0    0 -0.0000000000e+00 -0.0000000000e+00 -4.5593999997e+01 4.5594000000e+01 5.1100000000e-04 0.0000e+00 -1.0000e+00
       23  2    1    2    0    0 -3.5527136788e-15 +0.0000000000e+00 +1.7763568394e-15 9.1188000000e+01 9.1188000000e+01 5.3507e-14 0.0000e+00
  9990012  2    3    3    0    0 +2.2337314419e+01 -3.4670617722e+01 -1.3513533931e+01 4.7787274799e+01 2.0000017117e+01 2.4538e-01 0.0000e+00
      -11  1    4    4    0    0 +1.5539505813e+00 -4.9560294979e+00 +4.1960827983e+00 6.6771327608e+00 5.1100000000e-04 0.0000e+00 1.0000e+00
       11  1    4    4    0    0 +2.0264830296e+01 -2.7460922881e+01 -1.8297266492e+01 3.8724095777e+01 5.1100000000e-04 0.0000e+00 -1.0000e+00
       12  1    4    4    0    0 +5.1853354156e-01 -2.2536653434e+00 +5.8764976307e-01 2.3860462606e+00 0.0000000000e+00 0.0000e+00 -1.0000e+00
      -12  1    3    3    0    0 -2.2337314419e+01 +3.4670617722e+01 +1.3513533931e+01 4.3400725201e+01 0.0000000000e+00 0.0000e+00 1.0000e+00
</event>
<event>
 8      3 +3.7482383e-04 9.11880000e+01 7.81616400e-03 1.18400000e-01
      -11 -1    0    0    0    0 +0.0000000000e+00 +0.0000000000e+00 +4.5593999997e+01 4.5594000000e+01 5.1100000000e-04 0.0000e+00 1.0000e+00
       11 -1    0    0    0    0 -0.0000000000e+00 -0.0000000000e+00 -4.5593999997e+01 4.5594000000e+01 5.1100000000e-04 0.0000e+00 -1.0000e+00
       23  2    1    2    0    0 +0.0000000000e+00 +0.0000000000e+00 +0.0000000000e+00 9.1188000000e+01 9.1188000000e+01 1.6375e-13 0.0000e+00
  9990012  2    3    3    0    0 +3.2857853119e+01 +2.5222533094e+01 -1.2954094128e+01 4.7787271412e+01 2.0000001678e+01 4.4317e-01 0.0000e+00
      -11  1    4    4    0    0 +6.2590358719e+00 +7.6964779113e-01 -3.5879852193e+00 7.2554480195e+00 5.1100000000e-04 0.0000e+00 1.0000e+00
       11  1    4    4    0    0 +1.6912158872e+01 +4.8941975787e+00 -3.9442420214e+00 1.8042486886e+01 5.1100000000e-04 0.0000e+00 -1.0000e+00
       12  1    4    4    0    0 +9.6866583747e+00 +1.9558687724e+01 -5.4218668877e+00 2.2489336507e+01 0.0000000000e+00 0.0000e+00 -1.0000e+00
      -12  1    3    3    0    0 -3.2857853119e+01 -2.5222533094e+01 +1.2954094128e+01 4.3400728588e+01 0.0000000000e+00 0.0000e+00 1.0000e+00
</event>
<event>
 8      4 +3.7482383e-04 9.11880000e+01 7.81616400e-03 1.18400000e-01
      -11 -1    0    0    0    0 +0.0000000000e+00 +0.0000000000e+00 +4.5593999997e+01 4.5594000000e+01 5.1100000000e-04 0.0000e+00 1.0000e+00
       11 -1    0    0    0    0 -0.0000000000e+00 -0.0000000000e+00 -4.5593999997e+01 4.5594000000e+01 5.1100000000e-04 0.0000e+00 -1.0000e+00
       23  2    1    2    0    0 +0.0000000000e+00 +0.0000000000e+00 +0.0000000000e+00 9.1188000000e+01 9.1188000000e+01 8.5188e-14 0.0000e+00
 -9990012  2    3    3    0    0 +2.2245127699e+01 +3.7244455637e+01 +1.2761088785e+00 4.7787266874e+01 1.9999980983e+01 7.8822e-01 0.0000e+00
      -11  1    4    4    0    0 +8.4225113600e+00 +1.9191390561e+01 +7.3060011255e+00 2.2195175646e+01 5.1100000000e-04 0.0000e+00 1.0000e+00
       11  1    4    4    0    0 -2.5589088866e-01 +2.3331975136e+00 -3.6721579805e+00 4.3582146895e+00 5.1100000000e-04 0.0000e+00 -1.0000e+00
      -12  1    4    4    0    0 +1.4078507228e+01 +1.5719867563e+01 -2.3577342664e+00 2.1233876538e+01 0.0000000000e+00 0.0000e+00 1.0000e+00
       12  1    3    3    0    0 -2.2245127699e+01 -3.7244455637e+01 -1.2761088785e+00 4.3400733126e+01 0.0000000000e+00 0.0000e+00 -1.0000e+00
</event>
<event>
 8      3 +3.7482383e-04 9.11880000e+01 7.81616400e-03 1.18400000e-01
      -11 -1    0    0    0    0 +0.0000000000e+00 +0.0000000000e+00 +4.5593999997e+01 4.5594000000e+01 5.1100000000e-04 0.0000e+00 -1.0000e+00
       11 -1    0    0    0    0 -0.0000000000e+00 -0.0000000000e+00 -4.5593999997e+01 4.5594000000e+01 5.1100000000e-04 0.0000e+00 1.0000e+00
       23  2    1    2    0    0 +0.0000000000e+00 +1.7763568394e-15 +0.0000000000e+00 9.1188000000e+01 9.1188000000e+01 3.6018e-14 0.0000e+00
  9990012  2    3    3    0    0 +3.1824309469e+00 -1.0986276067e+01 +4.1866383237e+01 4.7787306758e+01 2.0000162833e+01 2.0710e-01 0.0000e+00
      -11  1    4    4    0    0 +5.5193535108e+00 -2.2536586334e-01 +6.5082434716e+00 8.5364680223e+00 5.1100000000e-04 0.0000e+00 1.0000e+00
       11  1    4    4    0    0 -1.8951826315e+00 -9.1436776763e+00 +9.4390367419e+00 1.3277574083e+01 5.1100000000e-04 0.0000e+00 -1.0000e+00
       12  1    4    4    0    0 -4.4173993236e-01 -1.6172325271e+00 +2.5919103023e+01 2.5973264653e+01 0.0000000000e+00 0.0000e+00 -1.0000e+00
      -12  1    3    3    0    0 -3.1824309469e+00 +1.0986276067e+01 -4.1866383237e+01 4.3400693242e+01 0.0000000000e+00 0.0000e+00 1.0000e+00
</event>
<event>
 8      3 +3.7482383e-04 9.11880000e+01 7.81616400e-03 1.18400000e-01
      -11 -1    0    0    0    0 +0.0000000000e+00 +0.0000000000e+00 +4.5593999997e+01 4.5594000000e+01 5.1100000000e-04 0.0000e+00 -1.0000e+00
       11 -1    0    0    0    0 -0.0000000000e+00 -0.0000000000e+00 -4.5593999997e+01 4.5594000000e+01 5.1100000000e-04 0.0000e+00 1.0000e+00
       23  2    1    2    0    0 -3.5527136788e-15 +0.0000000000e+00 +0.0000000000e+00 9.1188000000e+01 9.1188000000e+01 3.4172e-14 0.0000e+00
  9990012  2    3    3    0    0 +2.3188628954e+01 +3.4712920420e+01 +1.1871148244e+01 4.7787268238e+01 1.9999987203e+01 3.3159e-03 0.0000e+00
      -11  1    4    4    0    0 +1.3667718264e+01 +2.2251369465e+01 +3.6520157687e+00 2.6367919619e+01 5.1100000000e-04 0.0000e+00 1.0000e+00
       11  1    4    4    0    0 +1.2185140970e+01 +8.5934956174e+00 +5.0054623359e+00 1.5728333696e+01 5.1100000000e-04 0.0000e+00 -1.0000e+00
       12  1    4    4    0    0 -2.6642302804e+00 +3.8680553380e+00 +3.2136701394e+00 5.6910149226e+00 0.0000000000e+00 0.0000e+00 -1.0000e+00
      -12  1    3    3    0    0 -2.3188628954e+01 -3.4712920420e+01 -1.1871148244e+01 4.3400731762e+01 0.0000000000e+00 0.0000e+00 1.0000e+00
</event>
<event>
 8      4 +3.7482383e-04 9.11880000e+01 7.81616400e-03 1.18400000e-01
      -11 -1    0    0    0    0 +0.0000000000e+00 +0.0000000000e+00 +4.5593999997e+01 4.5594000000e+01 5.1100000000e-04 0.0000e+00 1.0000e+00
       11 -1    0    0    0    0 -0.0000000000e+00 -0.0000000000e+00 -4.5593999997e+01 4.5594000000e+01 5.1100000000e-04 0.0000e+00 -1.0000e+00
       23  2    1    2    0    0 +0.0000000000e+00 +0.0000000000e+00 +0.0000000000e+00 9.1188000000e+01 9.1188000000e+01 2.9939e-14 0.0000e+00
 -9990012  2    3    3    0    0 +4.2223952595e+00 +3.8508112082e+01 -1.9568334642e+01 4.7787273756e+01 2.0000012363e+01 3.9356e-01 0.0000e+00
      -11  1    4    4    0    0 +4.0803227450e+00 +8.4804610793e+00 -1.4039409673e+01 1.6901842446e+01 5.1100000000e-04 0.0000e+00 -1.0000e+00
       11  1    4    4    0    0 -9.1090029554e-01 +1.3281441389e+00 -7.3081584919e-01 1.7685582458e+00 5.1100000000e-04 0.0000e+00 1.0000e+00
      -12  1    4    4    0    0 +1.0529728100e+00 +2.8699506863e+01 -4.7981091201e+00 2.9116873065e+01 0.0000000000e+00 0.0000e+00 1.0000e+00
       12  1    3    3    0    0 -4.2223952595e+00 -3.8508112082e+01 +1.9568334642e+01 4.3400726244e+01 0.0000000000e+00 0.0000e+00 -1.0000e+00
</event>
<event>
 8      4 +3.7482383e-04 9.11880000e+01 7.81616400e-03 1.18400000e-01
      -11 -1    0    0    0    0 +0.0000000000e+00 +0.0000000000e+00 +4.5593999997e+01 4.5594000000e+01 5.1100000000e-04 0.0000e+00 1.0000e+00
       11 -1    0    0    0    0 -0.0000000000e+00 -0.0000000000e+00 -4.5593999997e+01 4.5594000000e+01 5.1100000000e-04 0.0000e+00 -1.0000e+00
       23  2    1    2    0    0 +7.1054273576e-15 +0.0000000000e+00 +4.4408920985e-16 9.1188000000e+01 9.1188000000e+01 7.2609e-14 0.0000e+00
 -9990012  2    3    3    0    0 +3.2600760061e+01 -2.8388883382e+01 +3.8581253488e+00 4.7787269736e+01 1.9999994033e+01 9.5121e-03 0.0000e+00
      -11  1    4    4    0    0 +8.3021750097e+00 -1.2740691726e+01 +3.9251356943e-02 1.5207000903e+01 5.1100000000e-04 0.0000e+00 1.0000e+00
       11  1    4    4    0    0 -6.2141348326e-01 -2.6424653045e+00 -2.5870532408e+00 3.7498829761e+00 5.1100000000e-04 0.0000e+00 -1.0000e+00
      -12  1    4    4    0    0 +2.4919998535e+01 -1.3005726352e+01 +6.4059272326e+00 2.8830385856e+01 0.0000000000e+00 0.0000e+00 1.0000e+00
       12  1    3    3    0    0 -3.2600760061e+01 +2.8388883382e+01 -3.8581253488e+00 4.3400730264e+01 0.0000000000e+00 0.0000e+00 -1.0000e+00
</event>
<event>
 8      4 +3.7482383e-04 9.11880000e+01 7.81616400e-03 1.18400000e-01
      -11 -1    0    0    0    0 +0.0000000000e+00 +0.0000000000e+00 +4.5593999997e+01 4.5594000000e+01 5.1100000000e-04 0.0000e+00 -1.0000e+00
       11 -1    0    0    0    0 -0.0000000000e+00 -0.0000000000e+00 -4.5593999997e+01 4.5594000000e+01 5.1100000000e-04 0.0000e+00 1.0000e+00
       23  2    1    2    0    0 +3.5527136788e-15 -3.5527136788e-15 -3.5527136788e-15 9.1188000000e+01 9.1188000000e+01 1.5619e-14 0.0000e+00
 -9990012  2    3    3    0    0 +2.8878573969e+01 -2.1831104549e+01 -2.3938548964e+01 4.7787270895e+01 1.9999999319e+01 1.0782e-01 0.0000e+00
      -11  1    4    4    0    0 +5.0865717639e+00 -1.0687375276e+01 -7.1616228974e+00 1.3834089973e+01 5.1100000000e-04 0.0000e+00 1.0000e+00
       11  1    4    4    0    0 +4.7984511912e+00 +2.8957136394e+00 -1.4233894523e+00 5.7824155082e+00 5.1100000000e-04 0.0000e+00 -1.0000e+00
      -12  1    4    4    0    0 +1.8993551014e+01 -1.4039442912e+01 -1.5353536614e+01 2.8170765413e+01 0.0000000000e+00 0.0000e+00 1.0000e+00
       12  1    3    3    0    0 -2.8878573969e+01 +2.1831104549e+01 +2.3938548964e+01 4.3400729105e+01 0.0000000000e+00 0.0000e+00 -1.0000e+00
</event>
<event>
 8      4 +3.7482383e-04 9.11880000e+01 7.81616400e-03 1.18400000e-01
      -11 -1    0    0    0    0 +0.0000000000e+00 +0.0000000000e+00 +4.5593999997e+01 4.5594000000e+01 5.1100000000e-04 0.0000e+00 1.0000e+00
       11 -1    0    0    0    0 -0.0000000000e+00 -0.0000000000e+00 -4.5593999997e+01 4.5594000000e+01 5.1100000000e-04 0.0000e+00 -1.0000e+00
       23  2    1    2    0    0 +0.0000000000e+00 +0.0000000000e+00 +0.0000000000e+00 9.1188000000e+01 9.1188000000e+01 1.4491e-14 0.0000e+00
 -9990012  2    3    3    0    0 +1.6831009479e+01 -6.6238646924e+00 +3.9452061202e+01 4.7787267326e+01 1.9999983046e+01 3.1762e-01 0.0000e+00
      -11  1    4    4    0    0 +5.8123063053e+00 -4.9047565095e+00 +2.8062650978e+01 2.9074936305e+01 5.1100000000e-04 0.0000e+00 1.0000e+00
       11  1    4    4    0    0 +6.3564823515e+00 +3.9466701462e+00 +5.1805989970e+00 9.1005318173e+00 5.1100000000e-04 0.0000e+00 -1.0000e+00
      -12  1    4    4    0    0 +4.6622208223e+00 -5.6657783291e+00 +6.2088112273e+00 9.6117992034e+00 0.0000000000e+00 0.0000e+00 1.0000e+00
       12  1    3    3    0    0 -1.6831009479e+01 +6.6238646924e+00 -3.9452061202e+01 4.3400732674e+01 0.0000000000e+00 0.0000e+00 -1.0000e+00
</event>
<event>
 8      4 +3.7482383e-04 9.11880000e+01 7.81616400e-03 1.18400000e-01
      -11 -1    0    0    0    0 +0.0000000000e+00 +0.0000000000e+00 +4.5593999997e+01 4.5594000000e+01 5.1100000000e-04 0.0000e+00 1.0000e+00
       11 -1    0    0    0    0 -0.0000000000e+00 -0.0000000000e+00 -4.5593999997e+01 4.5594000000e+01 5.1100000000e-04 0.0000e+00 -1.0000e+00
       23  2    1    2    0    0 -3.5527136788e-15 +3.5527136788e-15 +3.5527136788e-15 9.1188000000e+01 9.1188000000e+01 6.3573e-14 0.0000e+00
 -9990012  2    3    3    0    0 -2.1996670580e+01 +2.5309183523e+01 +2.7553855422e+01 4.7787271483e+01 2.0000001998e+01 2.3918e-01 0.0000e+00
      -11  1    4    4    0    0 -2.7588738502e+00 +9.8412952332e+00 +9.9985434511e+00 1.4298019030e+01 5.1100000000e-04 0.0000e+00 1.0000e+00
       11  1    4    4    0    0 +2.8188204124e-01 -2.1836803579e+00 +1.3816072285e+00 2.5993761147e+00 5.1100000000e-04 0.0000e+00 -1.0000e+00
      -12  1    4    4    0    0 -1.9519678771e+01 +1.7651568648e+01 +1.6173704743e+01 3.0889876338e+01 0.0000000000e+00 0.0000e+00 1.0000e+00
       12  1    3    3    0    0 +2.1996670580e+01 -2.5309183523e+01 -2.7553855422e+01 4.3400728517e+01 0.0000000000e+00 0.0000e+00 -1.0000e+00
</event>
<event>
 8      4 +3.7482383e-04 9.11880000e+01 7.81616400e-03 1.18400000e-01
      -11 -1    0    0    0    0 +0.0000000000e+00 +0.0000000000e+00 +4.5593999997e+01 4.5594000000e+01 5.1100000000e-04 0.0000e+00 1.0000e+00
       11 -1    0    0    0    0 -0.0000000000e+00 -0.0000000000e+00 -4.5593999997e+01 4.5594000000e+01 5.1100000000e-04 0.0000e+00 -1.0000e+00
       23  2    1    2    0    0 +6.6613381478e-16 -3.5527136788e-15 +7.1054273576e-15 9.1188000000e+01 9.1188000000e+01 6.6147e-14 0.0000e+00
 -9990012  2    3    3    0    0 +1.2254697486e+00 -2.4229091203e+01 +3.5987117055e+01 4.7787271543e+01 2.0000002275e+01 4.0943e-01 0.0000e+00
      -11  1    4    4    0    0 +5.4480137903e+00 -1.9916770253e+01 +2.9593993529e+01 3.6085496323e+01 5.1100000000e-04 0.0000e+00 1.0000e+00
       11  1    4    4    0    0 -5.4805934891e+00 -5.6856298241e+00 +5.5802919183e+00 9.6696923242e+00 5.1100000000e-04 0.0000e+00 -1.0000e+00
      -12  1    4    4    0    0 +1.2580494474e+00 +1.3733088743e+00 +8.1283160752e-01 2.0320828966e+00 0.0000000000e+00 0.0000e+00 1.0000e+00
       12  1    3    3    0    0 -1.2254697486e+00 +2.4229091203e+01 -3.5987117055e+01 4.3400728457e+01 0.0000000000e+00 0.0000e+00 -1.0000e+00
</event>
<event>
 8      4 +3.7482383e-04 9.11880000e+01 7.81616400e-03 1.18400000e-01
      -11 -1    0    0    0    0 +0.0000000000e+00 +0.0000000000e+00 +4.5593999997e+01 4.5594000000e+01 5.1100000000e-04 0.0000e+00 1.0000e+00
       11 -1    0    0    0    0 -0.0000000000e+00 -0.0000000000e+00 -4.5593999997e+01 4.5594000000e+01 5.1100000000e-04 0.0000e+00 -1.0000e+00
       23  2    1    2    0    0 -1.1102230246e-16 -3.5527136788e-15 +7.1054273576e-15 9.1188000000e+01 9.1188000000e+01 3.8468e-14 0.0000e+00
 -9990012  2    3    3    0    0 -4.8362802742e-01 -2.1145705154e+01 +3.7897867121e+01 4.7787273338e+01 2.0000010456e+01 2.1986e-01 0.0000e+00
      -11  1    4    4    0    0 -9.6318409634e-01 -1.7779817995e+01 +1.6728268734e+01 2.4431222373e+01 5.1100000000e-04 0.0000e+00 1.0000e+00
       11  1    4    4    0    0 +2.0922106755e+00 -4.6131215459e+00 +5.2091042678e+00 7.2658793991e+00 5.1100000000e-04 0.0000e+00 -1.0000e+00
      -12  1    4    4    0    0 -1.6126546065e+00 +1.2472343870e+00 +1.5960494118e+01 1.6090171565e+01 0.0000000000e+00 0.0000e+00 1.0000e+00
       12  1    3    3    0    0 +4.8362802742e-01 +2.1145705154e+01 -3.7897867121e+01 4.3400726662e+01 0.0000000000e+00 0.0000e+00 -1.0000e+00
</event>
<event>
 8      4 +3.7482383e-04 9.11880000e+01 7.81616400e-03 1.18400000e-01
      -11 -1    0    0    0    0 +0.0000000000e+00 +0.0000000000e+00 +4.5593999997e+01 4.5594000000e+01 5.1100000000e-04 0.0000e+00 1.0000e+00
       11 -1    0    0    0    0 -0.0000000000e+00 -0.0000000000e+00 -4.5593999997e+01 4.5594000000e+01 5.1100000000e-04 0.0000e+00 -1.0000e+00
       23  2    1    2    0    0 -3.5527136788e-15 +3.5527136788e-15 +3.5527136788e-15 9.1188000000e+01 9.1188000000e+01 4.2228e-14 0.0000e+00
 -9990012  2    3    3    0    0 -3.0602217585e+01 +1.9735728463e+01 +2.3614158799e+01 4.7787271955e+01 2.0000004150e+01 8.5271e-02 0.0000e+00
      -11  1    4    4    0    0 -2.7223650691e+01 +1.3069093353e+01 +1.6942860936e+01 3.4626419032e+01 5.1100000000e-04 0.0000e+00 1.0000e+00
       11  1    4    4    0    0 -8.6312144687e-01 +8.2998932944e+00 +4.8355579610e+00 9.6444713897e+00 5.1100000000e-04 0.0000e+00 -1.0000e+00
      -12  1    4    4    0    0 -2.5154454476e+00 -1.6332581850e+00 +1.8357399021e+00 3.5163815332e+00 0.0000000000e+00 0.0000e+00 1.0000e+00
       12  1    3    3    0    0 +3.0602217585e+01 -1.9735728463e+01 -2.3614158799e+01 4.3400728045e+01 0.0000000000e+00 0.0000e+00 -1.0000e+00
</event>
<event>
 8      4 +3.7482383e-04 9.11880000e+01 7.81616400e-03 1.18400000e-01
      -11 -1    0    0    0    0 +0.0000000000e+00 +0.0000000000e+00 +4.5593999997e+01 4.5594000000e+01 5.1100000000e-04 0.0000e+00 -1.0000e+00
       11 -1    0    0    0    0 -0.0000000000e+00 -0.0000000000e+00 -4.5593999997e+01 4.5594000000e+01 5.1100000000e-04 0.0000e+00 1.0000e+00
       23  2    1    2    0    0 +1.7763568394e-15 +0.0000000000e+00 +0.0000000000e+00 9.1188000000e+01 9.1188000000e+01 2.6579e-14 0.0000e+00
 -9990012  2    3    3    0    0 +1.4045020399e+01 -2.5363186868e+01 -3.2296591405e+01 4.7787266567e+01 1.9999979586e+01 5.1669e-01 0.0000e+00
      -11  1    4    4    0    0 +3.6831169171e+00 -7.5605102984e+00 -1.2398708102e+01 1.4981809939e+01 5.1100000000e-04 0.0000e+00 1.0000e+00
       11  1    4    4    0    0 -2.9596380333e+00 +7.0893606826e-01 -3.9018727836e+00 4.9483996522e+00 5.1100000000e-04 0.0000e+00 -1.0000e+00
      -12  1    4    4    0    0 +1.3321541515e+01 -1.8511612638e+01 -1.5996010520e+01 2.7857056976e+01 0.0000000000e+00 0.0000e+00 1.0000e+00
       12  1    3    3    0    0 -1.4045020399e+01 +2.5363186868e+01 +3.2296591405e+01 4.3400733433e+01 0.0000000000e+00 0.0000e+00 -1.0000e+00
</event>
<event>
 8      4 +3.7482383e-04 9.11880000e+01 7.81616400e-03 1.18400000e-01
      -11 -1    0    0    0    0 +0.0000000000e+00 +0.0000000000e+00 +4.5593999997e+01 4.5594000000e+01 5.1100000000e-04 0.0000e+00 -1.0000e+00
       11 -1    0    0    0    0 -0.0000000000e+00 -0.0000000000e+00 -4.5593999997e+01 4.5594000000e+01 5.1100000000e-04 0.0000e+00 1.0000e+00
       23  2    1    2    0    0 +0.0000000000e+00 +0.0000000000e+00 +0.0000000000e+00 9.1188000000e+01 9.1188000000e+01 2.3143e-13 0.0000e+00
 -9990012  2    3    3    0    0 -1.0818585819e+01 +2.6495878512e+01 -3.2627443022e+01 4.7787269413e+01 1.9999992563e+01 1.4974e-01 0.0000e+00
      -11  1    4    4    0    0 -7.6596160180e-01 +5.0299733169e+00 -1.6962988431e+01 1.7709610541e+01 5.1100000000e-04 0.0000e+00 1.0000e+00
       11  1    4    4    0    0 -8.7231695852e+00 +1.3236465066e+01 -1.4816456510e+01 2.1698504069e+01 5.1100000000e-04 0.0000e+00 -1.0000e+00
      -12  1    4    4    0    0 -1.3294546323e+00 +8.2294401297e+00 -8.4799808094e-01 8.3791548031e+00 0.0000000000e+00 0.0000e+00 1.0000e+00
       12  1    3    3    0    0 +1.0818585819e+01 -2.6495878512e+01 +3.2627443022e+01 4.3400730587e+01 0.0000000000e+00 0.0000e+00 -1.0000e+00
</event>
<event>
 8      3 +3.7482383e-04 9.11880000e+01 7.81616400e-03 1.18400000e-01
      -11 -1    0    0    0    0 +0.0000000000e+00 +0.0000000000e+00 +4.5593999997e+01 4.5594000000e+01 5.1100000000e-04 0.0000e+00 -1.0000e+00
       11 -1    0    0    0    0 -0.0000000000e+00 -0.0000000000e+00 -4.5593999997e+01 4.5594000000e+01 5.1100000000e-04 0.0000e+00 1.0000e+00
       23  2    1    2    0    0 +7.1054273576e-15 +0.0000000000e+00 +0.0000000000e+00 9.1188000000e+01 9.1188000000e+01 1.0225e-14 0.0000e+00
  9990012  2    3    3    0    0 -3.7698874963e+01 -4.6670322783e+00 +2.0991336388e+01 4.7787279186e+01 2.0000037122e+01 7.5236e-01 0.0000e+00
      -11  1    4    4    0    0 -4.6763714310e+00 +3.3171862848e+00 +7.0303002352e+00 9.0717857265e+00 5.1100000000e-04 0.0000e+00 1.0000e+00
       11  1    4    4    0    0 -2.9304345740e+01 -1.1001944665e+01 +1.1660886061e+01 3.3403049705e+01 5.1100000000e-04 0.0000e+00 -1.0000e+00
       12  1    4    4    0    0 -3.7181577925e+00 +3.0177261020e+00 +2.3001500922e+00 5.3124437544e+00 0.0000000000e+00 0.0000e+00 -1.0000e+00
      -12  1    3    3    0    0 +3.7698874963e+01 +4.6670322783e+00 -2.0991336388e+01 4.3400720814e+01 0.0000000000e+00 0.0000e+00 1.0000e+00
</event>
<event>
 8      3 +3.7482383e-04 9.11880000e+01 7.81616400e-03 1.18400000e-01
      -11 -1    0    0    0    0 +0.0000000000e+00 +0.0000000000e+00 +4.5593999997e+01 4.5594000000e+01 5.1100000000e-04 0.0000e+00 -1.0000e+00
       11 -1    0    0    0    0 -0.0000000000e+00 -0.0000000000e+00 -4.5593999997e+01 4.5594000000e+01 5.1100000000e-04 0.0000e+00 1.0000e+00
       23  2    1    2    0    0 +0.0000000000e+00 +0.0000000000e+00 +0.0000000000e+00 9.1188000000e+01 9.1188000000e+01 6.9515e-14 0.0000e+00
  9990012  2    3    3    0    0 +2.0371224658e+01 -3.1206084923e+01 +2.2244479195e+01 4.7787269765e+01 1.9999994166e+01 1.3656e-01 0.0000e+00
      -11  1    4    4    0    0 -7.4836955277e-02 +1.1790063325e+00 +1.0117343651e-01 1.1857035158e+00 5.1100000000e-04 0.0000e+00 1.0000e+00
       11  1    4    4    0    0 +1.7379182570e+01 -2.7885552808e+01 +2.4171327919e+01 4.0790846226e+01 5.1100000000e-04 0.0000e+00 -1.0000e+00
       12  1    4    4    0    0 +3.0668790433e+00 -4.4995384472e+00 -2.0280221603e+00 5.8107200230e+00 0.0000000000e+00 0.0000e+00 -1.0000e+00
      -12  1    3    3    0    0 -2.0371224658e+01 +3.1206084923e+01 -2.2244479195e+01 4.3400730235e+01 0.0000000000e+00 0.0000e+00 1.0000e+00
</event>
<event>
 8      4 +3.7482383e-04 9.11880000e+01 7.81616400e-03 1.18400000e-01
      -11 -1    0    0    0    0 +0.0000000000e+00 +0.0000000000e+00 +4.5593999997e+01 4.5594000000e+01 5.1100000000e-04 0.0000e+00 1.0000e+00
       11 -1    0    0    0    0 -0.0000000000e+00 -0.0000000000e+00 -4.5593999997e+01 4.5594000000e+01 5.1100000000e-04 0.0000e+00 -1.0000e+00
       23  2    1    2    0    0 +0.0000000000e+00 -1.7763568394e-15 +0.0000000000e+00 9.1188000000e+01 9.1188000000e+01 1.1485e-14 0.0000e+00
 -9990012  2    3    3    0    0 -3.1718839549e+01 -1.5413305538e+01 +2.5297596412e+01 4.7787272424e+01 2.0000006288e+01 9.9618e-02 0.0000e+00
      -11  1    4    4    0    0 -2.4211307171e+01 -6.6830114359e+00 +8.7419204103e+00 2.6594571053e+01 5.1100000000e-04 0.0000e+00 1.0000e+00
       11  1    4    4    0    0 -3.8911751139e+00 -8.1394961139e+00 +8.7418379125e+00 1.2562339396e+01 5.1100000000e-04 0.0000e+00 -1.0000e+00
      -12  1    4    4    0    0 -3.6163572643e+00 -5.9079798859e-01 +7.8138380892e+00 8.6303619744e+00 0.0000000000e+00 0.0000e+00 1.0000e+00
       12  1    3    3    0    0 +3.1718839549e+01 +1.5413305538e+01 -2.5297596412e+01 4.3400727576e+01 0.0000000000e+00 0.0000e+00 -1.0000e+00
</event>
<event>
 8      3 +3.7482383e-04 9.11880000e+01 7.81616400e-03 1.18400000e-01
      -11 -1    0    0    0    0 +0.0000000000e+00 +0.0000000000e+00 +4.5593999997e+01 4.5594000000e+01 5.1100000000e-04 0.0000e+00 1.0000e+00
       11 -1    0    0    0    0 -0.0000000000e+00 -0.0000000000e+00 -4.5593999997e+01 4.5594000000e+01 5.1100000000e-04 0.0000e+00 -1.0000e+00
       23  2    1    2    0    0 +0.0000000000e+00 +0.0000000000e+00 +1.7763568394e-15 9.1188000000e+01 9.1188000000e+01 7.3825e-14 0.0000e+00
  9990012  2    3    3    0    0 -2.0224654454e+01 -3.5014167102e+01 +1.5766889305e+01 4.7787270236e+01 1.9999996315e+01 1.0614e-01 0.0000e+00
      -11  1    4    4    0    0 -3.1950176062e+00 -7.0009447877e-01 -1.7399299733e+00 3.7048112443e+00 5.1100000000e-04 0.0000e+00 1.0000e+00
       11  1    4    4    0    0 -1.6700960292e+01 -2.1650358784e+01 +8.8531150047e+00 2.8740872564e+01 5.1100000000e-04 0.0000e+00 -1.0000e+00
       12  1    4    4    0    0 -3.2867655592e-01 -1.2663713839e+01 +8.6537042738e+00 1.5341586428e+01 0.0000000000e+00 0.0000e+00 -1.0000e+00
      -12  1    3    3    0    0 +2.0224654454e+01 +3.5014167102e+01 -1.5766889305e+01 4.3400729764e+01 0.0000000000e+00 0.0000e+00 1.0000e+00
</event>
<event>
 8      3 +3.7482383e-04 9.11880000e+01 7.81616400e-03 1.18400000e-01
      -11 -1    0    0    0    0 +0.0000000000e+00 +0.0000000000e+00 +4.5593999997e+01 4.5594000000e+01 5.1100000000e-04 0.0000e+00 1.0000e+00
       11 -1    0    0    0    0 -0.0000000000e+00 -0.0000000000e+00 -4.5593999997e+01 4.5594000000e+01 5.1100000000e-04 0.0000e+00 -1.0000e+00
       23  2    1    2    0    0 +0.0000000000e+00 +3.5527136788e-15 +0.0000000000e+00 9.1188000000e+01 9.1188000000e+01 5.0333e-14 0.0000e+00
  9990012  2    3    3    0    0 +2.2957162301e+01 -2.9293898270e+01 -2.2326190351e+01 4.7787279357e+01 2.0000037899e+01 1.1949e-01 0.0000e+00
      -11  1    4    4    0    0 +8.3968465344e+00 -3.7125786311e+00 -5.8803966075e+00 1.0902721511e+01 5.1100000000e-04 0.0000e+00 1.0000e+00
       11  1    4    4    0    0 +1.6751409494e+00 -6.5988500675e+00 +2.3743807329e+00 7.2103123052e+00 5.1100000000e-04 0.0000e+00 -1.0000e+00
       12  1    4    4    0    0 +1.2885174817e+01 -1.8982469572e+01 -1.8820174476e+01 2.9674245541e+01 0.0000000000e+00 0.0000e+00 -1.0000e+00
      -12  1    3    3    0    0 -2.2957162301e+01 +2.9293898270e+01 +2.2326190351e+01 4.3400720643e+01 0.0000000000e+00 0.0000e+00 1.0000e+00
</event>
<event>
 8      4 +3.7482383e-04 9.11880000e+01 7.81616400e-03 1.18400000e-01
      -11 -1    0    0    0    0 +0.0000000000e+00 +0.0000000000e+00 +4.5593999997e+01 4.5594000000e+01 5.1100000000e-04 0.0000e+00 -1.0000e+00
       11 -1    0    0    0    0 -0.0000000000e+00 -0.0000000000e+00 -4.5593999997e+01 4.5594000000e+01 5.1100000000e-04 0.0000e+00 1.0000e+00
       23  2    1    2    0    0 +0.0000000000e+00 +0.0000000000e+00 +0.0000000000e+00 9.1188000000e+01 9.1188000000e+01 1.3085e-14 0.0000e+00
 -9990012  2    3    3    0    0 -9.1547255086e+00 -8.9314132144e+00 -4.1473412372e+01 4.7787273337e+01 2.0000010450e+01 1.6722e-02 0.0000e+00
      -11  1    4    4    0    0 -1.3583464585e+00 +2.5715662569e+00 -2.7812006106e+00 4.0240694840e+00 5.1100000000e-04 0.0000e+00 1.0000e+00
       11  1    4    4    0    0 -6.4168987107e+00 +1.6951191769e+00 -1.7967410585e+01 1.9154056006e+01 5.1100000000e-04 0.0000e+00 -1.0000e+00
      -12  1    4    4    0    0 -1.3794803394e+00 -1.3198098648e+01 -2.0724801176e+01 2.4609147847e+01 0.0000000000e+00 0.0000e+00 1.0000e+00
       12  1    3    3    0    0 +9.1547255086e+00 +8.9314132144e+00 +4.1473412372e+01 4.3400726663e+01 0.0000000000e+00 0.0000e+00 -1.0000e+00
</event>
<event>
 8      3 +3.7482383e-04 9.11880000e+01 7.81616400e-03 1.18400000e-01
      -11 -1    0    0    0    0 +0.0000000000e+00 +0.0000000000e+00 +4.5593999997e+01 4.5594000000e+01 5.1100000000e-04 0.0000e+00 1.0000e+00
       11 -1    0    0    0    0 -0.0000000000e+00 -0.0000000000e+00 -4.5593999997e+01 4.5594000000e+01 5.1100000000e-04 0.0000e+00 -1.0000e+00
       23  2    1    2    0    0 +0.0000000000e+00 +3.5527136788e-15 +0.0000000000e+00 9.1188000000e+01 9.1188000000e+01 4.6722e-14 0.0000e+00
  9990012  2    3    3    0    0 -1.4168077498e+01 -2.6568032753e+01 -3.1257459682e+01 4.7787267632e+01 1.9999984440e+01 2.3327e-01 0.0000e+00
      -11  1    4    4    0    0 -4.2084049035e+00 -5.1530843110e+00 -2.0558341716e+00 6.9635769652e+00 5.1100000000e-04 0.0000e+00 1.0000e+00
       11  1    4    4    0    0 -5.9853848789e+00 -7.1396768623e+00 -2.2897354155e+01 2.4720207228e+01 5.1100000000e-04 0.0000e+00 -1.0000e+00
       12  1    4    4    0    0 -3.9742877152e+00 -1.4275271580e+01 -6.3042713553e+00 1.6103483438e+01 0.0000000000e+00 0.0000e+00 -1.0000e+00
      -12  1    3    3    0    0 +1.4168077498e+01 +2.6568032753e+01 +3.1257459682e+01 4.3400732368e+01 0.0000000000e+00 0.0000e+00 1.0000e+00
</event>
<event>
 8      4 +3.7482383e-04 9.11880000e+01 7.81616400e-03 1.18400000e-01
      -11 -1    0    0    0    0 +0.0000000000e+00 +0.0000000000e+00 +4.5593999997e+01 4.5594000000e+01 5.1100000000e-04 0.0000e+00 -1.0000e+00
       11 -1    0    0    0    0 -0.0000000000e+00 -0.0000000000e+00 -4.5593999997e+01 4.5594000000e+01 5.1100000000e-04 0.0000e+00 1.0000e+00
       23  2    1    2    0    0 -1.7763568394e-15 +0.0000000000e+00 +0.0000000000e+00 9.1188000000e+01 9.1188000000e+01 1.2901e-13 0.0000e+00
 -9990012  2    3    3    0    0 -1.2851205367e+01 +3.7780376834e+01 -1.7062019123e+01 4.7787275932e+01 2.0000022282e+01 5.5870e-01 0.0000e+00
      -11  1    4    4    0    0 -5.3761879383e+00 +7.5380593184e+00 -3.8972031198e+00 1.0045592439e+01 5.1100000000e-04 0.0000e+00 1.0000e+00
       11  1    4    4    0    0 -2.2288127296e+00 +1.8742516483e+01 +8.1841795926e-01 1.8892308978e+01 5.1100000000e-04 0.0000e+00 -1.0000e+00
      -12  1    4    4    0    0 -5.2462046987e+00 +1.1499801033e+01 -1.3983233963e+01 1.8849374515e+01 0.0000000000e+00 0.0000e+00 1.0000e+00
       12  1    3    3    0    0 +1.2851205367e+01 -3.7780376834e+01 +1.7062019123e+01 4.3400724068e+01 0.0000000000e+00 0.0000e+00 -1.0000e+00
</event>
<event>
 8      4 +3.7482383e-04 9.11880000e+01 7.81616400e-03 1.18400000e-01
      -11 -1    0    0    0    0 +0.0000000000e+00 +0.0000000000e+00 +4.5593999997e+01 4.5594000000e+01 5.1100000000e-04 0.0000e+00 -1.0000e+00
       11 -1    0    0    0    0 -0.0000000000e+00 -0.0000000000e+00 -4.5593999997e+01 4.5594000000e+01 5.1100000000e-04 0.0000e+00 1.0000e+00
       23  2    1    2    0    0 -3.5527136788e-15 +0.0000000000e+00 -1.7763568394e-15 9.1188000000e+01 9.1188000000e+01 1.6661e-14 0.0000e+00
 -9990012  2    3    3    0    0 +3.0157381152e+01 -2.8989290491e+01 -1.1566193571e+01 4.7787269190e+01 1.9999991545e+01 9.6915e-02 0.0000e+00
      -11  1    4    4    0    0 +1.6929223474e+01 -2.3197093388e+01 -4.6016135701e+00 2.9083992105e+01 5.1100000000e-04 0.0000e+00 1.0000e+00
       11  1    4    4    0    0 +3.1566933786e+00 -6.3500900891e+00 -4.2102092235e+00 8.2470733714e+00 5.1100000000e-04 0.0000e+00 -1.0000e+00
      -12  1    4    4    0    0 +1.0071464299e+01 +5.5789298568e-01 -2.7543707772e+00 1.0456203713e+01 0.0000000000e+00 0.0000e+00 1.0000e+00
       12  1    3    3    0    0 -3.0157381152e+01 +2.8989290491e+01 +1.1566193571e+01 4.3400730810e+01 0.0000000000e+00 0.0000e+00 -1.0000e+00
</event>
<event>
 8      4 +3.7482383e-04 9.11880000e+01 7.81616400e-03 1.18400000e-01
      -11 -1    0    0    0    0 +0.0000000000e+00 +0.0000000000e+00 +4.5593999997e+01 4.5594000000e+01 5.1100000000e-04 0.0000e+00 -1.0000e+00
       11 -1    0    0    0    0 -0.0000000000e+00 -0.0000000000e+00 -4.5593999997e+01 4.5594000000e+01 5.1100000000e-04 0.0000e+00 1.0000e+00
       23  2    1    2    0    0 -2.2204460493e-16 +7.1054273576e-15 +0.0000000000e+00 9.1188000000e+01 9.1188000000e+01 1.0644e-13 0.0000e+00
 -9990012  2    3    3    0    0 -9.5141310884e-01 -4.0381157648e+01 -1.5877029505e+01 4.7787272520e+01 2.0000006726e+01 5.2743e-03 0.0000e+00
      -11  1    4    4    0    0 +2.3412088408e+00 -2.4709744202e+01 -1.2301664149e+01 2.7701690534e+01 5.1100000000e-04 0.0000e+00 1.0000e+00
       11  1    4    4    0    0 +4.2715429088e+00 -7.4851909888e+00 -1.4772518948e+00 8.7439371213e+00 5.1100000000e-04 0.0000e+00 -1.0000e+00
      -12  1    4    4    0    0 -7.5641648584e+00 -8.1862224578e+00 -2.0981134620e+00 1.1341644865e+01 0.0000000000e+00 0.0000e+00 1.0000e+00
       12  1    3    3    0    0 +9.5141310884e-01 +4.0381157648e+01 +1.5877029505e+01 4.3400727480e+01 0.0000000000e+00 0.0000e+00 -1.0000e+00
</event>
<event>
 8      3 +3.7482383e-04 9.11880000e+01 7.81616400e-03 1.18400000e-01
      -11 -1    0    0    0    0 +0.0000000000e+00 +0.0000000000e+00 +4.5593999997e+01 4.5594000000e+01 5.1100000000e-04 0.0000e+00 -1.0000e+00
       11 -1    0    0    0    0 -0.0000000000e+00 -0.0000000000e+00 -4.5593999997e+01 4.5594000000e+01 5.1100000000e-04 0.0000e+00 1.0000e+00
       23  2    1    2    0    0 +0.0000000000e+00 +0.0000000000e+00 +1.7763568394e-15 9.1188000000e+01 9.1188000000e+01 2.8179e-14 0.0000e+00
  9990012  2    3    3    0    0 -2.7747578920e+01 -3.2145324168e+01 +8.9651353054e+00 4.7787266679e+01 1.9999980096e+01 3.1958e-02 0.0000e+00
      -11  1    4    4    0    0 -2.4667695767e-01 -4.9987566045e+00 -2.7979789292e+00 5.7338558982e+00 5.1100000000e-04 0.0000e+00 1.0000e+00
       11  1    4    4    0    0 -3.4090469044e+00 -6.3948680122e+00 +6.6738002817e+00 9.8516774283e+00 5.1100000000e-04 0.0000e+00 -1.0000e+00
       12  1    4    4    0    0 -2.4091855057e+01 -2.0751699551e+01 +5.0893139528e+00 3.2201733352e+01 0.0000000000e+00 0.0000e+00 -1.0000e+00
      -12  1    3    3    0    0 +2.7747578920e+01 +3.2145324168e+01 -8.9651353054e+00 4.3400733321e+01 0.0000000000e+00 0.0000e+00 1.0000e+00
</event>
<event>
 8      3 +3.7482383e-04 9.11880000e+01 7.81616400e-03 1.18400000e-01
      -11 -1    0    0    0    0 +0.0000000000e+00 +0.0000000000e+00 +4.5593999997e+01 4.5594000000e+01 5.1100000000e-04 0.0000e+00 -1.0000e+00
       11 -1    0    0    0    0 -0.0000000000e+00 -0.0000000000e+00 -4.5593999997e+01 4.5594000000e+01 5.1100000000e-04 0.0000e+00 1.0000e+00
       23  2    1    2    0    0 -3.5527136788e-15 +3.5527136788e-15 +0.0000000000e+00 9.1188000000e+01 9.1188000000e+01 1.5557e-13 0.0000e+00
  9990012  2    3    3    0    0 -2.6444177125e+01 +2.9391405011e+01 +1.7901802134e+01 4.7787265997e+01 1.9999976988e+01 1.5845e-01 0.0000e+00
      -11  1    4    4    0    0 -4.0711962366e+00 -2.4765321185e+00 +2.5728539290e+00 5.4154803787e+00 5.1100000000e-04 0.0000e+00 1.0000e+00
       11  1    4    4    0    0 -1.9821344634e+01 +2.8759805516e+01 +1.1380183050e+01 3.6735822883e+01 5.1100000000e-04 0.0000e+00 -1.0000e+00
       12  1    4    4    0    0 -2.5516362542e+00 +3.1081316140e+00 +3.9487651548e+00 5.6359627351e+00 0.0000000000e+00 0.0000e+00 -1.0000e+00
      -12  1    3    3    0    0 +2.6444177125e+01 -2.9391405011e+01 -1.7901802134e+01 4.3400734003e+01 0.0000000000e+00 0.0000e+00 1.0000e+00
</event>
<event>
 8      3 +3.7482383e-04 9.11880000e+01 7.81616400e-03 1.18400000e-01
      -11 -1    0    0    0    0 +0.0000000000e+00 +0.0000000000e+00 +4.5593999997e+01 4.5594000000e+01 5.1100000000e-04 0.0000e+00 1.0000e+00
       11 -1    0    0    0    0 -0.0000000000e+00 -0.0000000000e+00 -4.5593999997e+01 4.5594000000e+01 5.1100000000e-04 0.0000e+00 -1.0000e+00
       23  2    1    2    0    0 -1.7763568394e-15 +0.0000000000e+00 -3.5527136788e-15 9.1188000000e+01 9.1188000000e+01 2.5721e-14 0.0000e+00
  9990012  2    3    3    0    0 +1.5856596492e+01 -3.3991732560e+01 -2.1834703910e+01 4.7787264643e+01 1.9999970811e+01 3.8958e-01 0.0000e+00
      -11  1    4    4    0    0 -1.7830660920e+00 -6.5483992464e+00 -1.9000998516e+00 7.0477824232e+00 5.1100000000e-04 0.0000e+00 1.0000e+00
       11  1    4    4    0    0 +1.8433498579e+01 -2.5178049378e+01 -1.3739253239e+01 3.4095382682e+01 5.1100000000e-04 0.0000e+00 -1.0000e+00
       12  1    4    4    0    0 -7.9383599505e-01 -2.2652839347e+00 -6.1953508194e+00 6.6440995377e+00 0.0000000000e+00 0.0000e+00 -1.0000e+00
      -12  1    3    3    0    0 -1.5856596492e+01 +3.3991732560e+01 +2.1834703910e+01 4.3400735357e+01 0.0000000000e+00 0.0000e+00 1.0000e+00
</event>
<event>
 8      4 +3.7482383e-04 9.11880000e+01 7.81616400e-03 1.18400000e-01
      -11 -1    0    0    0    0 +0.0000000000e+00 +0.0000000000e+00 +4.5593999997e+01 4.5594000000e+01 5.1100000000e-04 0.0000e+00 1.0000e+00
       11 -1    0    0    0    0 -0.0000000000e+00 -0.0000000000e+00 -4.5593999997e+01 4.5594000000e+01 5.1100000000e-04 0.0000e+00 -1.0000e+00
       23  2    1    2    0    0 +7.1054273576e-15 +0.0000000000e+00 +0.0000000000e+00 9.1188000000e+01 9.1188000000e+01 9.0903e-14 0.0000e+00
 -9990012  2    3    3    0    0 -4.1169383980e+01 +8.0796249542e+00 +1.1109677877e+01 4.7787268909e+01 1.9999990263e+01 4.3814e-02 0.0000e+00
      -11  1    4    4    0    0 -5.0015568343e+00 -1.6781970584e+00 -9.5059593079e-02 5.2764526645e+00 5.1100000000e-04 0.0000e+00 1.0000e+00
       11  1    4    4    0    0 +1.2983995557e+00 -9.4769598582e-01 -7.1987784504e-01 1.7613044770e+00 5.1100000000e-04 0.0000e+00 -1.0000e+00
      -12  1    4    4    0    0 -3.7466226702e+01 +1.0705517998e+01 +1.1924615315e+01 4.0749511767e+01 0.0000000000e+00 0.0000e+00 1.0000e+00
       12  1    3    3    0    0 +4.1169383980e+01 -8.0796249542e+00 -1.1109677877e+01 4.3400731091e+01 0.0000000000e+00 0.0000e+00 -1.0000e+00
</event>
<event>
 8      3 +3.7482383e-04 9.11880000e+01 7.81616400e-03 1.18400000e-01
      -11 -1    0    0    0    0 +0.0000000000e+00 +0.0000000000e+00 +4.5593999997e+01 4.5594000000e+01 5.1100000000e-04 0.0000e+00 -1.0000e+00
       11 -1    0    0    0    0 -0.0000000000e+00 -0.0000000000e+00 -4.5593999997e+01 4.5594000000e+01 5.1100000000e-04 0.0000e+00 1.0000e+00
       23  2    1    2    0    0 +0.0000000000e+00 +0.0000000000e+00 +0.0000000000e+00 9.1188000000e+01 9.1188000000e+01 7.0236e-14 0.0000e+00
  9990012  2    3    3    0    0 +1.4909510093e+01 +4.8021868038e+00 +4.0475532852e+01 4.7787271332e+01 2.0000001311e+01 2.4591e-02 0.0000e+00
      -11  1    4    4    0    0 -7.5289299029e-01 +2.9037120834e-01 -1.2202868680e+00 1.4629639759e+00 5.1100000000e-04 0.0000e+00 1.0000e+00
       11  1    4    4    0    0 +1.6351994744e+01 +5.5321795707e+00 +3.0381940600e+01 3.4943598238e+01 5.1100000000e-04 0.0000e+00 -1.0000e+00
       12  1    4    4    0    0 -6.8959166132e-01 -1.0203639752e+00 +1.1313879119e+01 1.1380709118e+01 0.0000000000e+00 0.0000e+00 -1.0000e+00
      -12  1    3    3    0    0 -1.4909510093e+01 -4.8021868038e+00 -4.0475532852e+01 4.3400728668e+01 0.0000000000e+00 0.0000e+00 1.0000e+00
</event>
<event>
 8      3 +3.7482383e-04 9.11880000e+01 7.81616400e-03 1.18400000e-01
      -11 -1    0    0    0    0 +0.0000000000e+00 +0.0000000000e+00 +4.5593999997e+01 4.5594000000e+01 5.1100000000e-04 0.0000e+00 -1.0000e+00
       11 -1    0    0    0    0 -0.0000000000e+00 -0.0000000000e+00 -4.5593999997e+01 4.5594000000e+01 5.1100000000e-04 0.0000e+00 1.0000e+00
       23  2    1    2    0    0 +3.5527136788e-15 +0.0000000000e+00 +0.0000000000e+00 9.1188000000e+01 9.1188000000e+01 2.8319e-14 0.0000e+00
  9990012  2    3    3    0    0 -2.4745621052e+01 -2.4843440386e+01 +2.5575049943e+01 4.7787245732e+01 1.9999884589e+01 2.5519e-02 0.0000e+00
      -11  1    4    4    0    0 -3.4471396136e+00 -1.4482510239e+00 +3.1436258536e+00 4.8849346272e+00 5.1100000000e-04 0.0000e+00 1.0000e+00
       11  1    4    4    0    0 -1.9869274256e+01 -2.6103020583e+01 +2.2599523534e+01 3.9835840737e+01 5.1100000000e-04 0.0000e+00 -1.0000e+00
       12  1    4    4    0    0 -1.4292071822e+00 +2.7078312211e+00 -1.6809944396e-01 3.0664703675e+00 0.0000000000e+00 0.0000e+00 -1.0000e+00
      -12  1    3    3    0    0 +2.4745621052e+01 +2.4843440386e+01 -2.5575049943e+01 4.3400754268e+01 0.0000000000e+00 0.0000e+00 1.0000e+00
</event>
<event>
 8      4 +3.7482383e-04 9.11880000e+01 7.81616400e-03 1.18400000e-01
      -11 -1    0    0    0    0 +0.0000000000e+00 +0.0000000000e+00 +4.5593999997e+01 4.5594000000e+01 5.1100000000e-04 0.0000e+00 -1.0000e+00
       11 -1    0    0    0    0 -0.0000000000e+00 -0.0000000000e+00 -4.5593999997e+01 4.5594000000e+01 5.1100000000e-04 0.0000e+00 1.0000e+00
       23  2    1    2    0    0 +0.0000000000e+00 +0.0000000000e+00 +0.0000000000e+00 9.1188000000e+01 9.1188000000e+01 2.4734e-13 0.0000e+00
 -9990012  2    3    3    0    0 -3.8300999886e+01 +1.6515222940e+01 -1.1996060162e+01 4.7787255300e+01 1.9999928217e+01 1.2377e-03 0.0000e+00
      -11  1    4    4    0    0 -7.3441212999e+00 +6.1989828777e+00 +2.9937066437e+00 1.0066071037e+01 5.1100000000e-04 0.0000e+00 1.0000e+00
       11  1    4    4    0    0 -1.4691342595e+01 -8.6908463793e-01 -8.1910453533e+00 1.6842923725e+01 5.1100000000e-04 0.0000e+00 -1.0000e+00
      -12  1    4    4    0    0 -1.6265535991e+01 +1.1185324700e+01 -6.7987214527e+00 2.0878260539e+01 0.0000000000e+00 0.0000e+00 1.0000e+00
       12  1    3    3    0    0 +3.8300999886e+01 -1.6515222940e+01 +1.1996060162e+01 4.3400744700e+01 0.0000000000e+00 0.0000e+00 -1.0000e+00
</event>
<event>
 8      3 +3.7482383e-04 9.11880000e+01 7.81616400e-03 1.18400000e-01
      -11 -1    0    0    0    0 +0.0000000000e+00 +0.0000000000e+00 +4.5593999997e+01 4.5594000000e+01 5.1100000000e-04 0.0000e+00 1.0000e+00
       11 -1    0    0    0    0 -0.0000000000e+00 -0.0000000000e+00 -4.5593999997e+01 4.5594000000e+01 5.1100000000e-04 0.0000e+00 -1.0000e+00
       23  2    1    2    0    0 -3.5527136788e-15 +0.0000000000e+00 +0.0000000000e+00 9.1188000000e+01 9.1188000000e+01 2.4056e-13 0.0000e+00
  9990012  2    3    3    0    0 +1.9049073079e+01 -3.5216084593e+01 -1.6750618158e+01 4.7787274108e+01 2.0000013970e+01 3.0866e-01 0.0000e+00
      -11  1    4    4    0    0 +3.0452234811e-01 -2.8284859921e-01 -2.8318403132e+00 2.8621769706e+00 5.1100000000e-04 0.0000e+00 1.0000e+00
       11  1    4    4    0    0 +7.8006712225e+00 -3.2697009234e+00 -6.3571459181e+00 1.0580865755e+01 5.1100000000e-04 0.0000e+00 -1.0000e+00
       12  1    4    4    0    0 +1.0943879509e+01 -3.1663535070e+01 -7.5616319267e+00 3.4344231382e+01 0.0000000000e+00 0.0000e+00 -1.0000e+00
      -12  1    3    3    0    0 -1.9049073079e+01 +3.5216084593e+01 +1.6750618158e+01 4.3400725892e+01 0.0000000000e+00 0.0000e+00 1.0000e+00
</event>
<event>
 8      3 +3.7482383e-04 9.11880000e+01 7.81616400e-03 1.18400000e-01
      -11 -1    0    0    0    0 +0.0000000000e+00 +0.0000000000e+00 +4.5593999997e+01 4.5594000000e+01 5.1100000000e-04 0.0000e+00 -1.0000e+00
       11 -1    0    0    0    0 -0.0000000000e+00 -0.0000000000e+00 -4.5593999997e+01 4.5594000000e+01 5.1100000000e-04 0.0000e+00 1.0000e+00
       23  2    1    2    0    0 +3.5527136788e-15 +0.0000000000e+00 +1.7763568394e-15 9.1188000000e+01 9.1188000000e+01 1.2883e-14 0.0000e+00
  9990012  2    3    3    0    0 +2.0935042455e+01 +3.6063611015e+01 +1.2031752703e+01 4.7787272873e+01 2.0000008337e+01 8.9724e-02 0.0000e+00
      -11  1    4    4    0    0 +3.8088457644e+00 +5.2680089344e+00 -3.7593715527e+00 7.5094672862e+00 5.1100000000e-04 0.0000e+00 1.0000e+00
       11  1    4    4    0    0 +2.9863000012e+00 +8.3600134225e+00 +9.5397630241e+00 1.3031304269e+01 5.1100000000e-04 0.0000e+00 -1.0000e+00
       12  1    4    4    0    0 +1.4139896690e+01 +2.2435588658e+01 +6.2513612317e+00 2.7246501318e+01 0.0000000000e+00 0.0000e+00 -1.0000e+00
      -12  1    3    3    0    0 -2.0935042455e+01 -3.6063611015e+01 -1.2031752703e+01 4.3400727127e+01 0.0000000000e+00 0.0000e+00 1.0000e+00
</event>
<event>
 8      4 +3.7482383e-04 9.11880000e+01 7.81616400e-03 1.18400000e-01
      -11 -1    0    0    0    0 +0.0000000000e+00 +0.0000000000e+00 +4.5593999997e+01 4.5594000000e+01 5.1100000000e-04 0.0000e+00 1.0000e+00
       11 -1    0    0    0    0 -0.0000000000e+00 -0.0000000000e+00 -4.5593999997e+01 4.5594000000e+01 5.1100000000e-04 0.0000e+00 -1.0000e+00
       23  2    1    2    0    0 +3.5527136788e-15 +0.0000000000e+00 +0.0000000000e+00 9.1188000000e+01 9.1188000000e+01 6.1462e-14 0.0000e+00
 -9990012  2    3    3    0    0 -1.6973198846e+01 -3.4948020157e+01 +1.9343474101e+01 4.7787267492e+01 1.9999983802e+01 3.1754e-02 0.0000e+00
      -11  1    4    4    0    0 -1.4206782440e+01 -1.1053081772e+01 +6.5203553945e+00 1.9144668153e+01 5.1100000000e-04 0.0000e+00 1.0000e+00
       11  1    4    4    0    0 +2.9313943478e+00 -4.6892509622e+00 +3.5151580255e+00 6.5527462651e+00 5.1100000000e-04 0.0000e+00 -1.0000e+00
      -12  1    4    4    0    0 -5.6978107531e+00 -1.9205687423e+01 +9.3079606812e+00 2.2089853073e+01 0.0000000000e+00 0.0000e+00 1.0000e+00
       12  1    3    3    0    0 +1.6973198846e+01 +3.4948020157e+01 -1.9343474101e+01 4.3400732508e+01 0.0000000000e+00 0.0000e+00 -1.0000e+00
</event>
<event>
 8      3 +3.7482383e-04 9.11880000e+01 7.81616400e-03 1.18400000e-01
      -11 -1    0    0    0    0 +0.0000000000e+00 +0.0000000000e+00 +4.5593999997e+01 4.5594000000e+01 5.1100000000e-04 0.0000e+00 1.0000e+00
       11 -1    0    0    0    0 -0.0000000000e+00 -0.0000000000e+00 -4.5593999997e+01 4.5594000000e+01 5.1100000000e-04 0.0000e+00 -1.0000e+00
       23  2    1    2    0    0 -7.1054273576e-15 +0.0000000000e+00 -3.5527136788e-15 9.1188000000e+01 9.1188000000e+01 8.8668e-15 0.0000e+00
  9990012  2    3    3    0    0 +3.4652751006e+01 +2.3727848693e+00 +2.6022667705e+01 4.7787280020e+01 2.0000040922e+01 3.3790e-01 0.0000e+00
      -11  1    4    4    0    0 +1.3954080309e+01 -5.8496725430e+00 +1.0472558685e+01 1.8401345380e+01 5.1100000000e-04 0.0000e+00 1.0000e+00
       11  1    4    4    0    0 -8.2257866445e-01 -1.0792430568e+00 +2.2318150174e-01 1.3752132485e+00 5.1100000000e-04 0.0000e+00 -1.0000e+00
       12  1    4    4    0    0 +2.1521249361e+01 +9.3017004692e+00 +1.5326927519e+01 2.8010721391e+01 0.0000000000e+00 0.0000e+00 -1.0000e+00
      -12  1    3    3    0    0 -3.4652751006e+01 -2.3727848693e+00 -2.6022667705e+01 4.3400719980e+01 0.0000000000e+00 0.0000e+00 1.0000e+00
</event>
<event>
 8      3 +3.7482383e-04 9.11880000e+01 7.81616400e-03 1.18400000e-01
      -11 -1    0    0    0    0 +0.0000000000e+00 +0.0000000000e+00 +4.5593999997e+01 4.5594000000e+01 5.1100000000e-04 0.0000e+00 1.0000e+00
       11 -1    0    0    0    0 -0.0000000000e+00 -0.0000000000e+00 -4.5593999997e+01 4.5594000000e+01 5.1100000000e-04 0.0000e+00 -1.0000e+00
       23  2    1    2    0    0 +3.5527136788e-15 +0.0000000000e+00 +0.0000000000e+00 9.1188000000e+01 9.1188000000e+01 3.9675e-14 0.0000e+00
  9990012  2    3    3    0    0 +3.0110075798e+01 +2.4177390682e+01 -1.9810618310e+01 4.7787268640e+01 1.9999989036e+01 3.1080e-01 0.0000e+00
      -11  1    4    4    0    0 +5.4435561180e+00 +2.4645921264e+00 -4.6403873335e+00 7.5656931227e+00 5.1100000000e-04 0.0000e+00 -1.0000e+00
       11  1    4    4    0    0 +3.7746322416e-01 -2.7503518613e+00 -1.0314198486e+00 2.9615436872e+00 5.1100000000e-04 0.0000e+00 1.0000e+00
       12  1    4    4    0    0 +2.4289056456e+01 +2.4463150417e+01 -1.4138811128e+01 3.7260031830e+01 0.0000000000e+00 0.0000e+00 -1.0000e+00
      -12  1    3    3    0    0 -3.0110075798e+01 -2.4177390682e+01 +1.9810618310e+01 4.3400731360e+01 0.0000000000e+00 0.0000e+00 1.0000e+00
</event>
<event>
 8      4 +3.7482383e-04 9.11880000e+01 7.81616400e-03 1.18400000e-01
      -11 -1    0    0    0    0 +0.0000000000e+00 +0.0000000000e+00 +4.5593999997e+01 4.5594000000e+01 5.1100000000e-04 0.0000e+00 1.0000e+00
       11 -1    0    0    0    0 -0.0000000000e+00 -0.0000000000e+00 -4.5593999997e+01 4.5594000000e+01 5.1100000000e-04 0.0000e+00 -1.0000e+00
       23  2    1    2    0    0 +3.5527136788e-15 +7.1054273576e-15 +6.6613381478e-16 9.1188000000e+01 9.1188000000e+01 2.4075e-14 0.0000e+00
 -9990012  2    3    3    0    0 +1.8971982218e+01 +3.9025369311e+01 +8.4167837104e-01 4.7787262891e+01 1.9999962824e+01 1.9673e-02 0.0000e+00
      -11  1    4    4    0    0 +1.7752309980e+01 +1.5442793244e+01 -3.3679382635e+00 2.3769042497e+01 5.1100000000e-04 0.0000e+00 1.0000e+00
       11  1    4    4    0    0 +8.7249947711e-01 +1.9377632822e+01 +3.9172336322e+00 1.9788851121e+01 5.1100000000e-04 0.0000e+00 -1.0000e+00
      -12  1    4    4    0    0 +3.4717276099e-01 +4.2049432454e+00 +2.9238300228e-01 4.2293692725e+00 0.0000000000e+00 0.0000e+00 1.0000e+00
       12  1    3    3    0    0 -1.8971982218e+01 -3.9025369311e+01 -8.4167837104e-01 4.3400737109e+01 0.0000000000e+00 0.0000e+00 -1.0000e+00
</event>
<event>
 8      3 +3.7482383e-04 9.11880000e+01 7.81616400e-03 1.18400000e-01
      -11 -1    0    0    0    0 +0.0000000000e+00 +0.0000000000e+00 +4.5593999997e+01 4.5594000000e+01 5.1100000000e-04 0.0000e+00 -1.0000e+00
       11 -1    0    0    0    0 -0.0000000000e+00 -0.0000000000e+00 -4.5593999997e+01 4.5594000000e+01 5.1100000000e-04 0.0000e+00 1.0000e+00
       23  2    1    2    0    0 +2.2204460493e-16 +0.0000000000e+00 -3.5527136788e-15 9.1188000000e+01 9.1188000000e+01 6.4664e-14 0.0000e+00
  9990012  2    3    3    0    0 -1.5724586329e+00 +3.5167108484e+01 +2.5385532020e+01 4.7787269808e+01 1.9999994363e+01 1.8187e-01 0.0000e+00
      -11  1    4    4    0    0 +4.2004988514e-01 +1.1853589585e+01 +1.4079437403e-02 1.1861038169e+01 5.1100000000e-04 0.0000e+00 1.0000e+00
       11  1    4    4    0    0 -2.6776499593e+00 +2.1101533271e+01 +2.5935927210e+01 3.3542761309e+01 5.1100000000e-04 0.0000e+00 -1.0000e+00
       12  1    4    4    0    0 +6.8514144134e-01 +2.2119856269e+00 -5.6447462751e-01 2.3834703299e+00 0.0000000000e+00 0.0000e+00 -1.0000e+00
      -12  1    3    3    0    0 +1.5724586329e+00 -3.5167108484e+01 -2.5385532020e+01 4.3400730192e+01 0.0000000000e+00 0.0000e+00 1.0000e+00
</event>
<event>
 8      3 +3.7482383e-04 9.11880000e+01 7.81616400e-03 1.18400000e-01
      -11 -1    0    0    0    0 +0.0000000000e+00 +0.0000000000e+00 +4.5593999997e+01 4.5594000000e+01 5.1100000000e-04 0.0000e+00 1.0000e+00
       11 -1    0    0    0    0 -0.0000000000e+00 -0.0000000000e+00 -4.5593999997e+01 4.5594000000e+01 5.1100000000e-04 0.0000e+00 -1.0000e+00
       23  2    1    2    0    0 +8.8817841970e-16 -1.7763568394e-15 +7.1054273576e-15 9.1188000000e+01 9.1188000000e+01 2.1626e-13 0.0000e+00
  9990012  2    3    3    0    0 -2.0811363241e+00 +1.5620267367e+01 -4.0438834619e+01 4.7787271591e+01 2.0000002494e+01 1.8021e-01 0.0000e+00
      -11  1    4    4    0    0 -4.6592419781e+00 +2.7893869394e+00 -3.8949423192e+00 6.6827981594e+00 5.1100000000e-04 0.0000e+00 1.0000e+00
       11  1    4    4    0    0 +4.0251978328e+00 +1.4364511480e+01 -2.3113392670e+01 2.7509458894e+01 5.1100000000e-04 0.0000e+00 -1.0000e+00
       12  1    4    4    0    0 -1.4470921788e+00 -1.5336310521e+00 -1.3430499630e+01 1.3595014538e+01 0.0000000000e+00 0.0000e+00 -1.0000e+00
      -12  1    3    3    0    0 +2.0811363241e+00 -1.5620267367e+01 +4.0438834619e+01 4.3400728409e+01 0.0000000000e+00 0.0000e+00 1.0000e+00
</event>
<event>
 8      3 +3.7482383e-04 9.11880000e+01 7.81616400e-03 1.18400000e-01
      -11 -1    0    0    0    0 +0.0000000000e+00 +0.0000000000e+00 +4.5593999997e+01 4.5594000000e+01 5.1100000000e-04 0.0000e+00 1.0000e+00
       11 -1    0    0    0    0 -0.0000000000e+00 -0.0000000000e+00 -4.5593999997e+01 4.5594000000e+01 5.1100000000e-04 0.0000e+00 -1.0000e+00
       23  2    1    2    0    0 -4.4408920985e-16 -8.8817841970e-16 +7.1054273576e-15 9.1188000000e+01 9.1188000000e+01 3.9068e-14 0.0000e+00
  9990012  2    3    3    0    0 +1.5703371109e+00 +7.4787748027e+00 -4.2722658739e+01 4.7787267277e+01 1.9999982821e+01 1.0998e-01 0.0000e+00
      -11  1    4    4    0    0 -1.5278234097e+00 +1.1957215830e+00 -1.6373349330e-01 1.9469985602e+00 5.1100000000e-04 0.0000e+00 1.0000e+00
       11  1    4    4    0    0 +1.8381496931e-01 -1.6705312434e+00 -3.3100875080e+01 3.3143512093e+01 5.1100000000e-04 0.0000e+00 -1.0000e+00
       12  1    4    4    0    0 +2.9143455514e+00 +7.9535844631e+00 -9.4580501660e+00 1.2696756623e+01 0.0000000000e+00 0.0000e+00 -1.0000e+00
      -12  1    3    3    0    0 -1.5703371109e+00 -7.4787748027e+00 +4.2722658739e+01 4.3400732723e+01 0.0000000000e+00 0.0000e+00 1.0000e+00
</event>
<event>
 8      4 +3.7482383e-04 9.11880000e+01 7.81616400e-03 1.18400000e-01
      -11 -1    0    0    0    0 +0.0000000000e+00 +0.0000000000e+00 +4.5593999997e+01 4.5594000000e+01 5.1100000000e-04 0.0000e+00 1.0000e+00
       11 -1    0    0    0    0 -0.0000000000e+00 -0.0000000000e+00 -4.5593999997e+01 4.5594000000e+01 5.1100000000e-04 0.0000e+00 -1.0000e+00
       23  2    1    2    0    0 -3.5527136788e-15 +0.0000000000e+00 +0.0000000000e+00 9.1188000000e+01 9.1188000000e+01 7.1904e-14 0.0000e+00
 -9990012  2    3    3    0    0 +2.6750817059e+01 -9.8503748898e+00 +3.2725940804e+01 4.7787270740e+01 1.9999998611e+01 2.6801e-01 0.0000e+00
      -11  1    4    4    0    0 +7.4375478507e+00 -3.6105711826e+00 +8.7922634994e+00 1.2068854130e+01 5.1100000000e-04 0.0000e+00 1.0000e+00
       11  1    4    4    0    0 -6.2223953226e-01 +3.6681797378e+00 +6.3090530300e+00 7.3244027075e+00 5.1100000000e-04 0.0000e+00 -1.0000e+00
      -12  1    4    4    0    0 +1.9935508740e+01 -9.9079834450e+00 +1.7624624275e+01 2.8394013903e+01 0.0000000000e+00 0.0000e+00 1.0000e+00
       12  1    3    3    0    0 -2.6750817059e+01 +9.8503748898e+00 -3.2725940804e+01 4.3400729260e+01 0.0000000000e+00 0.0000e+00 -1.0000e+00
</event>
<event>
 8      3 +3.7482383e-04 9.11880000e+01 7.81616400e-03 1.18400000e-01
      -11 -1    0    0    0    0 +0.0000000000e+00 +0.0000000000e+00 +4.5593999997e+01 4.5594000000e+01 5.1100000000e-04 0.0000e+00 1.0000e+00
       11 -1    0    0    0    0 -0.0000000000e+00 -0.0000000000e+00 -4.5593999997e+01 4.5594000000e+01 5.1100000000e-04 0.0000e+00 -1.0000e+00
       23  2    1    2    0    0 +0.0000000000e+00 +0.0000000000e+00 +0.0000000000e+00 9.1188000000e+01 9.1188000000e+01 3.1530e-14 0.0000e+00
  9990012  2    3    3    0    0 +1.4422831316e+01 -1.4909533402e+01 -3.8122316286e+01 4.7787271338e+01 2.0000001337e+01 1.0191e-01 0.0000e+00
      -11  1    4    4    0    0 -1.3467820204e+00 +2.7678997014e+00 -1.2727258565e+00 3.3309040717e+00 5.1100000000e-04 0.0000e+00 1.0000e+00
       11  1    4    4    0    0 +1.4522674965e+01 -1.5496990025e+01 -3.6012634902e+01 4.1808786885e+01 5.1100000000e-04 0.0000e+00 -1.0000e+00
       12  1    4    4    0    0 +1.2469383713e+00 -2.1804430779e+00 -8.3695552737e-01 2.6475803808e+00 0.0000000000e+00 0.0000e+00 -1.0000e+00
      -12  1    3    3    0    0 -1.4422831316e+01 +1.4909533402e+01 +3.8122316286e+01 4.3400728662e+01 0.0000000000e+00 0.0000e+00 1.0000e+00
</event>
<event>
 8      3 +3.7482383e-04 9.11880000e+01 7.81616400e-03 1.18400000e-01
      -11 -1    0    0    0    0 +0.0000000000e+00 +0.0000000000e+00 +4.5593999997e+01 4.5594000000e+01 5.1100000000e-04 0.0000e+00 1.0000e+00
       11 -1    0    0    0    0 -0.0000000000e+00 -0.0000000000e+00 -4.5593999997e+01 4.5594000000e+01 5.1100000000e-04 0.0000e+00 -1.0000e+00
       23  2    1    2    0    0 +0.0000000000e+00 +0.0000000000e+00 +7.1054273576e-15 9.1188000000e+01 9.1188000000e+01 1.3992e-14 0.0000e+00
  9990012  2    3    3    0    0 -2.7366777023e+01 -3.6908636230e+00 -3.3482240382e+01 4.7787269823e+01 1.9999994431e+01 6.8400e-01 0.0000e+00
      -11  1    4    4    0    0 -8.6810923018e+00 -1.0161031049e+01 -1.2827655279e+01 1.8524488003e+01 5.1100000000e-04 0.0000e+00 1.0000e+00
       11  1    4    4    0    0 -1.4501465795e+01 +3.1601717945e+00 -1.7918460837e+01 2.3266938668e+01 5.1100000000e-04 0.0000e+00 -1.0000e+00
       12  1    4    4    0    0 -4.1842189267e+00 +3.3099956317e+00 -2.7361242651e+00 5.9958431519e+00 0.0000000000e+00 0.0000e+00 -1.0000e+00
      -12  1    3    3    0    0 +2.7366777023e+01 +3.6908636230e+00 +3.3482240382e+01 4.3400730177e+01 0.0000000000e+00 0.0000e+00 1.0000e+00
</event>
<event>
 8      3 +3.7482383e-04 9.11880000e+01 7.81616400e-03 1.18400000e-01
      -11 -1    0    0    0    0 +0.0000000000e+00 +0.0000000000e+00 +4.5593999997e+01 4.5594000000e+01 5.1100000000e-04 0.0000e+00 1.0000e+00
       11 -1    0    0    0    0 -0.0000000000e+00 -0.0000000000e+00 -4.5593999997e+01 4.5594000000e+01 5.1100000000e-04 0.0000e+00 -1.0000e+00
       23  2    1    2    0    0 +1.7763568394e-15 -1.7763568394e-15 +7.1054273576e-15 9.1188000000e+01 9.1188000000e+01 8.9735e-14 0.0000e+00
  9990012  2    3    3    0    0 -1.3418116323e+01 +6.9314716107e+00 -4.0688228932e+01 4.7787272840e+01 2.0000008188e+01 1.5220e-01 0.0000e+00
      -11  1    4    4    0    0 -2.9239695049e+00 +1.9863921881e+00 -6.2147915289e-01 3.5890929480e+00 5.1100000000e-04 0.0000e+00 1.0000e+00
       11  1    4    4    0    0 -4.6015081278e+00 -3.0998366164e+00 -4.1660195859e+00 6.9381974280e+00 5.1100000000e-04 0.0000e+00 -1.0000e+00
       12  1    4    4    0    0 -5.8926386898e+00 +8.0449160390e+00 -3.5900730194e+01 3.7259982464e+01 0.0000000000e+00 0.0000e+00 -1.0000e+00
      -12  1    3    3    0    0 +1.3418116323e+01 -6.9314716107e+00 +4.0688228932e+01 4.3400727160e+01 0.0000000000e+00 0.0000e+00 1.0000e+00
</event>
<event>
 8      4 +3.7482383e-04 9.11880000e+01 7.81616400e-03 1.18400000e-01
      -11 -1    0    0    0    0 +0.0000000000e+00 +0.0000000000e+00 +4.5593999997e+01 4.5594000000e+01 5.1100000000e-04 0.0000e+00 -1.0000e+00
       11 -1    0    0    0    0 -0.0000000000e+00 -0.0000000000e+00 -4.5593999997e+01 4.5594000000e+01 5.1100000000e-04 0.0000e+00 1.0000e+00
       23  2    1    2    0    0 +0.0000000000e+00 -2.2204460493e-16 +0.0000000000e+00 9.1188000000e+01 9.1188000000e+01 1.0554e-13 0.0000e+00
 -9990012  2    3    3    0    0 +2.2839304056e+01 +1.6668797242e+00 -3.6867490230e+01 4.7787261140e+01 1.9999954840e+01 1.5771e-01 0.0000e+00
      -11  1    4    4    0    0 -5.4786632498e-01 -8.1593031654e-01 -3.3314411970e+00 3.4733845888e+00 5.1100000000e-04 0.0000e+00 1.0000e+00
       11  1    4    4    0    0 -7.0152471190e-01 +1.1466326022e+00 +1.3455121163e+00 1.9019217550e+00 5.1100000000e-04 0.0000e+00 -1.0000e+00
      -12  1    4    4    0    0 +2.4088695093e+01 +1.3361774385e+00 -3.4881561149e+01 4.2411954796e+01 0.0000000000e+00 0.0000e+00 1.0000e+00
       12  1    3    3    0    0 -2.2839304056e+01 -1.6668797242e+00 +3.6867490230e+01 4.3400738860e+01 0.0000000000e+00 0.0000e+00 -1.0000e+00
</event>
<event>
 8      3 +3.7482383e-04 9.11880000e+01 7.81616400e-03 1.18400000e-01
      -11 -1    0    0    0    0 +0.0000000000e+00 +0.0000000000e+00 +4.5593999997e+01 4.5594000000e+01 5.1100000000e-04 0.0000e+00 -1.0000e+00
       11 -1    0    0    0    0 -0.0000000000e+00 -0.0000000000e+00 -4.5593999997e+01 4.5594000000e+01 5.1100000000e-04 0.0000e+00 1.0000e+00
       23  2    1    2    0    0 +0.0000000000e+00 +0.0000000000e+00 +0.0000000000e+00 9.1188000000e+01 9.1188000000e+01 9.2042e-15 0.0000e+00
  9990012  2    3    3    0    0 -3.6587795968e+01 -1.3931706294e+01 +1.8731357841e+01 4.7787273962e+01 2.0000013303e+01 2.6625e-01 0.0000e+00
      -11  1    4    4    0    0 +4.9557775335e-01 +2.1505630662e+00 -1.7005340352e-01 2.2134672422e+00 5.1100000000e-04 0.0000e+00 1.0000e+00
       11  1    4    4    0    0 -3.3389231072e+01 -1.4462676797e+01 +1.9823077706e+01 4.1436266503e+01 5.1100000000e-04 0.0000e+00 -1.0000e+00
       12  1    4    4    0    0 -3.6941426497e+00 -1.6195925627e+00 -9.2166646089e-01 4.1375402174e+00 0.0000000000e+00 0.0000e+00 -1.0000e+00
      -12  1    3    3    0    0 +3.6587795968e+01 +1.3931706294e+01 -1.8731357841e+01 4.3400726038e+01 0.0000000000e+00 0.0000e+00 1.0000e+00
</event>
<event>
 8      4 +3.7482383e-04 9.11880000e+01 7.81616400e-03 1.18400000e-01
      -11 -1    0    0    0    0 +0.0000000000e+00 +0.0000000000e+00 +4.5593999997e+01 4.5594000000e+01 5.1100000000e-04 0.0000e+00 1.0000e+00
       11 -1    0    0    0    0 -0.0000000000e+00 -0.0000000000e+00 -4.5593999997e+01 4.5594000000e+01 5.1100000000e-04 0.0000e+00 -1.0000e+00
       23  2    1    2    0    0 +3.5527136788e-15 +3.5527136788e-15 +0.0000000000e+00 9.1188000000e+01 9.1188000000e+01 6.1575e-14 0.0000e+00
 -9990012  2    3    3    0    0 -2.5442554376e+01 -2.6904338043e+01 -2.2637499104e+01 4.7787270232e+01 1.9999996297e+01 5.1222e-01 0.0000e+00
      -11  1    4    4    0    0 -1.1942997152e+01 -1.5700461407e+01 -1.4500989146e+01 2.4483021788e+01 5.1100000000e-04 0.0000e+00 1.0000e+00
       11  1    4    4    0    0 +1.5737521826e+00 -4.5016361966e+00 -4.1771138075e+00 6.3395350303e+00 5.1100000000e-04 0.0000e+00 -1.0000e+00
      -12  1    4    4    0    0 -1.5073309406e+01 -6.7022404391e+00 -3.9593961504e+00 1.6964713415e+01 0.0000000000e+00 0.0000e+00 1.0000e+00
       12  1    3    3    0    0 +2.5442554376e+01 +2.6904338043e+01 +2.2637499104e+01 4.3400729768e+01 0.0000000000e+00 0.0000e+00 -1.0000e+00
</event>
<event>
 8      4 +3.7482383e-04 9.11880000e+01 7.81616400e-03 1.18400000e-01
      -11 -1    0    0    0    0 +0.0000000000e+00 +0.0000000000e+00 +4.5593999997e+01 4.5594000000e+01 5.1100000000e-04 0.0000e+00 1.0000e+00
       11 -1    0    0    0    0 -0.0000000000e+00 -0.0000000000e+00 -4.5593999997e+01 4.5594000000e+01 5.1100000000e-04 0.0000e+00 -1.0000e+00
       23  2    1    2    0    0 -2.2204460493e-16 +0.0000000000e+00 -3.5527136788e-15 9.1188000000e+01 9.1188000000e+01 1.0834e-14 0.0000e+00
 -9990012  2    3    3    0    0 +1.4382448790e+00 -3.5785013782e+01 +2.4515049925e+01 4.7787269217e+01 1.9999991668e+01 4.5105e-02 0.0000e+00
      -11  1    4    4    0    0 +2.9195082094e+00 -1.0800373008e+01 +7.5436825527e+00 1.3493655250e+01 5.1100000000e-04 0.0000e+00 1.0000e+00
       11  1    4    4    0    0 +6.6453111898e+00 -1.4434786075e+01 +5.8164576986e+00 1.6922009049e+01 5.1100000000e-04 0.0000e+00 -1.0000e+00
      -12  1    4    4    0    0 -8.1265745202e+00 -1.0549854699e+01 +1.1154909673e+01 1.7371604918e+01 0.0000000000e+00 0.0000e+00 1.0000e+00
       12  1    3    3    0    0 -1.4382448790e+00 +3.5785013782e+01 -2.4515049925e+01 4.3400730783e+01 0.0000000000e+00 0.0000e+00 -1.0000e+00
</event>
<event>
 8      4 +3.7482383e-04 9.11880000e+01 7.81616400e-03 1.18400000e-01
      -11 -1    0    0    0    0 +0.0000000000e+00 +0.0000000000e+00 +4.5593999997e+01 4.5594000000e+01 5.1100000000e-04 0.0000e+00 1.0000e+00
       11 -1    0    0    0    0 -0.0000000000e+00 -0.0000000000e+00 -4.5593999997e+01 4.5594000000e+01 5.1100000000e-04 0.0000e+00 -1.0000e+00
       23  2    1    2    0    0 +0.0000000000e+00 -7.1054273576e-15 +3.5527136788e-15 9.1188000000e+01 9.1188000000e+01 3.5876e-14 0.0000e+00
 -9990012  2    3    3    0    0 -8.7783020915e+00 -3.2930589086e+01 +2.6872674610e+01 4.7787275054e+01 2.0000018282e+01 1.5135e-01 0.0000e+00
      -11  1    4    4    0    0 +1.3946474226e+00 -1.2682592439e+01 +1.5282988562e+01 1.9908865665e+01 5.1100000000e-04 0.0000e+00 1.0000e+00
       11  1    4    4    0    0 -8.3175481719e+00 -8.0786525371e+00 +1.0285388198e+01 1.5499530478e+01 5.1100000000e-04 0.0000e+00 -1.0000e+00
      -12  1    4    4    0    0 -1.8554013422e+00 -1.2169344110e+01 +1.3042978493e+00 1.2378878911e+01 0.0000000000e+00 0.0000e+00 1.0000e+00
       12  1    3    3    0    0 +8.7783020915e+00 +3.2930589086e+01 -2.6872674610e+01 4.3400724946e+01 0.0000000000e+00 0.0000e+00 -1.0000e+00
</event>
<event>
 8      4 +3.7482383e-04 9.11880000e+01 7.81616400e-03 1.18400000e-01
      -11 -1    0    0    0    0 +0.0000000000e+00 +0.0000000000e+00 +4.5593999997e+01 4.5594000000e+01 5.1100000000e-04 0.0000e+00 1.0000e+00
       11 -1    0    0    0    0 -0.0000000000e+00 -0.0000000000e+00 -4.5593999997e+01 4.5594000000e+01 5.1100000000e-04 0.0000e+00 -1.0000e+00
       23  2    1    2    0    0 -8.8817841970e-16 +7.1054273576e-15 +0.0000000000e+00 9.1188000000e+01 9.1188000000e+01 1.1475e-13 0.0000e+00
 -9990012  2    3    3    0    0 -3.4163133075e+00 +3.7476119192e+01 +2.1621568325e+01 4.7787275085e+01 2.0000018422e+01 3.6045e-01 0.0000e+00
      -11  1    4    4    0    0 +3.6395504210e+00 +1.3351532530e+01 +1.4080872099e+01 1.9742864724e+01 5.1100000000e-04 0.0000e+00 1.0000e+00
       11  1    4    4    0    0 +1.2351882825e+00 +4.0808255246e+00 -1.5347617812e+00 4.5314811090e+00 5.1100000000e-04 0.0000e+00 -1.0000e+00
      -12  1    4    4    0    0 -8.2910520110e+00 +2.0043761137e+01 +9.0754580079e+00 2.3512929252e+01 0.0000000000e+00 0.0000e+00 1.0000e+00
       12  1    3    3    0    0 +3.4163133075e+00 -3.7476119192e+01 -2.1621568325e+01 4.3400724915e+01 0.0000000000e+00 0.0000e+00 -1.0000e+00
</event>
<event>
 8      4 +3.7482383e-04 9.11880000e+01 7.81616400e-03 1.18400000e-01
      -11 -1    0    0    0    0 +0.0000000000e+00 +0.0000000000e+00 +4.5593999997e+01 4.5594000000e+01 5.1100000000e-04 0.0000e+00 -1.0000e+00
       11 -1    0    0    0    0 -0.0000000000e+00 -0.0000000000e+00 -4.5593999997e+01 4.5594000000e+01 5.1100000000e-04 0.0000e+00 1.0000e+00
       23  2    1    2    0    0 +0.0000000000e+00 +0.0000000000e+00 -7.1054273576e-15 9.1188000000e+01 9.1188000000e+01 3.9582e-14 0.0000e+00
 -9990012  2    3    3    0    0 -2.3969005756e+01 -1.4367376906e+01 -3.3206755383e+01 4.7787270062e+01 1.9999995520e+01 3.8559e-02 0.0000e+00
      -11  1    4    4    0    0 -7.4151170278e-01 -6.9139520969e+00 -3.3664418014e+00 7.7256393824e+00 5.1100000000e-04 0.0000e+00 1.0000e+00
       11  1    4    4    0    0 -8.0753777897e+00 +1.8749937645e+00 -5.6517128613e+00 1.0033403540e+01 5.1100000000e-04 0.0000e+00 -1.0000e+00
      -12  1    4    4    0    0 -1.5152116264e+01 -9.3284185738e+00 -2.4188600720e+01 3.0028227140e+01 0.0000000000e+00 0.0000e+00 1.0000e+00
       12  1    3    3    0    0 +2.3969005756e+01 +1.4367376906e+01 +3.3206755383e+01 4.3400729938e+01 0.0000000000e+00 0.0000e+00 -1.0000e+00
</event>
<event>
 8      3 +3.7482383e-04 9.11880000e+01 7.81616400e-03 1.18400000e-01
      -11 -1    0    0    0    0 +0.0000000000e+00 +0.0000000000e+00 +4.5593999997e+01 4.5594000000e+01 5.1100000000e-04 0.0000e+00 1.0000e+00
       11 -1    0    0    0    0 -0.0000000000e+00 -0.0000000000e+00 -4.5593999997e+01 4.5594000000e+01 5.1100000000e-04 0.0000e+00 -1.0000e+00
       23  2    1    2    0    0 +0.0000000000e+00 -3.5527136788e-15 -1.7763568394e-15 9.1188000000e+01 9.1188000000e+01 6.4952e-15 0.0000e+00
  9990012  2    3    3    0    0 +3.2226798137e+01 -2.6622411820e+01 +1.1675118675e+01 4.7787219761e+01 1.9999766178e+01 1.3141e-01 0.0000e+00
      -11  1    4    4    0    0 +3.0777590975e+00 -2.6247127101e+00 -1.5672133159e+00 4.3379575507e+00 5.1100000000e-04 0.0000e+00 1.0000e+00
       11  1    4    4    0    0 +6.7612754369e+00 -1.8749201660e+00 +9.4168185375e+00 1.1743365906e+01 5.1100000000e-04 0.0000e+00 -1.0000e+00
       12  1    4    4    0    0 +2.2387763602e+01 -2.2122778944e+01 +3.8255134532e+00 3.1705896305e+01 0.0000000000e+00 0.0000e+00 -1.0000e+00
      -12  1    3    3    0    0 -3.2226798137e+01 +2.6622411820e+01 -1.1675118675e+01 4.3400780239e+01 0.0000000000e+00 0.0000e+00 1.0000e+00
</event>
<event>
 8      4 +3.7482383e-04 9.11880000e+01 7.81616400e-03 1.18400000e-01
      -11 -1    0    0    0    0 +0.0000000000e+00 +0.0000000000e+00 +4.5593999997e+01 4.5594000000e+01 5.1100000000e-04 0.0000e+00 1.0000e+00
       11 -1    0    0    0    0 -0.0000000000e+00 -0.0000000000e+00 -4.5593999997e+01 4.5594000000e+01 5.1100000000e-04 0.0000e+00 -1.0000e+00
       23  2    1    2    0    0 +3.5527136788e-15 +0.0000000000e+00 +0.0000000000e+00 9.1188000000e+01 9.1188000000e+01 1.6751e-14 0.0000e+00
 -9990012  2    3    3    0    0 -2.5433454953e+01 +2.5165848422e+01 +2.4565067003e+01 4.7787273342e+01 2.0000010474e+01 1.8864e-01 0.0000e+00
      -11  1    4    4    0    0 -4.7993264711e+00 +1.0361796939e+01 +9.7886558151e+00 1.5040550299e+01 5.1100000000e-04 0.0000e+00 1.0000e+00
       11  1    4    4    0    0 -3.4216247179e+00 +8.6651220366e+00 +1.1354799996e-01 9.3169066234e+00 5.1100000000e-04 0.0000e+00 -1.0000e+00
      -12  1    4    4    0    0 -1.7212503764e+01 +6.1389294462e+00 +1.4662863188e+01 2.3429816419e+01 0.0000000000e+00 0.0000e+00 1.0000e+00
       12  1    3    3    0    0 +2.5433454953e+01 -2.5165848422e+01 -2.4565067003e+01 4.3400726658e+01 0.0000000000e+00 0.0000e+00 -1.0000e+00
</event>
<event>
 8      4 +3.7482383e-04 9.11880000e+01 7.81616400e-03 1.18400000e-01
      -11 -1    0    0    0    0 +0.0000000000e+00 +0.0000000000e+00 +4.5593999997e+01 4.5594000000e+01 5.1100000000e-04 0.0000e+00 1.0000e+00
       11 -1    0    0    0    0 -0.0000000000e+00 -0.0000000000e+00 -4.5593999997e+01 4.5594000000e+01 5.1100000000e-04 0.0000e+00 -1.0000e+00
       23  2    1    2    0    0 +0.0000000000e+00 +0.0000000000e+00 +0.0000000000e+00 9.1188000000e+01 9.1188000000e+01 4.1394e-14 0.0000e+00
 -9990012  2    3    3    0    0 -3.9461914673e+01 +1.5684910489e+01 -8.9646073425e+00 4.7787270611e+01 1.9999998023e+01 4.5893e-01 0.0000e+00
      -11  1    4    4    0    0 -8.3528551292e+00 +1.0178173119e+01 -2.1637462793e+00 1.3343432657e+01 5.1100000000e-04 0.0000e+00 1.0000e+00
       11  1    4    4    0    0 -8.4321022167e+00 +1.9760457900e+00 +3.4319422750e+00 9.3157572315e+00 5.1100000000e-04 0.0000e+00 -1.0000e+00
      -12  1    4    4    0    0 -2.2676957327e+01 +3.5306915806e+00 -1.0232803338e+01 2.5128080723e+01 0.0000000000e+00 0.0000e+00 1.0000e+00
       12  1    3    3    0    0 +3.9461914673e+01 -1.5684910489e+01 +8.9646073425e+00 4.3400729389e+01 0.0000000000e+00 0.0000e+00 -1.0000e+00
</event>
<event>
 8      3 +3.7482383e-04 9.11880000e+01 7.81616400e-03 1.18400000e-01
      -11 -1    0    0    0    0 +0.0000000000e+00 +0.0000000000e+00 +4.5593999997e+01 4.5594000000e+01 5.1100000000e-04 0.0000e+00 1.0000e+00
       11 -1    0    0    0    0 -0.0000000000e+00 -0.0000000000e+00 -4.5593999997e+01 4.5594000000e+01 5.1100000000e-04 0.0000e+00 -1.0000e+00
       23  2    1    2    0    0 +0.0000000000e+00 -2.2204460493e-16 -7.1054273576e-15 9.1188000000e+01 9.1188000000e+01 2.6000e-13 0.0000e+00
  9990012  2    3    3    0    0 -1.4605996984e+00 -1.4116737863e+00 -4.3353168537e+01 4.7787269631e+01 1.9999993557e+01 2.4591e-01 0.0000e+00
      -11  1    4    4    0    0 +4.7677771420e-01 +4.8553551441e+00 -2.8252977406e+01 2.8671109556e+01 5.1100000000e-04 0.0000e+00 1.0000e+00
       11  1    4    4    0    0 -1.0940066154e+00 +1.8853461659e+00 -7.9378352043e+00 8.2316832198e+00 5.1100000000e-04 0.0000e+00 -1.0000e+00
       12  1    4    4    0    0 -8.4337079715e-01 -8.1523750962e+00 -7.1623559262e+00 1.0884476856e+01 0.0000000000e+00 0.0000e+00 -1.0000e+00
      -12  1    3    3    0    0 +1.4605996984e+00 +1.4116737863e+00 +4.3353168537e+01 4.3400730369e+01 0.0000000000e+00 0.0000e+00 1.0000e+00
</event>
<event>
 8      4 +3.7482383e-04 9.11880000e+01 7.81616400e-03 1.18400000e-01
      -11 -1    0    0    0    0 +0.0000000000e+00 +0.0000000000e+00 +4.5593999997e+01 4.5594000000e+01 5.1100000000e-04 0.0000e+00 1.0000e+00
       11 -1    0    0    0    0 -0.0000000000e+00 -0.0000000000e+00 -4.5593999997e+01 4.5594000000e+01 5.1100000000e-04 0.0000e+00 -1.0000e+00
       23  2    1    2    0    0 +0.0000000000e+00 +0.0000000000e+00 +0.0000000000e+00 9.1188000000e+01 9.1188000000e+01 6.2637e-14 0.0000e+00
 -9990012  2    3    3    0    0 -2.6761908199e+01 -2.9838081849e+01 +1.6646684445e+01 4.7787274638e+01 2.0000016385e+01 4.7990e-02 0.0000e+00
      -11  1    4    4    0    0 -1.9685402281e+01 -2.0587039950e+01 +5.5142253364e+00 2.9012892965e+01 5.1100000000e-04 0.0000e+00 1.0000e+00
       11  1    4    4    0    0 -6.5102291950e+00 -1.0989116803e+01 +1.1137143768e+01 1.6946378488e+01 5.1100000000e-04 0.0000e+00 -1.0000e+00
      -12  1    4    4    0    0 -5.6627672310e-01 +1.7380749039e+00 -4.6846594358e-03 1.8280031851e+00 0.0000000000e+00 0.0000e+00 1.0000e+00
       12  1    3    3    0    0 +2.6761908199e+01 +2.9838081849e+01 -1.6646684445e+01 4.3400725362e+01 0.0000000000e+00 0.0000e+00 -1.0000e+00
</event>
<event>
 8      4 +3.7482383e-04 9.11880000e+01 7.81616400e-03 1.18400000e-01
      -11 -1    0    0    0    0 +0.0000000000e+00 +0.0000000000e+00 +4.5593999997e+01 4.5594000000e+01 5.1100000000e-04 0.0000e+00 1.0000e+00
       11 -1    0    0    0    0 -0.0000000000e+00 -0.0000000000e+00 -4.5593999997e+01 4.5594000000e+01 5.1100000000e-04 0.0000e+00 -1.0000e+00
       23  2    1    2    0    0 +0.0000000000e+00 +0.0000000000e+00 +0.0000000000e+00 9.1188000000e+01 9.1188000000e+01 3.7505e-14 0.0000e+00
 -9990012  2    3    3    0    0 +3.6643614466e+01 -2.2717782208e+01 +4.9770629588e+00 4.7787271143e+01 2.0000000451e+01 2.9786e-01 0.0000e+00
      -11  1    4    4    0    0 +1.6134795899e+01 -1.0138358136e+01 +4.2584083389e+00 1.9525675052e+01 5.1100000000e-04 0.0000e+00 1.0000e+00
       11  1    4    4    0    0 +2.1654788498e+01 -9.4089647522e+00 -2.3184010393e+00 2.3724111495e+01 5.1100000000e-04 0.0000e+00 -1.0000e+00
      -12  1    4    4    0    0 -1.1459699308e+00 -3.1704593198e+00 +3.0370556592e+00 4.5374845958e+00 0.0000000000e+00 0.0000e+00 1.0000e+00
       12  1    3    3    0    0 -3.6643614466e+01 +2.2717782208e+01 -4.9770629588e+00 4.3400728857e+01 0.0000000000e+00 0.0000e+00 -1.0000e+00
</event>
<event>
 8      4 +3.7482383e-04 9.11880000e+01 7.81616400e-03 1.18400000e-01
      -11 -1    0    0    0    0 +0.0000000000e+00 +0.0000000000e+00 +4.5593999997e+01 4.5594000000e+01 5.1100000000e-04 0.0000e+00 1.0000e+00
       11 -1    0    0    0    0 -0.0000000000e+00 -0.0000000000e+00 -4.5593999997e+01 4.5594000000e+01 5.1100000000e-04 0.0000e+00 -1.0000e+00
       23  2    1    2    0    0 +3.5527136788e-15 +8.8817841970e-16 -7.1054273576e-15 9.1188000000e+01 9.1188000000e+01 6.2106e-14 0.0000e+00
 -9990012  2    3    3    0    0 -1.6622338681e+01 -4.4950892541e+00 +3.9838615613e+01 4.7787271151e+01 2.0000000487e+01 7.4212e-02 0.0000e+00
      -11  1    4    4    0    0 -1.8329819907e+00 -5.1396761625e+00 +1.5259860925e+01 1.6206154687e+01 5.1100000000e-04 0.0000e+00 1.0000e+00
       11  1    4    4    0    0 -1.4242754399e+01 -3.1156938739e+00 +1.3504021844e+01 1.9872649733e+01 5.1100000000e-04 0.0000e+00 -1.0000e+00
      -12  1    4    4    0    0 -5.4660229158e-01 +3.7602807822e+00 +1.1074732844e+01 1.1708466731e+01 0.0000000000e+00 0.0000e+00 1.0000e+00
       12  1    3    3    0    0 +1.6622338681e+01 +4.4950892541e+00 -3.9838615613e+01 4.3400728849e+01 0.0000000000e+00 0.0000e+00 -1.0000e+00
</event>
<event>
 8      3 +3.7482383e-04 9.11880000e+01 7.81616400e-03 1.18400000e-01
      -11 -1    0    0    0    0 +0.0000000000e+00 +0.0000000000e+00 +4.5593999997e+01 4.5594000000e+01 5.1100000000e-04 0.0000e+00 -1.0000e+00
       11 -1    0    0    0    0 -0.0000000000e+00 -0.0000000000e+00 -4.5593999997e+01 4.5594000000e+01 5.1100000000e-04 0.0000e+00 1.0000e+00
       23  2    1    2    0    0 +0.0000000000e+00 +8.8817841970e-16 +8.8817841970e-16 9.1188000000e+01 9.1188000000e+01 3.9094e-14 0.0000e+00
  9990012  2    3    3    0    0 +4.3009269237e+01 +2.0690238080e+00 -5.4355613423e+00 4.7787269281e+01 1.9999991962e+01 1.9343e-01 0.0000e+00
      -11  1    4    4    0    0 -9.4099771543e-02 +5.1989732710e-01 +6.8893738559e-01 8.6820676115e-01 5.1100000000e-04 0.0000e+00 1.0000e+00
       11  1    4    4    0    0 +8.4454301722e+00 -5.9053439122e+00 +2.1232311214e+00 1.0521715077e+01 5.1100000000e-04 0.0000e+00 -1.0000e+00
       12  1    4    4    0    0 +3.4657938836e+01 +7.4544703931e+00 -8.2477298493e+00 3.6397347443e+01 0.0000000000e+00 0.0000e+00 -1.0000e+00
      -12  1    3    3    0    0 -4.3009269237e+01 -2.0690238080e+00 +5.4355613423e+00 4.3400730719e+01 0.0000000000e+00 0.0000e+00 1.0000e+00
</event>
<event>
 8      4 +3.7482383e-04 9.11880000e+01 7.81616400e-03 1.18400000e-01
      -11 -1    0    0    0    0 +0.0000000000e+00 +0.0000000000e+00 +4.5593999997e+01 4.5594000000e+01 5.1100000000e-04 0.0000e+00 1.0000e+00
       11 -1    0    0    0    0 -0.0000000000e+00 -0.0000000000e+00 -4.5593999997e+01 4.5594000000e+01 5.1100000000e-04 0.0000e+00 -1.0000e+00
       23  2    1    2    0    0 +0.0000000000e+00 +0.0000000000e+00 +0.0000000000e+00 9.1188000000e+01 9.1188000000e+01 1.1408e-13 0.0000e+00
 -9990012  2    3    3    0    0 -3.1911277329e+00 -3.7540526444e+01 +2.1544104072e+01 4.7787276018e+01 2.0000022676e+01 3.5117e-01 0.0000e+00
      -11  1    4    4    0    0 -7.3588796986e+00 -2.9166752740e+01 +1.5848572944e+01 3.4000438827e+01 5.1100000000e-04 0.0000e+00 1.0000e+00
       11  1    4    4    0    0 -2.3173617972e+00 -4.3311424661e+00 +2.3256529689e+00 5.4348525973e+00 5.1100000000e-04 0.0000e+00 -1.0000e+00
      -12  1    4    4    0    0 +6.4851137628e+00 -4.0426312375e+00 +3.3698781591e+00 8.3519845932e+00 0.0000000000e+00 0.0000e+00 1.0000e+00
       12  1    3    3    0    0 +3.1911277329e+00 +3.7540526444e+01 -2.1544104072e+01 4.3400723982e+01 0.0000000000e+00 0.0000e+00 -1.0000e+00
</event>
<event>
 8      4 +3.7482383e-04 9.11880000e+01 7.81616400e-03 1.18400000e-01
      -11 -1    0    0    0    0 +0.0000000000e+00 +0.0000000000e+00 +4.5593999997e+01 4.5594000000e+01 5.1100000000e-04 0.0000e+00 -1.0000e+00
       11 -1    0    0    0    0 -0.0000000000e+00 -0.0000000000e+00 -4.5593999997e+01 4.5594000000e+01 5.1100000000e-04 0.0000e+00 1.0000e+00
       23  2    1    2    0    0 +0.0000000000e+00 +8.8817841970e-16 +0.0000000000e+00 9.1188000000e+01 9.1188000000e+01 1.4693e-13 0.0000e+00
 -9990012  2    3    3    0    0 +4.2197319007e+01 +6.9801299150e+00 -7.3679890017e+00 4.7787271816e+01 2.0000003517e+01 2.0934e-01 0.0000e+00
      -11  1    4    4    0    0 +1.4013275121e+01 +7.4354863193e+00 +2.6906175560e+00 1.6090300169e+01 5.1100000000e-04 0.0000e+00 1.0000e+00
       11  1    4    4    0    0 +7.4793759659e+00 +1.4859541845e+00 -7.5839196127e+00 1.0754764601e+01 5.1100000000e-04 0.0000e+00 -1.0000e+00
      -12  1    4    4    0    0 +2.0704667920e+01 -1.9413105888e+00 -2.4746869450e+00 2.0942207046e+01 0.0000000000e+00 0.0000e+00 1.0000e+00
       12  1    3    3    0    0 -4.2197319007e+01 -6.9801299150e+00 +7.3679890017e+00 4.3400728184e+01 0.0000000000e+00 0.0000e+00 -1.0000e+00
</event>
<event>
 8      3 +3.7482383e-04 9.11880000e+01 7.81616400e-03 1.18400000e-01
      -11 -1    0    0    0    0 +0.0000000000e+00 +0.0000000000e+00 +4.5593999997e+01 4.5594000000e+01 5.1100000000e-04 0.0000e+00 -1.0000e+00
       11 -1    0    0    0    0 -0.0000000000e+00 -0.0000000000e+00 -4.5593999997e+01 4.5594000000e+01 5.1100000000e-04 0.0000e+00 1.0000e+00
       23  2    1    2    0    0 -7.1054273576e-15 +0.0000000000e+00 +0.0000000000e+00 9.1188000000e+01 9.1188000000e+01 1.9651e-14 0.0000e+00
  9990012  2    3    3    0    0 -2.8033391772e+01 -3.4927270533e+00 +3.2947717467e+01 4.7787282462e+01 2.0000052059e+01 7.1773e-02 0.0000e+00
      -11  1    4    4    0    0 -5.1869183318e+00 -4.7091729849e-01 -2.0318126299e+00 5.5905409136e+00 5.1100000000e-04 0.0000e+00 1.0000e+00
       11  1    4    4    0    0 -1.7753872005e+01 -3.6491281007e+00 +2.9977640901e+01 3.5031058524e+01 5.1100000000e-04 0.0000e+00 -1.0000e+00
       12  1    4    4    0    0 -5.0926014355e+00 +6.2731834590e-01 +5.0018891958e+00 7.1656830250e+00 0.0000000000e+00 0.0000e+00 -1.0000e+00
      -12  1    3    3    0    0 +2.8033391772e+01 +3.4927270533e+00 -3.2947717467e+01 4.3400717538e+01 0.0000000000e+00 0.0000e+00 1.0000e+00
</event>
<event>
 8      3 +3.7482383e-04 9.11880000e+01 7.81616400e-03 1.18400000e-01
      -11 -1    0    0    0    0 +0.0000000000e+00 +0.0000000000e+00 +4.5593999997e+01 4.5594000000e+01 5.1100000000e-04 0.0000e+00 -1.0000e+00
       11 -1    0    0    0    0 -0.0000000000e+00 -0.0000000000e+00 -4.5593999997e+01 4.5594000000e+01 5.1100000000e-04 0.0000e+00 1.0000e+00
       23  2    1    2    0    0 +0.0000000000e+00 +0.0000000000e+00 +0.0000000000e+00 9.1188000000e+01 9.1188000000e+01 4.6405e-14 0.0000e+00
  9990012  2    3    3    0    0 +4.2639634048e+01 +6.1636276085e+00 +5.2435848105e+00 4.7787264077e+01 1.9999968231e+01 1.2707e-02 0.0000e+00
      -11  1    4    4    0    0 +1.7090349274e+00 +4.2800952868e+00 +3.5358070995e+00 5.8087819853e+00 5.1100000000e-04 0.0000e+00 1.0000e+00
       11  1    4    4    0    0 +2.4325768575e+01 +5.3920812450e+00 -4.9803710862e-02 2.4916260505e+01 5.1100000000e-04 0.0000e+00 -1.0000e+00
       12  1    4    4    0    0 +1.6604830546e+01 -3.5085489233e+00 +1.7575814219e+00 1.7062221586e+01 0.0000000000e+00 0.0000e+00 -1.0000e+00
      -12  1    3    3    0    0 -4.2639634048e+01 -6.1636276085e+00 -5.2435848105e+00 4.3400735923e+01 0.0000000000e+00 0.0000e+00 1.0000e+00
</event>
<event>
 8      3 +3.7482383e-04 9.11880000e+01 7.81616400e-03 1.18400000e-01
      -11 -1    0    0    0    0 +0.0000000000e+00 +0.0000000000e+00 +4.5593999997e+01 4.5594000000e+01 5.1100000000e-04 0.0000e+00 1.0000e+00
       11 -1    0    0    0    0 -0.0000000000e+00 -0.0000000000e+00 -4.5593999997e+01 4.5594000000e+01 5.1100000000e-04 0.0000e+00 -1.0000e+00
       23  2    1    2    0    0 -3.5527136788e-15 -3.5527136788e-15 +1.7763568394e-15 9.1188000000e+01 9.1188000000e+01 2.4010e-13 0.0000e+00
  9990012  2    3    3    0    0 -2.5912444764e+01 -3.1551843213e+01 +1.4719020318e+01 4.7787272323e+01 2.0000005829e+01 2.3615e-01 0.0000e+00
      -11  1    4    4    0    0 -1.6429913694e+01 -1.4085786541e+01 +1.3246193266e+01 2.5373472028e+01 5.1100000000e-04 0.0000e+00 1.0000e+00
       11  1    4    4    0    0 +1.4958962377e+00 -1.5597123847e-01 -9.4117876773e-01 1.7742182264e+00 5.1100000000e-04 0.0000e+00 -1.0000e+00
       12  1    4    4    0    0 -1.0978427308e+01 -1.7310085433e+01 +2.4140058201e+00 2.0639582068e+01 0.0000000000e+00 0.0000e+00 -1.0000e+00
      -12  1    3    3    0    0 +2.5912444764e+01 +3.1551843213e+01 -1.4719020318e+01 4.3400727677e+01 0.0000000000e+00 0.0000e+00 1.0000e+00
</event>
<event>
 8      4 +3.7482383e-04 9.11880000e+01 7.81616400e-03 1.18400000e-01
      -11 -1    0    0    0    0 +0.0000000000e+00 +0.0000000000e+00 +4.5593999997e+01 4.5594000000e+01 5.1100000000e-04 0.0000e+00 1.0000e+00
       11 -1    0    0    0    0 -0.0000000000e+00 -0.0000000000e+00 -4.5593999997e+01 4.5594000000e+01 5.1100000000e-04 0.0000e+00 -1.0000e+00
       23  2    1    2    0    0 +0.0000000000e+00 -3.5527136788e-15 +3.5527136788e-15 9.1188000000e+01 9.1188000000e+01 8.5415e-14 0.0000e+00
 -9990012  2    3    3    0    0 -1.9396169518e+01 +2.7998823322e+01 +2.6897540262e+01 4.7787272224e+01 2.0000005376e+01 1.2169e-02 0.0000e+00
      -11  1    4    4    0    0 -5.6276129008e-01 +7.5205743908e+00 -5.6860946480e-01 7.5630057795e+00 5.1100000000e-04 0.0000e+00 1.0000e+00
       11  1    4    4    0    0 -4.7890376851e+00 +6.1388154355e-01 +2.8086985185e+00 5.5857425762e+00 5.1100000000e-04 0.0000e+00 -1.0000e+00
      -12  1    4    4    0    0 -1.4044370543e+01 +1.9864367387e+01 +2.4657451209e+01 3.4638523868e+01 0.0000000000e+00 0.0000e+00 1.0000e+00
       12  1    3    3    0    0 +1.9396169518e+01 -2.7998823322e+01 -2.6897540262e+01 4.3400727776e+01 0.0000000000e+00 0.0000e+00 -1.0000e+00
</event>
<event>
 8      4 +3.7482383e-04 9.11880000e+01 7.81616400e-03 1.18400000e-01
      -11 -1    0    0    0    0 +0.0000000000e+00 +0.0000000000e+00 +4.5593999997e+01 4.5594000000e+01 5.1100000000e-04 0.0000e+00 -1.0000e+00
       11 -1    0    0    0    0 -0.0000000000e+00 -0.0000000000e+00 -4.5593999997e+01 4.5594000000e+01 5.1100000000e-04 0.0000e+00 1.0000e+00
       23  2    1    2    0    0 -3.5527136788e-15 -3.3306690739e-16 -3.5527136788e-15 9.1188000000e+01 9.1188000000e+01 5.1172e-14 0.0000e+00
 -9990012  2    3    3    0    0 -2.9321348740e+01 -5.9406128862e-01 -3.1992631821e+01 4.7787275449e+01 2.0000020082e+01 1.6984e-01 0.0000e+00
      -11  1    4    4    0    0 -2.4865965113e+01 +4.8909342279e+00 -1.7789050655e+01 3.0962683703e+01 5.1100000000e-04 0.0000e+00 1.0000e+00
       11  1    4    4    0    0 -5.3760397963e-01 +1.1223852639e+00 -1.2449091123e+00 1.7602743191e+00 5.1100000000e-04 0.0000e+00 -1.0000e+00
      -12  1    4    4    0    0 -3.9177796468e+00 -6.6073807804e+00 -1.2958672053e+01 1.5064317426e+01 0.0000000000e+00 0.0000e+00 1.0000e+00
       12  1    3    3    0    0 +2.9321348740e+01 +5.9406128862e-01 +3.1992631821e+01 4.3400724551e+01 0.0000000000e+00 0.0000e+00 -1.0000e+00
</event>
<event>
 8      4 +3.7482383e-04 9.11880000e+01 7.81616400e-03 1.18400000e-01
      -11 -1    0    0    0    0 +0.0000000000e+00 +0.0000000000e+00 +4.5593999997e+01 4.5594000000e+01 5.1100000000e-04 0.0000e+00 1.0000e+00
       11 -1    0    0    0    0 -0.0000000000e+00 -0.0000000000e+00 -4.5593999997e+01 4.5594000000e+01 5.1100000000e-04 0.0000e+00 -1.0000e+00
       23  2    1    2    0    0 +0.0000000000e+00 +3.5527136788e-15 +0.0000000000e+00 9.1188000000e+01 9.1188000000e+01 9.3669e-15 0.0000e+00
 -9990012  2    3    3    0    0 -2.8975500066e+01 -2.7596137319e+01 +1.6807649125e+01 4.7787268806e+01 1.9999989795e+01 4.0950e-02 0.0000e+00
      -11  1    4    4    0    0 -1.2666588247e+00 -1.5451183038e+00 -1.7078849982e+00 2.6284380493e+00 5.1100000000e-04 0.0000e+00 1.0000e+00
       11  1    4    4    0    0 -1.8193816614e-01 -8.2790533846e-01 +5.5829963800e+00 5.6469795100e+00 5.1100000000e-04 0.0000e+00 -1.0000e+00
      -12  1    4    4    0    0 -2.7526903076e+01 -2.5223113677e+01 +1.2932537744e+01 3.9511851247e+01 0.0000000000e+00 0.0000e+00 1.0000e+00
       12  1    3    3    0    0 +2.8975500066e+01 +2.7596137319e+01 -1.6807649125e+01 4.3400731194e+01 0.0000000000e+00 0.0000e+00 -1.0000e+00
</event>
<event>
 8      3 +3.7482383e-04 9.11880000e+01 7.81616400e-03 1.18400000e-01
      -11 -1    0    0    0    0 +0.0000000000e+00 +0.0000000000e+00 +4.5593999997e+01 4.5594000000e+01 5.1100000000e-04 0.0000e+00 1.0000e+00
       11 -1    0    0    0    0 -0.0000000000e+00 -0.0000000000e+00 -4.5593999997e+01 4.5594000000e+01 5.1100000000e-04 0.0000e+00 -1.0000e+00
       23  2    1    2    0    0 +0.0000000000e+00 +0.0000000000e+00 +0.0000000000e+00 9.1188000000e+01 9.1188000000e+01 1.1214e-13 0.0000e+00
  9990012  2    3    3    0    0 +3.7143539477e+01 +2.1518001337e+01 +6.3996947800e+00 4.7787274203e+01 2.0000014400e+01 1.4233e-01 0.0000e+00
      -11  1    4    4    0    0 -7.1194324198e-02 -7.5257536558e-01 +4.7783433061e-02 7.5744427536e-01 5.1100000000e-04 0.0000e+00 1.0000e+00
       11  1    4    4    0    0 +3.3143690938e+01 +1.2246235344e+01 +2.0715261868e+00 3.5394431061e+01 5.1100000000e-04 0.0000e+00 -1.0000e+00
       12  1    4    4    0    0 +4.0710428634e+00 +1.0024341358e+01 +4.2803851602e+00 1.1635398867e+01 0.0000000000e+00 0.0000e+00 -1.0000e+00
      -12  1    3    3    0    0 -3.7143539477e+01 -2.1518001337e+01 -6.3996947800e+00 4.3400725797e+01 0.0000000000e+00 0.0000e+00 1.0000e+00
</event>
<event>
 8      3 +3.7482383e-04 9.11880000e+01 7.81616400e-03 1.18400000e-01
      -11 -1    0    0    0    0 +0.0000000000e+00 +0.0000000000e+00 +4.5593999997e+01 4.5594000000e+01 5.1100000000e-04 0.0000e+00 -1.0000e+00
       11 -1    0    0    0    0 -0.0000000000e+00 -0.0000000000e+00 -4.5593999997e+01 4.5594000000e+01 5.1100000000e-04 0.0000e+00 1.0000e+00
       23  2    1    2    0    0 +0.0000000000e+00 +0.0000000000e+00 +0.0000000000e+00 9.1188000000e+01 9.1188000000e+01 5.1319e-15 0.0000e+00
  9990012  2    3    3    0    0 +3.2252183449e+01 -2.1908102177e+01 +1.9064472764e+01 4.7787281112e+01 2.0000045903e+01 5.9284e-01 0.0000e+00
      -11  1    4    4    0    0 +1.6190897387e+00 +1.8827656473e+00 +5.8282232235e-01 2.5506744569e+00 5.1100000000e-04 0.0000e+00 1.0000e+00
       11  1    4    4    0    0 +2.4952404083e+01 -1.1559552913e+01 +9.7817131600e+00 2.9187799603e+01 5.1100000000e-04 0.0000e+00 -1.0000e+00
       12  1    4    4    0    0 +5.6806896272e+00 -1.2231314911e+01 +8.6999372821e+00 1.6048807052e+01 0.0000000000e+00 0.0000e+00 -1.0000e+00
      -12  1    3    3    0    0 -3.2252183449e+01 +2.1908102177e+01 -1.9064472764e+01 4.3400718888e+01 0.0000000000e+00 0.0000e+00 1.0000e+00
</event>
<event>
 8      3 +3.7482383e-04 9.11880000e+01 7.81616400e-03 1.18400000e-01
      -11 -1    0    0    0    0 +0.0000000000e+00 +0.0000000000e+00 +4.5593999997e+01 4.5594000000e+01 5.1100000000e-04 0.0000e+00 -1.0000e+00
       11 -1    0    0    0    0 -0.0000000000e+00 -0.0000000000e+00 -4.5593999997e+01 4.5594000000e+01 5.1100000000e-04 0.0000e+00 1.0000e+00
       23  2    1    2    0    0 +1.6653345369e-16 +0.0000000000e+00 +1.7763568394e-15 9.1188000000e+01 9.1188000000e+01 9.0308e-14 0.0000e+00
  9990012  2    3    3    0    0 +3.0684514538e-01 -4.1205521339e+01 +1.3624763089e+01 4.7787270605e+01 1.9999997996e+01 1.2109e-01 0.0000e+00
      -11  1    4    4    0    0 -4.2810143778e-01 -3.2853365683e+00 +6.8032253696e+00 7.5670722806e+00 5.1100000000e-04 0.0000e+00 1.0000e+00
       11  1    4    4    0    0 +3.1504873177e+00 -3.6861268141e+01 +6.2177373235e+00 3.7514516084e+01 5.1100000000e-04 0.0000e+00 -1.0000e+00
       12  1    4    4    0    0 -2.4155407346e+00 -1.0589166300e+00 +6.0380039634e-01 2.7056822408e+00 0.0000000000e+00 0.0000e+00 -1.0000e+00
      -12  1    3    3    0    0 -3.0684514538e-01 +4.1205521339e+01 -1.3624763089e+01 4.3400729395e+01 0.0000000000e+00 0.0000e+00 1.0000e+00
</event>
<event>
 8      3 +3.7482383e-04 9.11880000e+01 7.81616400e-03 1.18400000e-01
      -11 -1    0    0    0    0 +0.0000000000e+00 +0.0000000000e+00 +4.5593999997e+01 4.5594000000e+01 5.1100000000e-04 0.0000e+00 1.0000e+00
       11 -1    0    0    0    0 -0.0000000000e+00 -0.0000000000e+00 -4.5593999997e+01 4.5594000000e+01 5.1100000000e-04 0.0000e+00 -1.0000e+00
       23  2    1    2    0    0 +3.5527136788e-15 +0.0000000000e+00 -3.5527136788e-15 9.1188000000e+01 9.1188000000e+01 6.6865e-14 0.0000e+00
  9990012  2    3    3    0    0 +1.9732909856e+01 -2.5890207085e+01 -2.8704227352e+01 4.7787271640e+01 2.0000002715e+01 2.0454e-02 0.0000e+00
      -11  1    4    4    0    0 +3.4134666659e+00 -3.4236354923e+00 +9.9040069315e-01 4.9349699551e+00 5.1100000000e-04 0.0000e+00 1.0000e+00
       11  1    4    4    0    0 +5.0845579113e+00 -1.5567247504e+01 -1.0118219369e+01 1.9250202271e+01 5.1100000000e-04 0.0000e+00 -1.0000e+00
       12  1    4    4    0    0 +1.1234885279e+01 -6.8993240895e+00 -1.9576408676e+01 2.3602099414e+01 0.0000000000e+00 0.0000e+00 -1.0000e+00
      -12  1    3    3    0    0 -1.9732909856e+01 +2.5890207085e+01 +2.8704227352e+01 4.3400728360e+01 0.0000000000e+00 0.0000e+00 1.0000e+00
</event>
<event>
 8      4 +3.7482383e-04 9.11880000e+01 7.81616400e-03 1.18400000e-01
      -11 -1    0    0    0    0 +0.0000000000e+00 +0.0000000000e+00 +4.5593999997e+01 4.5594000000e+01 5.1100000000e-04 0.0000e+00 1.0000e+00
       11 -1    0    0    0    0 -0.0000000000e+00 -0.0000000000e+00 -4.5593999997e+01 4.5594000000e+01 5.1100000000e-04 0.0000e+00 -1.0000e+00
       23  2    1    2    0    0 -3.5527136788e-15 +0.0000000000e+00 -1.7763568394e-15 9.1188000000e+01 9.1188000000e+01 2.2418e-14 0.0000e+00
 -9990012  2    3    3    0    0 -3.0502594058e+01 -2.7960078914e+01 +1.3093858947e+01 4.7787269600e+01 1.9999993413e+01 4.7996e-02 0.0000e+00
      -11  1    4    4    0    0 -9.3086896012e+00 -1.4507377404e+01 +9.9825536029e+00 1.9919012976e+01 5.1100000000e-04 0.0000e+00 1.0000e+00
       11  1    4    4    0    0 -8.4170271227e+00 +8.8840057288e-01 +4.2855110028e-01 8.4746243261e+00 5.1100000000e-04 0.0000e+00 -1.0000e+00
      -12  1    4    4    0    0 -1.2776877334e+01 -1.4341102083e+01 +2.6827542438e+00 1.9393632298e+01 0.0000000000e+00 0.0000e+00 1.0000e+00
       12  1    3    3    0    0 +3.0502594058e+01 +2.7960078914e+01 -1.3093858947e+01 4.3400730400e+01 0.0000000000e+00 0.0000e+00 -1.0000e+00
</event>
<event>
 8      3 +3.7482383e-04 9.11880000e+01 7.81616400e-03 1.18400000e-01
      -11 -1    0    0    0    0 +0.0000000000e+00 +0.0000000000e+00 +4.5593999997e+01 4.5594000000e+01 5.1100000000e-04 0.0000e+00 -1.0000e+00
       11 -1    0    0    0    0 -0.0000000000e+00 -0.0000000000e+00 -4.5593999997e+01 4.5594000000e+01 5.1100000000e-04 0.0000e+00 1.0000e+00
       23  2    1    2    0    0 +3.5527136788e-15 +0.0000000000e+00 -4.4408920985e-16 9.1188000000e+01 9.1188000000e+01 5.5670e-14 0.0000e+00
  9990012  2    3    3    0    0 +2.7940003835e+01 -3.3148620185e+01 -2.0367828307e+00 4.7787270527e+01 1.9999997643e+01 1.0051e-01 0.0000e+00
      -11  1    4    4    0    0 -2.9287240015e-01 -1.4446919358e+00 +1.0245662415e+00 1.7951727707e+00 5.1100000000e-04 0.0000e+00 1.0000e+00
       11  1    4    4    0    0 +1.1544825191e+01 -1.8086455860e+01 -9.5654164758e+00 2.3492553435e+01 5.1100000000e-04 0.0000e+00 -1.0000e+00
       12  1    4    4    0    0 +1.6688051044e+01 -1.3617472389e+01 +6.5040674036e+00 2.2499544322e+01 0.0000000000e+00 0.0000e+00 -1.0000e+00
      -12  1    3    3    0    0 -2.7940003835e+01 +3.3148620185e+01 +2.0367828307e+00 4.3400729473e+01 0.0000000000e+00 0.0000e+00 1.0000e+00
</event>
<event>
 8      4 +3.7482383e-04 9.11880000e+01 7.81616400e-03 1.18400000e-01
      -11 -1    0    0    0    0 +0.0000000000e+00 +0.0000000000e+00 +4.5593999997e+01 4.5594000000e+01 5.1100000000e-04 0.0000e+00 -1.0000e+00
       11 -1    0    0    0    0 -0.0000000000e+00 -0.0000000000e+00 -4.5593999997e+01 4.5594000000e+01 5.1100000000e-04 0.0000e+00 1.0000e+00
       23  2    1    2    0    0 +0.0000000000e+00 +0.0000000000e+00 +0.0000000000e+00 9.1188000000e+01 9.1188000000e+01 6.3086e-14 0.0000e+00
 -9990012  2    3    3    0    0 -1.5911480298e+01 +2.6914295045e+01 -3.0100993572e+01 4.7787259256e+01 1.9999946253e+01 2.0431e-01 0.0000e+00
      -11  1    4    4    0    0 -9.7911363030e+00 +1.5525606731e+01 -1.7737306962e+01 2.5524946092e+01 5.1100000000e-04 0.0000e+00 1.0000e+00
       11  1    4    4    0    0 +1.0554542124e+00 +2.6405883371e+00 -1.0395902247e+01 1.0777823257e+01 5.1100000000e-04 0.0000e+00 -1.0000e+00
      -12  1    4    4    0    0 -7.1757982078e+00 +8.7480999774e+00 -1.9677843625e+00 1.1484489907e+01 0.0000000000e+00 0.0000e+00 1.0000e+00
       12  1    3    3    0    0 +1.5911480298e+01 -2.6914295045e+01 +3.0100993572e+01 4.3400740744e+01 0.0000000000e+00 0.0000e+00 -1.0000e+00
</event>
<event>
 8      4 +3.7482383e-04 9.11880000e+01 7.81616400e-03 1.18400000e-01
      -11 -1    0    0    0    0 +0.0000000000e+00 +0.0000000000e+00 +4.5593999997e+01 4.5594000000e+01 5.1100000000e-04 0.0000e+00 1.0000e+00
       11 -1    0    0    0    0 -0.0000000000e+00 -0.0000000000e+00 -4.5593999997e+01 4.5594000000e+01 5.1100000000e-04 0.0000e+00 -1.0000e+00
       23  2    1    2    0    0 +0.0000000000e+00 +0.0000000000e+00 +1.7763568394e-15 9.1188000000e+01 9.1188000000e+01 1.1339e-14 0.0000e+00
 -9990012  2    3    3    0    0 -4.1640463657e+01 -4.6963869864e+00 +1.1297741538e+01 4.7787271571e+01 2.0000002399e+01 7.1866e-03 0.0000e+00
      -11  1    4    4    0    0 -1.3941935787e+01 -4.5394329422e+00 +8.3091579161e+00 1.6853074807e+01 5.1100000000e-04 0.0000e+00 1.0000e+00
       11  1    4    4    0    0 -7.8239759654e-01 +3.2582347878e+00 -1.0315738165e+00 3.5060497331e+00 5.1100000000e-04 0.0000e+00 -1.0000e+00
      -12  1    4    4    0    0 -2.6916130274e+01 -3.4151888319e+00 +4.0201574388e+00 2.7428147030e+01 0.0000000000e+00 0.0000e+00 1.0000e+00
       12  1    3    3    0    0 +4.1640463657e+01 +4.6963869864e+00 -1.1297741538e+01 4.3400728429e+01 0.0000000000e+00 0.0000e+00 -1.0000e+00
</event>
<event>
 8      4 +3.7482383e-04 9.11880000e+01 7.81616400e-03 1.18400000e-01
      -11 -1    0    0    0    0 +0.0000000000e+00 +0.0000000000e+00 +4.5593999997e+01 4.5594000000e+01 5.1100000000e-04 0.0000e+00 1.0000e+00
       11 -1    0    0    0    0 -0.0000000000e+00 -0.0000000000e+00 -4.5593999997e+01 4.5594000000e+01 5.1100000000e-04 0.0000e+00 -1.0000e+00
       23  2    1    2    0    0 -7.1054273576e-15 +3.5527136788e-15 +1.7763568394e-15 9.1188000000e+01 9.1188000000e+01 2.3136e-14 0.0000e+00
 -9990012  2    3    3    0    0 -3.9171606088e+01 +1.3791496246e+01 +1.2609669194e+01 4.7787264414e+01 1.9999969770e+01 2.6310e-02 0.0000e+00
      -11  1    4    4    0    0 -7.8168716589e+00 -1.5351916481e+00 -1.8959364427e-01 7.9684529200e+00 5.1100000000e-04 0.0000e+00 -1.0000e+00
       11  1    4    4    0    0 -1.3512073088e+01 +2.5675243521e-01 +7.4178004359e-01 1.3534854223e+01 5.1100000000e-04 0.0000e+00 1.0000e+00
      -12  1    4    4    0    0 -1.7842661341e+01 +1.5069935459e+01 +1.2057482795e+01 2.6283957271e+01 0.0000000000e+00 0.0000e+00 1.0000e+00
       12  1    3    3    0    0 +3.9171606088e+01 -1.3791496246e+01 -1.2609669194e+01 4.3400735586e+01 0.0000000000e+00 0.0000e+00 -1.0000e+00
</event>
<event>
 8      4 +3.7482383e-04 9.11880000e+01 7.81616400e-03 1.18400000e-01
      -11 -1    0    0    0    0 +0.0000000000e+00 +0.0000000000e+00 +4.5593999997e+01 4.5594000000e+01 5.1100000000e-04 0.0000e+00 1.0000e+00
       11 -1    0    0    0    0 -0.0000000000e+00 -0.0000000000e+00 -4.5593999997e+01 4.5594000000e+01 5.1100000000e-04 0.0000e+00 -1.0000e+00
       23  2    1    2    0    0 +0.0000000000e+00 +0.0000000000e+00 +0.0000000000e+00 9.1188000000e+01 9.1188000000e+01 2.4528e-14 0.0000e+00
 -9990012  2    3    3    0    0 -2.5172389538e+01 +2.2063946641e+01 +2.7625293578e+01 4.7787265194e+01 1.9999973326e+01 3.2828e-01 0.0000e+00
      -11  1    4    4    0    0 +4.4252041438e-01 +1.3201128295e+00 +5.4419005136e-01 1.4948796851e+00 5.1100000000e-04 0.0000e+00 1.0000e+00
       11  1    4    4    0    0 -5.1273915957e+00 -2.4153481690e+00 +8.2407261695e-01 5.7274031893e+00 5.1100000000e-04 0.0000e+00 -1.0000e+00
      -12  1    4    4    0    0 -2.0487518357e+01 +2.3159181980e+01 +2.6257030910e+01 4.0564982320e+01 0.0000000000e+00 0.0000e+00 1.0000e+00
       12  1    3    3    0    0 +2.5172389538e+01 -2.2063946641e+01 -2.7625293578e+01 4.3400734806e+01 0.0000000000e+00 0.0000e+00 -1.0000e+00
</event>
<event>
 8      3 +3.7482383e-04 9.11880000e+01 7.81616400e-03 1.18400000e-01
      -11 -1    0    0    0    0 +0.0000000000e+00 +0.0000000000e+00 +4.5593999997e+01 4.5594000000e+01 5.1100000000e-04 0.0000e+00 1.0000e+00
       11 -1    0    0    0    0 -0.0000000000e+00 -0.0000000000e+00 -4.5593999997e+01 4.5594000000e+01 5.1100000000e-04 0.0000e+00 -1.0000e+00
       23  2    1    2    0    0 -7.1054273576e-15 +3.5527136788e-15 +3.5527136788e-15 9.1188000000e+01 9.1188000000e+01 7.3998e-14 0.0000e+00
  9990012  2    3    3    0    0 -2.4655008378e+01 +2.5641807992e+01 +2.4864656156e+01 4.7787275571e+01 2.0000020637e+01 2.7522e-01 0.0000e+00
      -11  1    4    4    0    0 -3.8045464144e+00 +1.3839917638e+01 +3.4381839880e+00 1.4759370008e+01 5.1100000000e-04 0.0000e+00 1.0000e+00
       11  1    4    4    0    0 -4.0212852620e+00 -3.3790659997e-01 +5.7334977596e+00 7.0112704162e+00 5.1100000000e-04 0.0000e+00 -1.0000e+00
       12  1    4    4    0    0 -1.6829176702e+01 +1.2139796955e+01 +1.5692974408e+01 2.6016635146e+01 0.0000000000e+00 0.0000e+00 -1.0000e+00
      -12  1    3    3    0    0 +2.4655008378e+01 -2.5641807992e+01 -2.4864656156e+01 4.3400724429e+01 0.0000000000e+00 0.0000e+00 1.0000e+00
</event>
<event>
 8      3 +3.7482383e-04 9.11880000e+01 7.81616400e-03 1.18400000e-01
      -11 -1    0    0    0    0 +0.0000000000e+00 +0.0000000000e+00 +4.5593999997e+01 4.5594000000e+01 5.1100000000e-04 0.0000e+00 -1.0000e+00
       11 -1    0    0    0    0 -0.0000000000e+00 -0.0000000000e+00 -4.5593999997e+01 4.5594000000e+01 5.1100000000e-04 0.0000e+00 1.0000e+00
       23  2    1    2    0    0 -4.4408920985e-16 +7.1054273576e-15 +1.7763568394e-15 9.1188000000e+01 9.1188000000e+01 1.1781e-13 0.0000e+00
  9990012  2    3    3    0    0 -3.3643114474e+00 +4.0950640894e+01 +1.3976753665e+01 4.7787271617e+01 2.0000002611e+01 1.1765e-01 0.0000e+00
      -11  1    4    4    0    0 -3.3028786248e+00 +7.7024944310e+00 +8.0454373392e+00 1.1617507904e+01 5.1100000000e-04 0.0000e+00 1.0000e+00
       11  1    4    4    0    0 +5.1062866863e+00 +2.7362956341e+01 +5.0281592144e+00 2.8285825581e+01 5.1100000000e-04 0.0000e+00 -1.0000e+00
       12  1    4    4    0    0 -5.1677195089e+00 +5.8851901219e+00 +9.0315711182e-01 7.8839381315e+00 0.0000000000e+00 0.0000e+00 -1.0000e+00
      -12  1    3    3    0    0 +3.3643114474e+00 -4.0950640894e+01 -1.3976753665e+01 4.3400728383e+01 0.0000000000e+00 0.0000e+00 1.0000e+00
</event>
<event>
 8      4 +3.7482383e-04 9.11880000e+01 7.81616400e-03 1.18400000e-01
      -11 -1    0    0    0    0 +0.0000000000e+00 +0.0000000000e+00 +4.5593999997e+01 4.5594000000e+01 5.1100000000e-04 0.0000e+00 -1.0000e+00
       11 -1    0    0    0    0 -0.0000000000e+00 -0.0000000000e+00 -4.5593999997e+01 4.5594000000e+01 5.1100000000e-04 0.0000e+00 1.0000e+00
       23  2    1    2    0    0 +0.0000000000e+00 +1.1102230246e-16 +0.0000000000e+00 9.1188000000e+01 9.1188000000e+01 1.0780e-13 0.0000e+00
 -9990012  2    3    3    0    0 +4.3022858023e+01 -6.6958445718e-01 +5.6753988001e+00 4.7787253378e+01 1.9999919451e+01 6.3261e-01 0.0000e+00
      -11  1    4    4    0    0 +4.1780847671e+01 +7.8604997053e-01 +7.8978401333e+00 4.2528025885e+01 5.1100000000e-04 0.0000e+00 1.0000e+00
       11  1    4    4    0    0 -1.5226413366e+00 -1.1042748350e+00 -3.8156867075e-01 1.9192327797e+00 5.1100000000e-04 0.0000e+00 -1.0000e+00
      -12  1    4    4    0    0 +2.7646516885e+00 -3.5135959270e-01 -1.8408726624e+00 3.3399947128e+00 0.0000000000e+00 0.0000e+00 1.0000e+00
       12  1    3    3    0    0 -4.3022858023e+01 +6.6958445718e-01 -5.6753988001e+00 4.3400746622e+01 0.0000000000e+00 0.0000e+00 -1.0000e+00
</event>
<event>
 8      4 +3.7482383e-04 9.11880000e+01 7.81616400e-03 1.18400000e-01
      -11 -1    0    0    0    0 +0.0000000000e+00 +0.0000000000e+00 +4.5593999997e+01 4.5594000000e+01 5.1100000000e-04 0.0000e+00 1.0000e+00
       11 -1    0    0    0    0 -0.0000000000e+00 -0.0000000000e+00 -4.5593999997e+01 4.5594000000e+01 5.1100000000e-04 0.0000e+00 -1.0000e+00
       23  2    1    2    0    0 -3.5527136788e-15 +0.0000000000e+00 +0.0000000000e+00 9.1188000000e+01 9.1188000000e+01 8.7271e-14 0.0000e+00
 -9990012  2    3    3    0    0 -2.4736138203e+01 +7.1372002913e+00 +3.4940050271e+01 4.7787271042e+01 1.9999999988e+01 7.4224e-01 0.0000e+00
      -11  1    4    4    0    0 -2.2791010073e+01 +8.4508949168e+00 +3.3364073832e+01 4.1279646171e+01 5.1100000000e-04 0.0000e+00 1.0000e+00
       11  1    4    4    0    0 -6.6835814727e-01 -3.1945745024e+00 -6.4792969787e-01 3.3274347505e+00 5.1100000000e-04 0.0000e+00 -1.0000e+00
      -12  1    4    4    0    0 -1.2767699819e+00 +1.8808798769e+00 +2.2239061364e+00 3.1801901203e+00 0.0000000000e+00 0.0000e+00 1.0000e+00
       12  1    3    3    0    0 +2.4736138203e+01 -7.1372002913e+00 -3.4940050271e+01 4.3400728958e+01 0.0000000000e+00 0.0000e+00 -1.0000e+00
</event>
<event>
 8      4 +3.7482383e-04 9.11880000e+01 7.81616400e-03 1.18400000e-01
      -11 -1    0    0    0    0 +0.0000000000e+00 +0.0000000000e+00 +4.5593999997e+01 4.5594000000e+01 5.1100000000e-04 0.0000e+00 1.0000e+00
       11 -1    0    0    0    0 -0.0000000000e+00 -0.0000000000e+00 -4.5593999997e+01 4.5594000000e+01 5.1100000000e-04 0.0000e+00 -1.0000e+00
       23  2    1    2    0    0 +0.0000000000e+00 -3.5527136788e-15 -1.7763568394e-15 9.1188000000e+01 9.1188000000e+01 2.1550e-13 0.0000e+00
 -9990012  2    3    3    0    0 -3.7230532968e+01 -1.9638703975e+01 -1.0575020247e+01 4.7787281894e+01 2.0000049468e+01 5.7294e-01 0.0000e+00
      -11  1    4    4    0    0 -1.2882569195e+00 -1.8250098386e+00 +2.8749380007e+00 3.6408152344e+00 5.1100000000e-04 0.0000e+00 1.0000e+00
       11  1    4    4    0    0 -1.4383742171e+01 -5.2461092680e+00 +9.4190041483e-01 1.5339520134e+01 5.1100000000e-04 0.0000e+00 -1.0000e+00
      -12  1    4    4    0    0 -2.1558533877e+01 -1.2567584868e+01 -1.4391858663e+01 2.8806946525e+01 0.0000000000e+00 0.0000e+00 1.0000e+00
       12  1    3    3    0    0 +3.7230532968e+01 +1.9638703975e+01 +1.0575020247e+01 4.3400718106e+01 0.0000000000e+00 0.0000e+00 -1.0000e+00
</event>
<event>
 8      3 +3.7482383e-04 9.11880000e+01 7.81616400e-03 1.18400000e-01
      -11 -1    0    0    0    0 +0.0000000000e+00 +0.0000000000e+00 +4.5593999997e+01 4.5594000000e+01 5.1100000000e-04 0.0000e+00 1.0000e+00
       11 -1    0    0    0    0 -0.0000000000e+00 -0.0000000000e+00 -4.5593999997e+01 4.5594000000e+01 5.1100000000e-04 0.0000e+00 -1.0000e+00
       23  2    1    2    0    0 -1.7763568394e-15 +0.0000000000e+00 +0.0000000000e+00 9.1188000000e+01 9.1188000000e+01 3.7331e-14 0.0000e+00
  9990012  2    3    3    0    0 -1.3232642418e+01 -1.2140170933e+01 -3.9511218435e+01 4.7787274686e+01 2.0000016601e+01 5.5171e-04 0.0000e+00
      -11  1    4    4    0    0 +2.7796787577e+00 +2.3105461744e+00 -2.7725741169e+00 4.5554807776e+00 5.1100000000e-04 0.0000e+00 1.0000e+00
       11  1    4    4    0    0 -4.9879277855e+00 -6.4288928679e+00 -7.9407536258e+00 1.1369505508e+01 5.1100000000e-04 0.0000e+00 -1.0000e+00
       12  1    4    4    0    0 -1.1024393390e+01 -8.0218242393e+00 -2.8797890692e+01 3.1862288399e+01 0.0000000000e+00 0.0000e+00 -1.0000e+00
      -12  1    3    3    0    0 +1.3232642418e+01 +1.2140170933e+01 +3.9511218435e+01 4.3400725314e+01 0.0000000000e+00 0.0000e+00 1.0000e+00
</event>
<event>
 8      4 +3.7482383e-04 9.11880000e+01 7.81616400e-03 1.18400000e-01
      -11 -1    0    0    0    0 +0.0000000000e+00 +0.0000000000e+00 +4.5593999997e+01 4.5594000000e+01 5.1100000000e-04 0.0000e+00 -1.0000e+00
       11 -1    0    0    0    0 -0.0000000000e+00 -0.0000000000e+00 -4.5593999997e+01 4.5594000000e+01 5.1100000000e-04 0.0000e+00 1.0000e+00
       23  2    1    2    0    0 +0.0000000000e+00 -1.7763568394e-15 +0.0000000000e+00 9.1188000000e+01 9.1188000000e+01 3.9279e-14 0.0000e+00
 -9990012  2    3    3    0    0 +1.2176979561e+01 +1.5098175183e+01 -3.8825112245e+01 4.7787273440e+01 2.0000010922e+01 1.0089e-01 0.0000e+00
      -11  1    4    4    0    0 -2.3745219641e-01 +4.5223895070e-01 -4.1132552266e+00 4.1448489037e+00 5.1100000000e-04 0.0000e+00 1.0000e+00
       11  1    4    4    0    0 +5.1515626329e+00 +1.6782211108e+01 -2.9898344890e+01 3.4671201806e+01 5.1100000000e-04 0.0000e+00 -1.0000e+00
      -12  1    4    4    0    0 +7.2628691241e+00 -2.1362748763e+00 -4.8135121286e+00 8.9712227301e+00 0.0000000000e+00 0.0000e+00 1.0000e+00
       12  1    3    3    0    0 -1.2176979561e+01 -1.5098175183e+01 +3.8825112245e+01 4.3400726560e+01 0.0000000000e+00 0.0000e+00 -1.0000e+00
</event>
<event>
 8      4 +3.7482383e-04 9.11880000e+01 7.81616400e-03 1.18400000e-01
      -11 -1    0    0    0    0 +0.0000000000e+00 +0.0000000000e+00 +4.5593999997e+01 4.5594000000e+01 5.1100000000e-04 0.0000e+00 -1.0000e+00
       11 -1    0    0    0    0 -0.0000000000e+00 -0.0000000000e+00 -4.5593999997e+01 4.5594000000e+01 5.1100000000e-04 0.0000e+00 1.0000e+00
       23  2    1    2    0    0 -1.7763568394e-15 +0.0000000000e+00 +0.0000000000e+00 9.1188000000e+01 9.1188000000e+01 2.4967e-13 0.0000e+00
 -9990012  2    3    3    0    0 +1.4543986713e+01 +3.7185338324e+01 +1.7010182977e+01 4.7787271196e+01 2.0000000692e+01 3.3603e-01 0.0000e+00
      -11  1    4    4    0    0 -1.6266121521e-01 +9.7909180807e+00 -1.4515502705e+00 9.8992693661e+00 5.1100000000e-04 0.0000e+00 1.0000e+00
       11  1    4    4    0    0 -1.3769695689e+00 +6.4945586496e+00 +4.7590646314e+00 8.1684780512e+00 5.1100000000e-04 0.0000e+00 -1.0000e+00
      -12  1    4    4    0    0 +1.6083617498e+01 +2.0899861594e+01 +1.3702668616e+01 2.9719523779e+01 0.0000000000e+00 0.0000e+00 1.0000e+00
       12  1    3    3    0    0 -1.4543986713e+01 -3.7185338324e+01 -1.7010182977e+01 4.3400728804e+01 0.0000000000e+00 0.0000e+00 -1.0000e+00
</event>
<event>
 8      3 +3.7482383e-04 9.11880000e+01 7.81616400e-03 1.18400000e-01
      -11 -1    0    0    0    0 +0.0000000000e+00 +0.0000000000e+00 +4.5593999997e+01 4.5594000000e+01 5.1100000000e-04 0.0000e+00 1.0000e+00
       11 -1    0    0    0    0 -0.0000000000e+00 -0.0000000000e+00 -4.5593999997e+01 4.5594000000e+01 5.1100000000e-04 0.0000e+00 -1.0000e+00
       23  2    1    2    0    0 -3.3306690739e-16 -1.7763568394e-15 -7.1054273576e-15 9.1188000000e+01 9.1188000000e+01 1.1681e-13 0.0000e+00
  9990012  2    3    3    0    0 -9.8235443463e-01 -1.4241019150e+01 -4.0985994691e+01 4.7787269505e+01 1.9999992983e+01 3.7265e-02 0.0000e+00
      -11  1    4    4    0    0 +1.5426823902e-01 +3.0222666383e+00 -9.0077435454e+00 9.5024911662e+00 5.1100000000e-04 0.0000e+00 1.0000e+00
       11  1    4    4    0    0 +1.8827368006e+00 +4.2039889613e-02 -9.8652975304e+00 1.0043433717e+01 5.1100000000e-04 0.0000e+00 -1.0000e+00
       12  1    4    4    0    0 -3.0193594742e+00 -1.7305325678e+01 -2.2112953615e+01 2.8241344622e+01 0.0000000000e+00 0.0000e+00 -1.0000e+00
      -12  1    3    3    0    0 +9.8235443463e-01 +1.4241019150e+01 +4.0985994691e+01 4.3400730495e+01 0.0000000000e+00 0.0000e+00 1.0000e+00
</event>
<event>
 8      4 +3.7482383e-04 9.11880000e+01 7.81616400e-03 1.18400000e-01
      -11 -1    0    0    0    0 +0.0000000000e+00 +0.0000000000e+00 +4.5593999997e+01 4.5594000000e+01 5.1100000000e-04 0.0000e+00 1.0000e+00
       11 -1    0    0    0    0 -0.0000000000e+00 -0.0000000000e+00 -4.5593999997e+01 4.5594000000e+01 5.1100000000e-04 0.0000e+00 -1.0000e+00
       23  2    1    2    0    0 +0.0000000000e+00 +0.0000000000e+00 +0.0000000000e+00 9.1188000000e+01 9.1188000000e+01 1.4397e-14 0.0000e+00
 -9990012  2    3    3    0    0 +2.9594194108e+01 +2.4123490167e+01 +2.0636471423e+01 4.7787273560e+01 2.0000011468e+01 8.2399e-01 0.0000e+00
      -11  1    4    4    0    0 +1.2630314232e+01 +3.8665303056e+00 +1.2680205952e+01 1.8310175244e+01 5.1100000000e-04 0.0000e+00 1.0000e+00
       11  1    4    4    0    0 +1.6368388042e+01 +1.2506708280e+01 +5.4195303678e+00 2.1300544330e+01 5.1100000000e-04 0.0000e+00 -1.0000e+00
      -12  1    4    4    0    0 +5.9549183424e-01 +7.7502515813e+00 +2.5367351034e+00 8.1765539858e+00 0.0000000000e+00 0.0000e+00 1.0000e+00
       12  1    3    3    0    0 -2.9594194108e+01 -2.4123490167e+01 -2.0636471423e+01 4.3400726440e+01 0.0000000000e+00 0.0000e+00 -1.0000e+00
</event>
<event>
 8      3 +3.7482383e-04 9.11880000e+01 7.81616400e-03 1.18400000e-01
      -11 -1    0    0    0    0 +0.0000000000e+00 +0.0000000000e+00 +4.5593999997e+01 4.5594000000e+01 5.1100000000e-04 0.0000e+00 1.0000e+00
       11 -1    0    0    0    0 -0.0000000000e+00 -0.0000000000e+00 -4.5593999997e+01 4.5594000000e+01 5.1100000000e-04 0.0000e+00 -1.0000e+00
       23  2    1    2    0    0 +3.5527136788e-15 +0.0000000000e+00 +0.0000000000e+00 9.1188000000e+01 9.1188000000e+01 3.7701e-14 0.0000e+00
  9990012  2    3    3    0    0 -2.3140362910e+01 -1.6411974299e+01 -3.2844998022e+01 4.7787271999e+01 2.0000004352e+01 2.5905e-01 0.0000e+00
      -11  1    4    4    0    0 -5.5018305814e+00 -1.3300208600e+01 -1.3187912900e+01 1.9521442966e+01 5.1100000000e-04 0.0000e+00 1.0000e+00
       11  1    4    4    0    0 +6.9875840341e-01 -7.5616784571e-01 +2.8891638552e-01 1.0693577774e+00 5.1100000000e-04 0.0000e+00 -1.0000e+00
       12  1    4    4    0    0 -1.8337290732e+01 -2.3555978526e+00 -1.9946001507e+01 2.7196471256e+01 0.0000000000e+00 0.0000e+00 -1.0000e+00
      -12  1    3    3    0    0 +2.3140362910e+01 +1.6411974299e+01 +3.2844998022e+01 4.3400728001e+01 0.0000000000e+00 0.0000e+00 1.0000e+00
</event>
<event>
 8      4 +3.7482383e-04 9.11880000e+01 7.81616400e-03 1.18400000e-01
      -11 -1    0    0    0    0 +0.0000000000e+00 +0.0000000000e+00 +4.5593999997e+01 4.5594000000e+01 5.1100000000e-04 0.0000e+00 -1.0000e+00
       11 -1    0    0    0    0 -0.0000000000e+00 -0.0000000000e+00 -4.5593999997e+01 4.5594000000e+01 5.1100000000e-04 0.0000e+00 1.0000e+00
       23  2    1    2    0    0 +1.7763568394e-15 +3.5527136788e-15 +0.0000000000e+00 9.1188000000e+01 9.1188000000e+01 1.1176e-13 0.0000e+00
 -9990012  2    3    3    0    0 +1.4633620586e+01 +2.6652486311e+01 -3.0969751068e+01 4.7787270061e+01 1.9999995517e+01 1.2451e-01 0.0000e+00
      -11  1    4    4    0    0 +2.4654253362e+00 +7.9453500589e+00 -1.7126876060e+01 1.9040398985e+01 5.1100000000e-04 0.0000e+00 1.0000e+00
       11  1    4    4    0    0 +3.1705692785e+00 +1.5128360736e+01 -9.4208744839e+00 1.8101731530e+01 5.1100000000e-04 0.0000e+00 -1.0000e+00
      -12  1    4    4    0    0 +8.9976259717e+00 +3.5787755164e+00 -4.4220005236e+00 1.0645139546e+01 0.0000000000e+00 0.0000e+00 1.0000e+00
       12  1    3    3    0    0 -1.4633620586e+01 -2.6652486311e+01 +3.0969751068e+01 4.3400729939e+01 0.0000000000e+00 0.0000e+00 -1.0000e+00
</event>
<event>
 8      3 +3.7482383e-04 9.11880000e+01 7.81616400e-03 1.18400000e-01
      -11 -1    0    0    0    0 +0.0000000000e+00 +0.0000000000e+00 +4.5593999997e+01 4.5594000000e+01 5.1100000000e-04 0.0000e+00 -1.0000e+00
       11 -1    0    0    0    0 -0.0000000000e+00 -0.0000000000e+00 -4.5593999997e+01 4.5594000000e+01 5.1100000000e-04 0.0000e+00 1.0000e+00
       23  2    1    2    0    0 +1.7763568394e-15 +0.0000000000e+00 +0.0000000000e+00 9.1188000000e+01 9.1188000000e+01 1.1600e-14 0.0000e+00
  9990012  2    3    3    0    0 +1.5648995540e+01 -2.3325098884e+01 +3.3085827958e+01 4.7787270616e+01 1.9999998046e+01 6.3728e-02 0.0000e+00
      -11  1    4    4    0    0 +1.2305943644e+00 +6.2173438394e-01 +3.4419694029e+00 3.7078389616e+00 5.1100000000e-04 0.0000e+00 1.0000e+00
       11  1    4    4    0    0 +7.3052004626e-01 -1.0425092393e+01 +2.3937237919e+00 1.0721293056e+01 5.1100000000e-04 0.0000e+00 -1.0000e+00
       12  1    4    4    0    0 +1.3687881130e+01 -1.3521740875e+01 +2.7250134764e+01 3.3358138599e+01 0.0000000000e+00 0.0000e+00 -1.0000e+00
      -12  1    3    3    0    0 -1.5648995540e+01 +2.3325098884e+01 -3.3085827958e+01 4.3400729384e+01 0.0000000000e+00 0.0000e+00 1.0000e+00
</event>
<event>
 8      3 +3.7482383e-04 9.11880000e+01 7.81616400e-03 1.18400000e-01
      -11 -1    0    0    0    0 +0.0000000000e+00 +0.0000000000e+00 +4.5593999997e+01 4.5594000000e+01 5.1100000000e-04 0.0000e+00 -1.0000e+00
       11 -1    0    0    0    0 -0.0000000000e+00 -0.0000000000e+00 -4.5593999997e+01 4.5594000000e+01 5.1100000000e-04 0.0000e+00 1.0000e+00
       23  2    1    2    0    0 +0.0000000000e+00 +0.0000000000e+00 +0.0000000000e+00 9.1188000000e+01 9.1188000000e+01 3.6008e-14 0.0000e+00
  9990012  2    3    3    0    0 -2.5746805256e+01 +2.5354807795e+00 +3.4846743385e+01 4.7787283782e+01 2.0000058075e+01 4.1297e-01 0.0000e+00
      -11  1    4    4    0    0 -4.6987634048e+00 -1.3098063525e+00 -1.4670672885e+00 5.0937468435e+00 5.1100000000e-04 0.0000e+00 1.0000e+00
       11  1    4    4    0    0 -1.2103317622e+01 -4.1183790125e-01 +2.4064273463e+01 2.6939732098e+01 5.1100000000e-04 0.0000e+00 -1.0000e+00
       12  1    4    4    0    0 -8.9447242291e+00 +4.2571250333e+00 +1.2249537210e+01 1.5753804840e+01 0.0000000000e+00 0.0000e+00 -1.0000e+00
      -12  1    3    3    0    0 +2.5746805256e+01 -2.5354807795e+00 -3.4846743385e+01 4.3400716218e+01 0.0000000000e+00 0.0000e+00 1.0000e+00
</event>
<event>
 8      4 +3.7482383e-04 9.11880000e+01 7.81616400e-03 1.18400000e-01
      -11 -1    0    0    0    0 +0.0000000000e+00 +0.0000000000e+00 +4.5593999997e+01 4.5594000000e+01 5.1100000000e-04 0.0000e+00 1.0000e+00
       11 -1    0    0    0    0 -0.0000000000e+00 -0.0000000000e+00 -4.5593999997e+01 4.5594000000e+01 5.1100000000e-04 0.0000e+00 -1.0000e+00
       23  2    1    2    0    0 +7.1054273576e-15 -1.7763568394e-15 -3.5527136788e-15 9.1188000000e+01 9.1188000000e+01 5.7006e-15 0.0000e+00
 -9990012  2    3    3    0    0 +3.9998460017e+01 -1.2580749336e+01 -1.1201396068e+01 4.7787270381e+01 1.9999996973e+01 1.1346e-01 0.0000e+00
      -11  1    4    4    0    0 +9.4989987405e+00 -5.4043546304e+00 -2.3732979582e+00 1.1183495406e+01 5.1100000000e-04 0.0000e+00 -1.0000e+00
       11  1    4    4    0    0 +1.4097171850e+01 -1.4682028898e+00 -1.2447627501e+01 1.8863438302e+01 5.1100000000e-04 0.0000e+00 1.0000e+00
      -12  1    4    4    0    0 +1.6402289426e+01 -5.7081918163e+00 +3.6195293911e+00 1.7740336672e+01 0.0000000000e+00 0.0000e+00 1.0000e+00
       12  1    3    3    0    0 -3.9998460017e+01 +1.2580749336e+01 +1.1201396068e+01 4.3400729619e+01 0.0000000000e+00 0.0000e+00 -1.0000e+00
</event>
<event>
 8      4 +3.7482383e-04 9.11880000e+01 7.81616400e-03 1.18400000e-01
      -11 -1    0    0    0    0 +0.0000000000e+00 +0.0000000000e+00 +4.5593999997e+01 4.5594000000e+01 5.1100000000e-04 0.0000e+00 1.0000e+00
       11 -1    0    0    0    0 -0.0000000000e+00 -0.0000000000e+00 -4.5593999997e+01 4.5594000000e+01 5.1100000000e-04 0.0000e+00 -1.0000e+00
       23  2    1    2    0    0 +0.0000000000e+00 +0.0000000000e+00 +0.0000000000e+00 9.1188000000e+01 9.1188000000e+01 5.2919e-14 0.0000e+00
 -9990012  2    3    3    0    0 +9.7905525928e+00 -1.8409527568e+01 +3.8063861138e+01 4.7787272470e+01 2.0000006501e+01 7.8865e-02 0.0000e+00
      -11  1    4    4    0    0 +8.4345520139e-01 -8.8097332545e+00 +9.6222507274e+00 1.3073275260e+01 5.1100000000e-04 0.0000e+00 1.0000e+00
       11  1    4    4    0    0 +1.5935858089e+00 +3.9579363638e+00 +4.2377315583e+00 6.0135800495e+00 5.1100000000e-04 0.0000e+00 -1.0000e+00
      -12  1    4    4    0    0 +7.3535115825e+00 -1.3557730677e+01 +2.4203878853e+01 2.8700417161e+01 0.0000000000e+00 0.0000e+00 1.0000e+00
       12  1    3    3    0    0 -9.7905525928e+00 +1.8409527568e+01 -3.8063861138e+01 4.3400727530e+01 0.0000000000e+00 0.0000e+00 -1.0000e+00
</event>
<event>
 8      3 +3.7482383e-04 9.11880000e+01 7.81616400e-03 1.18400000e-01
      -11 -1    0    0    0    0 +0.0000000000e+00 +0.0000000000e+00 +4.5593999997e+01 4.5594000000e+01 5.1100000000e-04 0.0000e+00 -1.0000e+00
       11 -1    0    0    0    0 -0.0000000000e+00 -0.0000000000e+00 -4.5593999997e+01 4.5594000000e+01 5.1100000000e-04 0.0000e+00 1.0000e+00
       23  2    1    2    0    0 -7.1054273576e-15 +0.0000000000e+00 +3.5527136788e-15 9.1188000000e+01 9.1188000000e+01 8.6238e-14 0.0000e+00
  9990012  2    3    3    0    0 -3.5788453509e+01 +1.7338914647e+01 +1.7383107375e+01 4.7787265125e+01 1.9999973010e+01 2.0649e-01 0.0000e+00
      -11  1    4    4    0    0 -9.1170447707e+00 -1.1619907440e-01 -5.6243556562e-01 9.1351158505e+00 5.1100000000e-04 0.0000e+00 1.0000e+00
       11  1    4    4    0    0 -8.1688323009e+00 +1.2907297757e+00 +7.3445588653e-02 8.2705017399e+00 5.1100000000e-04 0.0000e+00 -1.0000e+00
       12  1    4    4    0    0 -1.8502576437e+01 +1.6164383945e+01 +1.7872097352e+01 3.0381647534e+01 0.0000000000e+00 0.0000e+00 -1.0000e+00
      -12  1    3    3    0    0 +3.5788453509e+01 -1.7338914647e+01 -1.7383107375e+01 4.3400734875e+01 0.0000000000e+00 0.0000e+00 1.0000e+00
</event>
<event>
 8      4 +3.7482383e-04 9.11880000e+01 7.81616400e-03 1.18400000e-01
      -11 -1    0    0    0    0 +0.0000000000e+00 +0.0000000000e+00 +4.5593999997e+01 4.5594000000e+01 5.1100000000e-04 0.0000e+00 -1.0000e+00
       11 -1    0    0    0    0 -0.0000000000e+00 -0.0000000000e+00 -4.5593999997e+01 4.5594000000e+01 5.1100000000e-04 0.0000e+00 1.0000e+00
       23  2    1    2    0    0 +0.0000000000e+00 +1.1102230246e-15 +0.0000000000e+00 9.1188000000e+01 9.1188000000e+01 5.6315e-14 0.0000e+00
 -9990012  2    3    3    0    0 -4.2206084002e+01 -1.6645283762e+00 -9.9749297245e+00 4.7787269540e+01 1.9999993140e+01 1.1997e-01 0.0000e+00
      -11  1    4    4    0    0 -1.4839562347e+01 +2.7055557058e+00 -5.1160810411e+00 1.5928180305e+01 5.1100000000e-04 0.0000e+00 1.0000e+00
       11  1    4    4    0    0 -2.3908668629e+01 -9.6207422214e-01 +1.3634088069e+00 2.3966829291e+01 5.1100000000e-04 0.0000e+00 -1.0000e+00
      -12  1    4    4    0    0 -3.4578530248e+00 -3.4080098599e+00 -6.2222574904e+00 7.8922599439e+00 0.0000000000e+00 0.0000e+00 1.0000e+00
       12  1    3    3    0    0 +4.2206084002e+01 +1.6645283762e+00 +9.9749297245e+00 4.3400730460e+01 0.0000000000e+00 0.0000e+00 -1.0000e+00
</event>
<event>
 8      4 +3.7482383e-04 9.11880000e+01 7.81616400e-03 1.18400000e-01
      -11 -1    0    0    0    0 +0.0000000000e+00 +0.0000000000e+00 +4.5593999997e+01 4.5594000000e+01 5.1100000000e-04 0.0000e+00 1.0000e+00
       11 -1    0    0    0    0 -0.0000000000e+00 -0.0000000000e+00 -4.5593999997e+01 4.5594000000e+01 5.1100000000e-04 0.0000e+00 -1.0000e+00
       23  2    1    2    0    0 -3.5527136788e-15 +1.7763568394e-15 +0.0000000000e+00 9.1188000000e+01 9.1188000000e+01 3.1781e-13 0.0000e+00
 -9990012  2    3    3    0    0 +2.9404034551e+01 +1.3046588354e+01 -2.9134387832e+01 4.7787271090e+01 2.0000000209e+01 1.5352e-01 0.0000e+00
      -11  1    4    4    0    0 +1.2444528787e+01 +7.8889792766e+00 -4.9324419391e+00 1.5538058904e+01 5.1100000000e-04 0.0000e+00 1.0000e+00
       11  1    4    4    0    0 -1.6738160313e+00 +1.6496934818e+00 -2.5020792524e+00 3.4327175149e+00 5.1100000000e-04 0.0000e+00 -1.0000e+00
      -12  1    4    4    0    0 +1.8633321795e+01 +3.5079155960e+00 -2.1699866641e+01 2.8816494672e+01 0.0000000000e+00 0.0000e+00 1.0000e+00
       12  1    3    3    0    0 -2.9404034551e+01 -1.3046588354e+01 +2.9134387832e+01 4.3400728910e+01 0.0000000000e+00 0.0000e+00 -1.0000e+00
</event>
<event>
 8      3 +3.7482383e-04 9.11880000e+01 7.81616400e-03 1.18400000e-01
      -11 -1    0    0    0    0 +0.0000000000e+00 +0.0000000000e+00 +4.5593999997e+01 4.5594000000e+01 5.1100000000e-04 0.0000e+00 -1.0000e+00
       11 -1    0    0    0    0 -0.0000000000e+00 -0.0000000000e+00 -4.5593999997e+01 4.5594000000e+01 5.1100000000e-04 0.0000e+00 1.0000e+00
       23  2    1    2    0    0 +0.0000000000e+00 -7.1054273576e-15 -2.2204460493e-16 9.1188000000e+01 9.1188000000e+01 1.2293e-13 0.0000e+00
  9990012  2    3    3    0    0 +7.1123208565e+00 -4.2802217227e+01 -1.0025462358e+00 4.7787308687e+01 2.0000171627e+01 4.5796e-01 0.0000e+00
      -11  1    4    4    0    0 +5.2040540939e+00 -4.0830941590e+00 +3.0272161842e+00 7.2744673352e+00 5.1100000000e-04 0.0000e+00 1.0000e+00
       11  1    4    4    0    0 -2.6408328210e+00 -2.9989430961e+00 -1.9441590792e+00 4.4438060790e+00 5.1100000000e-04 0.0000e+00 -1.0000e+00
       12  1    4    4    0    0 +4.5490995835e+00 -3.5720179972e+01 -2.0856033408e+00 3.6069035273e+01 0.0000000000e+00 0.0000e+00 -1.0000e+00
      -12  1    3    3    0    0 -7.1123208565e+00 +4.2802217227e+01 +1.0025462358e+00 4.3400691313e+01 0.0000000000e+00 0.0000e+00 1.0000e+00
</event>
<event>
 8      3 +3.7482383e-04 9.11880000e+01 7.81616400e-03 1.18400000e-01
      -11 -1    0    0    0    0 +0.0000000000e+00 +0.0000000000e+00 +4.5593999997e+01 4.5594000000e+01 5.1100000000e-04 0.0000e+00 1.0000e+00
       11 -1    0    0    0    0 -0.0000000000e+00 -0.0000000000e+00 -4.5593999997e+01 4.5594000000e+01 5.1100000000e-04 0.0000e+00 -1.0000e+00
       23  2    1    2    0    0 +0.0000000000e+00 -8.8817841970e-16 -7.1054273576e-15 9.1188000000e+01 9.1188000000e+01 4.5440e-14 0.0000e+00
  9990012  2    3    3    0    0 +1.2621182533e+01 +6.4185268080e+00 -4.1025986803e+01 4.7787270419e+01 1.9999997150e+01 5.5431e-01 0.0000e+00
      -11  1    4    4    0    0 +1.6212625842e+01 +6.6313388054e+00 -3.4229063624e+01 3.8450652632e+01 5.1100000000e-04 0.0000e+00 -1.0000e+00
       11  1    4    4    0    0 -3.5131606850e+00 -1.8325359572e+00 -2.3583763725e+00 4.6111197565e+00 5.1100000000e-04 0.0000e+00 1.0000e+00
       12  1    4    4    0    0 -7.8282623752e-02 +1.6197239598e+00 -4.4385468073e+00 4.7254980305e+00 0.0000000000e+00 0.0000e+00 -1.0000e+00
      -12  1    3    3    0    0 -1.2621182533e+01 -6.4185268080e+00 +4.1025986803e+01 4.3400729581e+01 0.0000000000e+00 0.0000e+00 1.0000e+00
</event>
<event>
 8      3 +3.7482383e-04 9.11880000e+01 7.81616400e-03 1.18400000e-01
      -11 -1    0    0    0    0 +0.0000000000e+00 +0.0000000000e+00 +4.5593999997e+01 4.5594000000e+01 5.1100000000e-04 0.0000e+00 -1.0000e+00
       11 -1    0    0    0    0 -0.0000000000e+00 -0.0000000000e+00 -4.5593999997e+01 4.5594000000e+01 5.1100000000e-04 0.0000e+00 1.0000e+00
       23  2    1    2    0    0 +8.8817841970e-16 +7.1054273576e-15 -7.1054273576e-15 9.1188000000e+01 9.1188000000e+01 3.6842e-14 0.0000e+00
  9990012  2    3    3    0    0 -6.3875943126e+00 -2.9297709248e+01 +3.1376204187e+01 4.7787270542e+01 1.9999997711e+01 1.7331e-01 0.0000e+00
      -11  1    4    4    0    0 +9.5439560719e-01 -3.2824234516e+00 -5.4774086763e-01 3.4619640394e+00 5.1100000000e-04 0.0000e+00 1.0000e+00
       11  1    4    4    0    0 -7.0720255660e+00 -2.9785337369e+00 +7.0359008915e+00 1.0411009098e+01 5.1100000000e-04 0.0000e+00 -1.0000e+00
       12  1    4    4    0    0 -2.6996435378e-01 -2.3036752059e+01 +2.4888044163e+01 3.3914297405e+01 0.0000000000e+00 0.0000e+00 -1.0000e+00
      -12  1    3    3    0    0 +6.3875943126e+00 +2.9297709248e+01 -3.1376204187e+01 4.3400729458e+01 0.0000000000e+00 0.0000e+00 1.0000e+00
</event>
<event>
 8      3 +3.7482383e-04 9.11880000e+01 7.81616400e-03 1.18400000e-01
      -11 -1    0    0    0    0 +0.0000000000e+00 +0.0000000000e+00 +4.5593999997e+01 4.5594000000e+01 5.1100000000e-04 0.0000e+00 1.0000e+00
       11 -1    0    0    0    0 -0.0000000000e+00 -0.0000000000e+00 -4.5593999997e+01 4.5594000000e+01 5.1100000000e-04 0.0000e+00 -1.0000e+00
       23  2    1    2    0    0 -2.2204460493e-16 +0.0000000000e+00 +0.0000000000e+00 9.1188000000e+01 9.1188000000e+01 1.7242e-14 0.0000e+00
  9990012  2    3    3    0    0 -1.9841585233e+00 -2.7844181743e+01 -3.3232326085e+01 4.7787276055e+01 2.0000022844e+01 8.6466e-02 0.0000e+00
      -11  1    4    4    0    0 -1.9644332925e-01 -7.2909401873e-01 +1.3011077615e+00 1.5043436236e+00 5.1100000000e-04 0.0000e+00 1.0000e+00
       11  1    4    4    0    0 +5.3183239928e+00 -1.1618845684e+01 -2.0710051233e+01 2.4334920741e+01 5.1100000000e-04 0.0000e+00 -1.0000e+00
       12  1    4    4    0    0 -7.1060391869e+00 -1.5496242040e+01 -1.3823382613e+01 2.1948011690e+01 0.0000000000e+00 0.0000e+00 -1.0000e+00
      -12  1    3    3    0    0 +1.9841585233e+00 +2.7844181743e+01 +3.3232326085e+01 4.3400723945e+01 0.0000000000e+00 0.0000e+00 1.0000e+00
</event>
<event>
 8      3 +3.7482383e-04 9.11880000e+01 7.81616400e-03 1.18400000e-01
      -11 -1    0    0    0    0 +0.0000000000e+00 +0.0000000000e+00 +4.5593999997e+01 4.5594000000e+01 5.1100000000e-04 0.0000e+00 -1.0000e+00
       11 -1    0    0    0    0 -0.0000000000e+00 -0.0000000000e+00 -4.5593999997e+01 4.5594000000e+01 5.1100000000e-04 0.0000e+00 1.0000e+00
       23  2    1    2    0    0 +3.5527136788e-15 +7.1054273576e-15 +1.7763568394e-15 9.1188000000e+01 9.1188000000e+01 1.2094e-14 0.0000e+00
  9990012  2    3    3    0    0 -2.1055945767e+01 -3.5174308182e+01 -1.4249164095e+01 4.7787268605e+01 1.9999988878e+01 3.6465e-01 0.0000e+00
      -11  1    4    4    0    0 -7.0371317887e+00 -4.6794875782e+00 -4.1405512255e+00 9.4107912802e+00 5.1100000000e-04 0.0000e+00 1.0000e+00
       11  1    4    4    0    0 -1.2173695695e+01 -1.2434494732e+01 +3.8825251979e-01 1.7405926186e+01 5.1100000000e-04 0.0000e+00 -1.0000e+00
       12  1    4    4    0    0 -1.8451182832e+00 -1.8060325871e+01 -1.0496865389e+01 2.0970551139e+01 0.0000000000e+00 0.0000e+00 -1.0000e+00
      -12  1    3    3    0    0 +2.1055945767e+01 +3.5174308182e+01 +1.4249164095e+01 4.3400731395e+01 0.0000000000e+00 0.0000e+00 1.0000e+00
</event>
<event>
 8      4 +3.7482383e-04 9.11880000e+01 7.81616400e-03 1.18400000e-01
      -11 -1    0    0    0    0 +0.0000000000e+00 +0.0000000000e+00 +4.5593999997e+01 4.5594000000e+01 5.1100000000e-04 0.0000e+00 -1.0000e+00
       11 -1    0    0    0    0 -0.0000000000e+00 -0.0000000000e+00 -4.5593999997e+01 4.5594000000e+01 5.1100000000e-04 0.0000e+00 1.0000e+00
       23  2    1    2    0    0 +0.0000000000e+00 +0.0000000000e+00 +0.0000000000e+00 9.1188000000e+01 9.1188000000e+01 1.8427e-14 0.0000e+00
 -9990012  2    3    3    0    0 +1.9358886636e+01 -2.6622912226e+01 -2.8285638909e+01 4.7787270563e+01 1.9999997804e+01 6.9026e-02 0.0000e+00
      -11  1    4    4    0    0 -2.3344650373e+00 +2.0568354246e-01 -3.1710662581e+00 3.9430564547e+00 5.1100000000e-04 0.0000e+00 1.0000e+00
       11  1    4    4    0    0 +2.9881574991e+00 -8.6604934011e+00 -2.9611772509e+00 9.6281775099e+00 5.1100000000e-04 0.0000e+00 -1.0000e+00
      -12  1    4    4    0    0 +1.8705194174e+01 -1.8168102367e+01 -2.2153395400e+01 3.4216036598e+01 0.0000000000e+00 0.0000e+00 1.0000e+00
       12  1    3    3    0    0 -1.9358886636e+01 +2.6622912226e+01 +2.8285638909e+01 4.3400729437e+01 0.0000000000e+00 0.0000e+00 -1.0000e+00
</event>
<event>
 8      4 +3.7482383e-04 9.11880000e+01 7.81616400e-03 1.18400000e-01
      -11 -1    0    0    0    0 +0.0000000000e+00 +0.0000000000e+00 +4.5593999997e+01 4.5594000000e+01 5.1100000000e-04 0.0000e+00 -1.0000e+00
       11 -1    0    0    0    0 -0.0000000000e+00 -0.0000000000e+00 -4.5593999997e+01 4.5594000000e+01 5.1100000000e-04 0.0000e+00 1.0000e+00
       23  2    1    2    0    0 -1.7763568394e-15 +3.5527136788e-15 +7.1054273576e-15 9.1188000000e+01 9.1188000000e+01 4.1964e-14 0.0000e+00
 -9990012  2    3    3    0    0 -1.0965985874e+01 +1.8328271898e+01 -3.7781539151e+01 4.7787273076e+01 2.0000009262e+01 3.7793e-01 0.0000e+00
      -11  1    4    4    0    0 +1.5210247666e+00 +2.2124473523e-01 +2.4527080824e-01 1.5564779484e+00 5.1100000000e-04 0.0000e+00 1.0000e+00
       11  1    4    4    0    0 -2.3741615269e-01 -2.1174618989e+00 -1.1409049806e+00 2.4169558868e+00 5.1100000000e-04 0.0000e+00 -1.0000e+00
      -12  1    4    4    0    0 -1.2249594488e+01 +2.0224489061e+01 -3.6885904979e+01 4.3813839241e+01 0.0000000000e+00 0.0000e+00 1.0000e+00
       12  1    3    3    0    0 +1.0965985874e+01 -1.8328271898e+01 +3.7781539151e+01 4.3400726924e+01 0.0000000000e+00 0.0000e+00 -1.0000e+00
</event>
<event>
 8      3 +3.7482383e-04 9.11880000e+01 7.81616400e-03 1.18400000e-01
      -11 -1    0    0    0    0 +0.0000000000e+00 +0.0000000000e+00 +4.5593999997e+01 4.5594000000e+01 5.1100000000e-04 0.0000e+00 -1.0000e+00
       11 -1    0    0    0    0 -0.0000000000e+00 -0.0000000000e+00 -4.5593999997e+01 4.5594000000e+01 5.1100000000e-04 0.0000e+00 1.0000e+00
       23  2    1    2    0    0 -8.8817841970e-16 +0.0000000000e+00 +3.5527136788e-15 9.1188000000e+01 9.1188000000e+01 4.1398e-14 0.0000e+00
  9990012  2    3    3    0    0 +6.3023586814e+00 +3.8805547067e+01 -1.8385674090e+01 4.7787271667e+01 2.0000002836e+01 4.4217e-02 0.0000e+00
      -11  1    4    4    0    0 +2.5912055760e+00 +1.5814161044e+00 +2.0633935819e+00 3.6705335535e+00 5.1100000000e-04 0.0000e+00 1.0000e+00
       11  1    4    4    0    0 -1.2412171141e+00 +2.9479935613e+01 -1.2819214127e+01 3.2170475203e+01 5.1100000000e-04 0.0000e+00 -1.0000e+00
       12  1    4    4    0    0 +4.9523702195e+00 +7.7441953496e+00 -7.6298535447e+00 1.1946262910e+01 0.0000000000e+00 0.0000e+00 -1.0000e+00
      -12  1    3    3    0    0 -6.3023586814e+00 -3.8805547067e+01 +1.8385674090e+01 4.3400728333e+01 0.0000000000e+00 0.0000e+00 1.0000e+00
</event>
<event>
 8      4 +3.7482383e-04 9.11880000e+01 7.81616400e-03 1.18400000e-01
      -11 -1    0    0    0    0 +0.0000000000e+00 +0.0000000000e+00 +4.5593999997e+01 4.5594000000e+01 5.1100000000e-04 0.0000e+00 -1.0000e+00
       11 -1    0    0    0    0 -0.0000000000e+00 -0.0000000000e+00 -4.5593999997e+01 4.5594000000e+01 5.1100000000e-04 0.0000e+00 1.0000e+00
       23  2    1    2    0    0 +0.0000000000e+00 +0.0000000000e+00 +0.0000000000e+00 9.1188000000e+01 9.1188000000e+01 5.8727e-14 0.0000e+00
 -9990012  2    3    3    0    0 -3.9297876397e+01 -4.4447304024e+00 +1.7875811711e+01 4.7787270030e+01 1.9999995374e+01 2.4218e-01 0.0000e+00
      -11  1    4    4    0    0 -1.7447141667e+01 -5.2462495387e+00 +7.8423498800e+00 1.9835028068e+01 5.1100000000e-04 0.0000e+00 1.0000e+00
       11  1    4    4    0    0 -3.0251857640e+00 -4.6022965096e+00 +5.6333444654e+00 7.8782899284e+00 5.1100000000e-04 0.0000e+00 -1.0000e+00
      -12  1    4    4    0    0 -1.8825548966e+01 +5.4038156458e+00 +4.4001173651e+00 2.0073952033e+01 0.0000000000e+00 0.0000e+00 1.0000e+00
       12  1    3    3    0    0 +3.9297876397e+01 +4.4447304024e+00 -1.7875811711e+01 4.3400729970e+01 0.0000000000e+00 0.0000e+00 -1.0000e+00
</event>
<event>
 8      4 +3.7482383e-04 9.11880000e+01 7.81616400e-03 1.18400000e-01
      -11 -1    0    0    0    0 +0.0000000000e+00 +0.0000000000e+00 +4.5593999997e+01 4.5594000000e+01 5.1100000000e-04 0.0000e+00 -1.0000e+00
       11 -1    0    0    0    0 -0.0000000000e+00 -0.0000000000e+00 -4.5593999997e+01 4.5594000000e+01 5.1100000000e-04 0.0000e+00 1.0000e+00
       23  2    1    2    0    0 +0.0000000000e+00 +0.0000000000e+00 -3.5527136788e-15 9.1188000000e+01 9.1188000000e+01 1.4794e-13 0.0000e+00
 -9990012  2    3    3    0    0 +2.5980505738e+01 -1.6419980231e+01 -3.0643447177e+01 4.7787270927e+01 1.9999999465e+01 2.0386e-01 0.0000e+00
      -11  1    4    4    0    0 +1.7717962094e+01 -1.0289473556e+01 -1.4073188563e+01 2.4856670803e+01 5.1100000000e-04 0.0000e+00 1.0000e+00
       11  1    4    4    0    0 +6.3074497489e+00 +1.9523685126e+00 -3.5917068928e+00 7.5163836922e+00 5.1100000000e-04 0.0000e+00 -1.0000e+00
      -12  1    4    4    0    0 +1.9550938951e+00 -8.0828751873e+00 -1.2978551721e+01 1.5414216432e+01 0.0000000000e+00 0.0000e+00 1.0000e+00
       12  1    3    3    0    0 -2.5980505738e+01 +1.6419980231e+01 +3.0643447177e+01 4.3400729073e+01 0.0000000000e+00 0.0000e+00 -1.0000e+00
</event>
<event>
 8      4 +3.7482383e-04 9.11880000e+01 7.81616400e-03 1.18400000e-01
      -11 -1    0    0    0    0 +0.0000000000e+00 +0.0000000000e+00 +4.5593999997e+01 4.5594000000e+01 5.1100000000e-04 0.0000e+00 1.0000e+00
       11 -1    0    0    0    0 -0.0000000000e+00 -0.0000000000e+00 -4.5593999997e+01 4.5594000000e+01 5.1100000000e-04 0.0000e+00 -1.0000e+00
       23  2    1    2    0    0 -7.1054273576e-15 +0.0000000000e+00 +0.0000000000e+00 9.1188000000e+01 9.1188000000e+01 4.1152e-14 0.0000e+00
 -9990012  2    3    3    0    0 -2.8617937109e+01 +7.0972195063e+00 +3.1847553432e+01 4.7787268339e+01 1.9999987667e+01 4.1851e-01 0.0000e+00
      -11  1    4    4    0    0 -3.1618420397e+00 +3.3081075777e+00 -1.8106753330e+00 4.9213175321e+00 5.1100000000e-04 0.0000e+00 1.0000e+00
       11  1    4    4    0    0 -1.8004105914e+01 -2.1123031056e-01 +2.4428411219e+01 3.0346988697e+01 5.1100000000e-04 0.0000e+00 -1.0000e+00
      -12  1    4    4    0    0 -7.4519891552e+00 +4.0003422392e+00 +9.2298175455e+00 1.2518962110e+01 0.0000000000e+00 0.0000e+00 1.0000e+00
       12  1    3    3    0    0 +2.8617937109e+01 -7.0972195063e+00 -3.1847553432e+01 4.3400731661e+01 0.0000000000e+00 0.0000e+00 -1.0000e+00
</event>
<event>
 8      4 +3.7482383e-04 9.11880000e+01 7.81616400e-03 1.18400000e-01
      -11 -1    0    0    0    0 +0.0000000000e+00 +0.0000000000e+00 +4.5593999997e+01 4.5594000000e+01 5.1100000000e-04 0.0000e+00 -1.0000e+00
       11 -1    0    0    0    0 -0.0000000000e+00 -0.0000000000e+00 -4.5593999997e+01 4.5594000000e+01 5.1100000000e-04 0.0000e+00 1.0000e+00
       23  2    1    2    0    0 +0.0000000000e+00 +0.0000000000e+00 +0.0000000000e+00 9.1188000000e+01 9.1188000000e+01 2.6250e-14 0.0000e+00
 -9990012  2    3    3    0    0 +1.7244534882e+01 +2.0783096024e+01 -3.3975169932e+01 4.7787271486e+01 2.0000002012e+01 1.2100e-01 0.0000e+00
      -11  1    4    4    0    0 +6.5736243807e+00 +6.4904903619e+00 -4.9860747009e+00 1.0497616102e+01 5.1100000000e-04 0.0000e+00 -1.0000e+00
       11  1    4    4    0    0 +1.3349320745e+00 +1.3204442538e+00 -1.7514112672e+01 1.7614475854e+01 5.1100000000e-04 0.0000e+00 1.0000e+00
      -12  1    4    4    0    0 +9.3359784266e+00 +1.2972161408e+01 -1.1474982560e+01 1.9675179530e+01 0.0000000000e+00 0.0000e+00 1.0000e+00
       12  1    3    3    0    0 -1.7244534882e+01 -2.0783096024e+01 +3.3975169932e+01 4.3400728514e+01 0.0000000000e+00 0.0000e+00 -1.0000e+00
</event>
<event>
 8      3 +3.7482383e-04 9.11880000e+01 7.81616400e-03 1.18400000e-01
      -11 -1    0    0    0    0 +0.0000000000e+00 +0.0000000000e+00 +4.5593999997e+01 4.5594000000e+01 5.1100000000e-04 0.0000e+00 1.0000e+00
       11 -1    0    0    0    0 -0.0000000000e+00 -0.0000000000e+00 -4.5593999997e+01 4.5594000000e+01 5.1100000000e-04 0.0000e+00 -1.0000e+00
       23  2    1    2    0    0 +0.0000000000e+00 +0.0000000000e+00 +8.8817841970e-16 9.1188000000e+01 9.1188000000e+01 5.0337e-14 0.0000e+00
  9990012  2    3    3    0    0 -2.5193281782e+01 +3.4813411844e+01 +6.0784788151e+00 4.7787274247e+01 2.0000014604e+01 1.3518e-01 0.0000e+00
      -11  1    4    4    0    0 -8.9789640937e+00 +9.7559931511e+00 +6.2433332021e+00 1.4655388371e+01 5.1100000000e-04 0.0000e+00 1.0000e+00
       11  1    4    4    0    0 -4.9133122960e+00 +1.0454644271e+01 +6.7913759704e+00 1.3400112402e+01 5.1100000000e-04 0.0000e+00 -1.0000e+00
       12  1    4    4    0    0 -1.1301005392e+01 +1.4602774422e+01 -6.9562303574e+00 1.9731773475e+01 0.0000000000e+00 0.0000e+00 -1.0000e+00
      -12  1    3    3    0    0 +2.5193281782e+01 -3.4813411844e+01 -6.0784788151e+00 4.3400725753e+01 0.0000000000e+00 0.0000e+00 1.0000e+00
</event>
<event>
 8      3 +3.7482383e-04 9.11880000e+01 7.81616400e-03 1.18400000e-01
      -11 -1    0    0    0    0 +0.0000000000e+00 +0.0000000000e+00 +4.5593999997e+01 4.5594000000e+01 5.1100000000e-04 0.0000e+00 -1.0000e+00
       11 -1    0    0    0    0 -0.0000000000e+00 -0.0000000000e+00 -4.5593999997e+01 4.5594000000e+01 5.1100000000e-04 0.0000e+00 1.0000e+00
       23  2    1    2    0    0 -3.5527136788e-15 +0.0000000000e+00 +0.0000000000e+00 9.1188000000e+01 9.1188000000e+01 6.7733e-14 0.0000e+00
  9990012  2    3    3    0    0 +2.4442165811e+01 -3.5522806223e+01 +4.9329552782e+00 4.7787270982e+01 1.9999999716e+01 9.2299e-03 0.0000e+00
      -11  1    4    4    0    0 +7.9361273424e+00 -1.0410692049e+01 -3.7238230056e+00 1.3609977376e+01 5.1100000000e-04 0.0000e+00 1.0000e+00
       11  1    4    4    0    0 +5.4998995374e+00 -1.4190836387e+01 +1.0605636666e+01 1.8550155299e+01 5.1100000000e-04 0.0000e+00 -1.0000e+00
       12  1    4    4    0    0 +1.1006138932e+01 -1.0921277787e+01 -1.9488583818e+00 1.5627138308e+01 0.0000000000e+00 0.0000e+00 -1.0000e+00
      -12  1    3    3    0    0 -2.4442165811e+01 +3.5522806223e+01 -4.9329552782e+00 4.3400729018e+01 0.0000000000e+00 0.0000e+00 1.0000e+00
</event>
<event>
 8      3 +3.7482383e-04 9.11880000e+01 7.81616400e-03 1.18400000e-01
      -11 -1    0    0    0    0 +0.0000000000e+00 +0.0000000000e+00 +4.5593999997e+01 4.5594000000e+01 5.1100000000e-04 0.0000e+00 -1.0000e+00
       11 -1    0    0    0    0 -0.0000000000e+00 -0.0000000000e+00 -4.5593999997e+01 4.5594000000e+01 5.1100000000e-04 0.0000e+00 1.0000e+00
       23  2    1    2    0    0 +0.0000000000e+00 +0.0000000000e+00 +7.1054273576e-15 9.1188000000e+01 9.1188000000e+01 1.4827e-13 0.0000e+00
  9990012  2    3    3    0    0 +7.0048317103e+00 -1.2396635146e+01 +4.0998523899e+01 4.7787271986e+01 2.0000004294e+01 1.0753e-01 0.0000e+00
      -11  1    4    4    0    0 +1.4927879641e+00 +5.2679716367e+00 +6.8704743626e+00 8.7854060407e+00 5.1100000000e-04 0.0000e+00 -1.0000e+00
       11  1    4    4    0    0 +3.6734047311e+00 -1.3133272267e+01 +2.1502995328e+01 2.5462826848e+01 5.1100000000e-04 0.0000e+00 1.0000e+00
       12  1    4    4    0    0 +1.8386390151e+00 -4.5313345152e+00 +1.2625054208e+01 1.3539039097e+01 0.0000000000e+00 0.0000e+00 -1.0000e+00
      -12  1    3    3    0    0 -7.0048317103e+00 +1.2396635146e+01 -4.0998523899e+01 4.3400728014e+01 0.0000000000e+00 0.0000e+00 1.0000e+00
</event>
<event>
 8      4 +3.7482383e-04 9.11880000e+01 7.81616400e-03 1.18400000e-01
      -11 -1    0    0    0    0 +0.0000000000e+00 +0.0000000000e+00 +4.5593999997e+01 4.5594000000e+01 5.1100000000e-04 0.0000e+00 -1.0000e+00
       11 -1    0    0    0    0 -0.0000000000e+00 -0.0000000000e+00 -4.5593999997e+01 4.5594000000e+01 5.1100000000e-04 0.0000e+00 1.0000e+00
       23  2    1    2    0    0 +4.4408920985e-16 +3.5527136788e-15 -3.5527136788e-15 9.1188000000e+01 9.1188000000e+01 1.3067e-13 0.0000e+00
 -9990012  2    3    3    0    0 -2.3136450078e+00 +3.1185625492e+01 -3.0095300492e+01 4.7787270718e+01 1.9999998510e+01 1.6976e-01 0.0000e+00
      -11  1    4    4    0    0 +1.6827397014e-01 +6.8074987001e+00 -5.6919088041e+00 8.8751439863e+00 5.1100000000e-04 0.0000e+00 1.0000e+00
       11  1    4    4    0    0 -2.8470265472e+00 +1.1494550133e+01 -2.3098997463e+01 2.5957540850e+01 5.1100000000e-04 0.0000e+00 -1.0000e+00
      -12  1    4    4    0    0 +3.6510756929e-01 +1.2883576659e+01 -1.3043942243e+00 1.2954585881e+01 0.0000000000e+00 0.0000e+00 1.0000e+00
       12  1    3    3    0    0 +2.3136450078e+00 -3.1185625492e+01 +3.0095300492e+01 4.3400729282e+01 0.0000000000e+00 0.0000e+00 -1.0000e+00
</event>
<event>
 8      3 +3.7482383e-04 9.11880000e+01 7.81616400e-03 1.18400000e-01
      -11 -1    0    0    0    0 +0.0000000000e+00 +0.0000000000e+00 +4.5593999997e+01 4.5594000000e+01 5.1100000000e-04 0.0000e+00 1.0000e+00
       11 -1    0    0    0    0 -0.0000000000e+00 -0.0000000000e+00 -4.5593999997e+01 4.5594000000e+01 5.1100000000e-04 0.0000e+00 -1.0000e+00
       23  2    1    2    0    0 +0.0000000000e+00 +0.0000000000e+00 +0.0000000000e+00 9.1188000000e+01 9.1188000000e+01 1.9720e-15 0.0000e+00
  9990012  2    3    3    0    0 +1.0160623900e+01 +1.1557390002e+01 -4.0580927841e+01 4.7787271364e+01 2.0000001458e+01 1.6706e-01 0.0000e+00
      -11  1    4    4    0    0 +2.4585400915e+00 -7.1380764636e-01 -7.4653008465e-01 2.6666923643e+00 5.1100000000e-04 0.0000e+00 -1.0000e+00
       11  1    4    4    0    0 +8.0648263732e+00 -5.5939271757e-01 -1.1998981884e+01 1.4468238011e+01 5.1100000000e-04 0.0000e+00 1.0000e+00
       12  1    4    4    0    0 -3.6274256453e-01 +1.2830590366e+01 -2.7835415872e+01 3.0652340989e+01 0.0000000000e+00 0.0000e+00 -1.0000e+00
      -12  1    3    3    0    0 -1.0160623900e+01 -1.1557390002e+01 +4.0580927841e+01 4.3400728636e+01 0.0000000000e+00 0.0000e+00 1.0000e+00
</event>
<event>
 8      4 +3.7482383e-04 9.11880000e+01 7.81616400e-03 1.18400000e-01
      -11 -1    0    0    0    0 +0.0000000000e+00 +0.0000000000e+00 +4.5593999997e+01 4.5594000000e+01 5.1100000000e-04 0.0000e+00 1.0000e+00
       11 -1    0    0    0    0 -0.0000000000e+00 -0.0000000000e+00 -4.5593999997e+01 4.5594000000e+01 5.1100000000e-04 0.0000e+00 -1.0000e+00
       23  2    1    2    0    0 +0.0000000000e+00 +0.0000000000e+00 +3.5527136788e-15 9.1188000000e+01 9.1188000000e+01 1.3577e-13 0.0000e+00
 -9990012  2    3    3    0    0 -1.2152735256e+01 -3.6245938321e+01 +2.0546712297e+01 4.7787258011e+01 1.9999940576e+01 2.3944e-01 0.0000e+00
      -11  1    4    4    0    0 -5.9899871379e+00 -3.0851675562e+01 +2.0797399549e+01 3.7686040640e+01 5.1100000000e-04 0.0000e+00 1.0000e+00
       11  1    4    4    0    0 -4.3180800980e-01 -2.3487438984e+00 -2.2797015267e+00 3.3015292471e+00 5.1100000000e-04 0.0000e+00 -1.0000e+00
      -12  1    4    4    0    0 -5.7309401078e+00 -3.0455188611e+00 +2.0290142742e+00 6.7996881236e+00 0.0000000000e+00 0.0000e+00 1.0000e+00
       12  1    3    3    0    0 +1.2152735256e+01 +3.6245938321e+01 -2.0546712297e+01 4.3400741989e+01 0.0000000000e+00 0.0000e+00 -1.0000e+00
</event>
<event>
 8      3 +3.7482383e-04 9.11880000e+01 7.81616400e-03 1.18400000e-01
      -11 -1    0    0    0    0 +0.0000000000e+00 +0.0000000000e+00 +4.5593999997e+01 4.5594000000e+01 5.1100000000e-04 0.0000e+00 1.0000e+00
       11 -1    0    0    0    0 -0.0000000000e+00 -0.0000000000e+00 -4.5593999997e+01 4.5594000000e+01 5.1100000000e-04 0.0000e+00 -1.0000e+00
       23  2    1    2    0    0 +1.7763568394e-15 +0.0000000000e+00 +0.0000000000e+00 9.1188000000e+01 9.1188000000e+01 4.8649e-14 0.0000e+00
  9990012  2    3    3    0    0 +1.2706137442e+01 -1.7465403219e+01 -3.7644885364e+01 4.7787266914e+01 1.9999981169e+01 8.6160e-03 0.0000e+00
      -11  1    4    4    0    0 +4.9479896368e+00 -1.1509745044e+01 -1.1319299242e+01 1.6884411983e+01 5.1100000000e-04 0.0000e+00 1.0000e+00
       11  1    4    4    0    0 +6.1036678679e-01 -7.1743962410e+00 -6.1685696526e+00 9.4813375036e+00 5.1100000000e-04 0.0000e+00 -1.0000e+00
       12  1    4    4    0    0 +7.1477810181e+00 +1.2187380656e+00 -2.0157016469e+01 2.1421517428e+01 0.0000000000e+00 0.0000e+00 -1.0000e+00
      -12  1    3    3    0    0 -1.2706137442e+01 +1.7465403219e+01 +3.7644885364e+01 4.3400733086e+01 0.0000000000e+00 0.0000e+00 1.0000e+00
</event>
<event>
 8      3 +3.7482383e-04 9.11880000e+01 7.81616400e-03 1.18400000e-01
      -11 -1    0    0    0    0 +0.0000000000e+00 +0.0000000000e+00 +4.5593999997e+01 4.5594000000e+01 5.1100000000e-04 0.0000e+00 -1.0000e+00
       11 -1    0    0    0    0 -0.0000000000e+00 -0.0000000000e+00 -4.5593999997e+01 4.5594000000e+01 5.1100000000e-04 0.0000e+00 1.0000e+00
       23  2    1    2    0    0 +3.5527136788e-15 +0.0000000000e+00 +0.0000000000e+00 9.1188000000e+01 9.1188000000e+01 8.6605e-15 0.0000e+00
  9990012  2    3    3    0    0 +1.1020534959e+01 +4.1210322732e+01 -7.9925007110e+00 4.7787274683e+01 2.0000016588e+01 1.3253e-02 0.0000e+00
      -11  1    4    4    0    0 +2.7495361463e+00 +3.0869407484e+00 -5.6234913553e+00 6.9794561026e+00 5.1100000000e-04 0.0000e+00 1.0000e+00
       11  1    4    4    0    0 -6.2984411055e-01 +2.3615004565e+01 -2.7465353503e+00 2.3782527218e+01 5.1100000000e-04 0.0000e+00 -1.0000e+00
       12  1    4    4    0    0 +8.9008429235e+00 +1.4508377419e+01 +3.7752599463e-01 1.7025291362e+01 0.0000000000e+00 0.0000e+00 -1.0000e+00
      -12  1    3    3    0    0 -1.1020534959e+01 -4.1210322732e+01 +7.9925007110e+00 4.3400725317e+01 0.0000000000e+00 0.0000e+00 1.0000e+00
</event>
<event>
 8      4 +3.7482383e-04 9.11880000e+01 7.81616400e-03 1.18400000e-01
      -11 -1    0    0    0    0 +0.0000000000e+00 +0.0000000000e+00 +4.5593999997e+01 4.5594000000e+01 5.1100000000e-04 0.0000e+00 -1.0000e+00
       11 -1    0    0    0    0 -0.0000000000e+00 -0.0000000000e+00 -4.5593999997e+01 4.5594000000e+01 5.1100000000e-04 0.0000e+00 1.0000e+00
       23  2    1    2    0    0 +0.0000000000e+00 +0.0000000000e+00 +7.1054273576e-15 9.1188000000e+01 9.1188000000e+01 3.7604e-15 0.0000e+00
 -9990012  2    3    3    0    0 -6.7625413533e+00 +3.0741372551e+00 -4.2760272620e+01 4.7787271896e+01 2.0000003884e+01 2.1938e-01 0.0000e+00
      -11  1    4    4    0    0 -1.3683083498e+00 +3.2339286259e+00 -4.9383148079e+00 6.0594979578e+00 5.1100000000e-04 0.0000e+00 -1.0000e+00
       11  1    4    4    0    0 -9.0044513261e-01 -4.7798052542e+00 -1.8832706995e+00 5.2157500414e+00 5.1100000000e-04 0.0000e+00 1.0000e+00
      -12  1    4    4    0    0 -4.4937878710e+00 +4.6200138834e+00 -3.5938687112e+01 3.6512023897e+01 0.0000000000e+00 0.0000e+00 1.0000e+00
       12  1    3    3    0    0 +6.7625413533e+00 -3.0741372551e+00 +4.2760272620e+01 4.3400728104e+01 0.0000000000e+00 0.0000e+00 -1.0000e+00
</event>
<event>
 8      3 +3.7482383e-04 9.11880000e+01 7.81616400e-03 1.18400000e-01
      -11 -1    0    0    0    0 +0.0000000000e+00 +0.0000000000e+00 +4.5593999997e+01 4.5594000000e+01 5.1100000000e-04 0.0000e+00 -1.0000e+00
       11 -1    0    0    0    0 -0.0000000000e+00 -0.0000000000e+00 -4.5593999997e+01 4.5594000000e+01 5.1100000000e-04 0.0000e+00 1.0000e+00
       23  2    1    2    0    0 -7.1054273576e-15 +0.0000000000e+00 -1.7763568394e-15 9.1188000000e+01 9.1188000000e+01 1.4528e-13 0.0000e+00
  9990012  2    3    3    0    0 -3.4779176309e+01 -2.5350996446e+01 -5.5998866698e+00 4.7787275855e+01 2.0000021934e+01 3.7668e-02 0.0000e+00
      -11  1    4    4    0    0 -1.6738178075e-01 -1.4350216559e+00 -7.9542575885e-01 1.6492441336e+00 5.1100000000e-04 0.0000e+00 1.0000e+00
       11  1    4    4    0    0 -1.0403815619e+01 -1.7408755854e+01 +1.3524367269e+00 2.0325679452e+01 5.1100000000e-04 0.0000e+00 -1.0000e+00
       12  1    4    4    0    0 -2.4207978910e+01 -6.5072189367e+00 -6.1568976379e+00 2.5812352270e+01 0.0000000000e+00 0.0000e+00 -1.0000e+00
      -12  1    3    3    0    0 +3.4779176309e+01 +2.5350996446e+01 +5.5998866698e+00 4.3400724145e+01 0.0000000000e+00 0.0000e+00 1.0000e+00
</event>
<event>
 8      4 +3.7482383e-04 9.11880000e+01 7.81616400e-03 1.18400000e-01
      -11 -1    0    0    0    0 +0.0000000000e+00 +0.0000000000e+00 +4.5593999997e+01 4.5594000000e+01 5.1100000000e-04 0.0000e+00 -1.0000e+00
       11 -1    0    0    0    0 -0.0000000000e+00 -0.0000000000e+00 -4.5593999997e+01 4.5594000000e+01 5.1100000000e-04 0.0000e+00 1.0000e+00
       23  2    1    2    0    0 +0.0000000000e+00 +0.0000000000e+00 +0.0000000000e+00 9.1188000000e+01 9.1188000000e+01 1.4593e-14 0.0000e+00
 -9990012  2    3    3    0    0 -1.6790281370e+01 +3.3325458390e+01 -2.2161283272e+01 4.7787283398e+01 2.0000056323e+01 1.2336e-01 0.0000e+00
      -11  1    4    4    0    0 -1.5823953299e+01 +2.4579684936e+01 -2.3381805326e+01 3.7433504113e+01 5.1100000000e-04 0.0000e+00 1.0000e+00
       11  1    4    4    0    0 -2.6764147625e+00 +2.6526480793e+00 +1.4073147242e+00 4.0224709828e+00 5.1100000000e-04 0.0000e+00 -1.0000e+00
      -12  1    4    4    0    0 +1.7100866912e+00 +6.0931253740e+00 -1.8679266951e-01 6.3313083020e+00 0.0000000000e+00 0.0000e+00 1.0000e+00
       12  1    3    3    0    0 +1.6790281370e+01 -3.3325458390e+01 +2.2161283272e+01 4.3400716602e+01 0.0000000000e+00 0.0000e+00 -1.0000e+00
</event>
<event>
 8      3 +3.7482383e-04 9.11880000e+01 7.81616400e-03 1.18400000e-01
      -11 -1    0    0    0    0 +0.0000000000e+00 +0.0000000000e+00 +4.5593999997e+01 4.5594000000e+01 5.1100000000e-04 0.0000e+00 1.0000e+00
       11 -1    0    0    0    0 -0.0000000000e+00 -0.0000000000e+00 -4.5593999997e+01 4.5594000000e+01 5.1100000000e-04 0.0000e+00 -1.0000e+00
       23  2    1    2    0    0 -1.7763568394e-15 +0.0000000000e+00 +0.0000000000e+00 9.1188000000e+01 9.1188000000e+01 4.4776e-16 0.0000e+00
  9990012  2    3    3    0    0 +2.0997634746e+00 +3.8427972601e+01 -2.0062516278e+01 4.7787278297e+01 2.0000033070e+01 1.6137e-02 0.0000e+00
      -11  1    4    4    0    0 +1.0843943528e+00 +2.4248268966e+00 -1.9723672632e-01 2.6635688799e+00 5.1100000000e-04 0.0000e+00 1.0000e+00
       11  1    4    4    0    0 +9.3897870807e+00 +1.7077343096e+01 -6.7609822918e+00 2.0628005974e+01 5.1100000000e-04 0.0000e+00 -1.0000e+00
       12  1    4    4    0    0 -8.3744179588e+00 +1.8925802608e+01 -1.3104297260e+01 2.4495703444e+01 0.0000000000e+00 0.0000e+00 -1.0000e+00
      -12  1    3    3    0    0 -2.0997634746e+00 -3.8427972601e+01 +2.0062516278e+01 4.3400721703e+01 0.0000000000e+00 0.0000e+00 1.0000e+00
</event>
<event>
 8      3 +3.7482383e-04 9.11880000e+01 7.81616400e-03 1.18400000e-01
      -11 -1    0    0    0    0 +0.0000000000e+00 +0.0000000000e+00 +4.5593999997e+01 4.5594000000e+01 5.1100000000e-04 0.0000e+00 1.0000e+00
       11 -1    0    0    0    0 -0.0000000000e+00 -0.0000000000e+00 -4.5593999997e+01 4.5594000000e+01 5.1100000000e-04 0.0000e+00 -1.0000e+00
       23  2    1    2    0    0 +4.4408920985e-16 +0.0000000000e+00 +0.0000000000e+00 9.1188000000e+01 9.1188000000e+01 1.1123e-13 0.0000e+00
  9990012  2    3    3    0    0 +2.0042370486e+00 -4.1531346017e+01 +1.2440002254e+01 4.7787270465e+01 1.9999997358e+01 6.4438e-01 0.0000e+00
      -11  1    4    4    0    0 -4.0546128070e+00 -1.7239404247e+01 +8.0267969568e+00 1.9443929990e+01 5.1100000000e-04 0.0000e+00 1.0000e+00
       11  1    4    4    0    0 +9.3485292905e+00 -1.1918401564e+01 +1.5740712314e+00 1.5228952565e+01 5.1100000000e-04 0.0000e+00 -1.0000e+00
       12  1    4    4    0    0 -3.2896794349e+00 -1.2373540205e+01 +2.8391340658e+00 1.3114387909e+01 0.0000000000e+00 0.0000e+00 -1.0000e+00
      -12  1    3    3    0    0 -2.0042370486e+00 +4.1531346017e+01 -1.2440002254e+01 4.3400729535e+01 0.0000000000e+00 0.0000e+00 1.0000e+00
</event>
<event>
 8      3 +3.7482383e-04 9.11880000e+01 7.81616400e-03 1.18400000e-01
      -11 -1    0    0    0    0 +0.0000000000e+00 +0.0000000000e+00 +4.5593999997e+01 4.5594000000e+01 5.1100000000e-04 0.0000e+00 1.0000e+00
       11 -1    0    0    0    0 -0.0000000000e+00 -0.0000000000e+00 -4.5593999997e+01 4.5594000000e+01 5.1100000000e-04 0.0000e+00 -1.0000e+00
       23  2    1    2    0    0 -3.5527136788e-15 -8.8817841970e-16 +0.0000000000e+00 9.1188000000e+01 9.1188000000e+01 1.6625e-14 0.0000e+00
  9990012  2    3    3    0    0 +1.4855143266e+01 +5.2754559719e+00 -4.0436584676e+01 4.7787273077e+01 2.0000009267e+01 1.3566e-01 0.0000e+00
      -11  1    4    4    0    0 +2.0638219504e+00 +6.9536599917e+00 -6.9230146720e+00 1.0027007566e+01 5.1100000000e-04 0.0000e+00 1.0000e+00
       11  1    4    4    0    0 +1.1012444226e+01 -6.1285284819e+00 -2.4017378721e+01 2.7123186946e+01 5.1100000000e-04 0.0000e+00 -1.0000e+00
       12  1    4    4    0    0 +1.7788770890e+00 +4.4503244620e+00 -9.4961912829e+00 1.0637078565e+01 0.0000000000e+00 0.0000e+00 -1.0000e+00
      -12  1    3    3    0    0 -1.4855143266e+01 -5.2754559719e+00 +4.0436584676e+01 4.3400726923e+01 0.0000000000e+00 0.0000e+00 1.0000e+00
</event>
<event>
 8      3 +3.7482383e-04 9.11880000e+01 7.81616400e-03 1.18400000e-01
      -11 -1    0    0    0    0 +0.0000000000e+00 +0.0000000000e+00 +4.5593999997e+01 4.5594000000e+01 5.1100000000e-04 0.0000e+00 1.0000e+00
       11 -1    0    0    0    0 -0.0000000000e+00 -0.0000000000e+00 -4.5593999997e+01 4.5594000000e+01 5.1100000000e-04 0.0000e+00 -1.0000e+00
       23  2    1    2    0    0 +0.0000000000e+00 -4.4408920985e-16 +0.0000000000e+00 9.1188000000e+01 9.1188000000e+01 8.1129e-14 0.0000e+00
  9990012  2    3    3    0    0 +2.1320319754e+01 -1.8324862332e+00 -3.7758565748e+01 4.7787270426e+01 1.9999997180e+01 6.2840e-01 0.0000e+00
      -11  1    4    4    0    0 +1.7220781825e+01 +5.3964953602e+00 -1.5521707976e+01 2.3803380172e+01 5.1100000000e-04 0.0000e+00 1.0000e+00
       11  1    4    4    0    0 +1.0182298619e+00 -5.0629446625e+00 -1.4149300910e+01 1.5062301193e+01 5.1100000000e-04 0.0000e+00 -1.0000e+00
       12  1    4    4    0    0 +3.0813080665e+00 -2.1660369309e+00 -8.0875568622e+00 8.9215890617e+00 0.0000000000e+00 0.0000e+00 -1.0000e+00
      -12  1    3    3    0    0 -2.1320319754e+01 +1.8324862332e+00 +3.7758565748e+01 4.3400729574e+01 0.0000000000e+00 0.0000e+00 1.0000e+00
</event>
<event>
 8      4 +3.7482383e-04 9.11880000e+01 7.81616400e-03 1.18400000e-01
      -11 -1    0    0    0    0 +0.0000000000e+00 +0.0000000000e+00 +4.5593999997e+01 4.5594000000e+01 5.1100000000e-04 0.0000e+00 1.0000e+00
       11 -1    0    0    0    0 -0.0000000000e+00 -0.0000000000e+00 -4.5593999997e+01 4.5594000000e+01 5.1100000000e-04 0.0000e+00 -1.0000e+00
       23  2    1    2    0    0 -7.1054273576e-15 +3.5527136788e-15 +1.7763568394e-15 9.1188000000e+01 9.1188000000e+01 1.7556e-14 0.0000e+00
 -9990012  2    3    3    0    0 -3.9662150759e+01 +9.9216579450e+00 +1.4563579708e+01 4.7787270132e+01 1.9999995839e+01 3.3742e-01 0.0000e+00
      -11  1    4    4    0    0 -7.3984577674e+00 +8.0323456678e+00 -3.6002182069e-01 1.0926361253e+01 5.1100000000e-04 0.0000e+00 -1.0000e+00
       11  1    4    4    0    0 -3.1107695859e+01 +5.6158219715e-02 +1.2283257398e+01 3.3445034130e+01 5.1100000000e-04 0.0000e+00 1.0000e+00
      -12  1    4    4    0    0 -1.1559971324e+00 +1.8331540574e+00 +2.6403441306e+00 3.4158747484e+00 0.0000000000e+00 0.0000e+00 1.0000e+00
       12  1    3    3    0    0 +3.9662150759e+01 -9.9216579450e+00 -1.4563579708e+01 4.3400729868e+01 0.0000000000e+00 0.0000e+00 -1.0000e+00
</event>
<event>
 8      3 +3.7482383e-04 9.11880000e+01 7.81616400e-03 1.18400000e-01
      -11 -1    0    0    0    0 +0.0000000000e+00 +0.0000000000e+00 +4.5593999997e+01 4.5594000000e+01 5.1100000000e-04 0.0000e+00 1.0000e+00
       11 -1    0    0    0    0 -0.0000000000e+00 -0.0000000000e+00 -4.5593999997e+01 4.5594000000e+01 5.1100000000e-04 0.0000e+00 -1.0000e+00
       23  2    1    2    0    0 +0.0000000000e+00 -1.7763568394e-15 +0.0000000000e+00 9.1188000000e+01 9.1188000000e+01 1.3099e-14 0.0000e+00
  9990012  2    3    3    0    0 -3.5276853429e+01 +1.3348773042e+01 -2.1470389650e+01 4.7787265429e+01 1.9999974397e+01 1.1937e-01 0.0000e+00
      -11  1    4    4    0    0 -2.3951203443e+01 +4.6185781901e+00 -1.0204526981e+01 2.6440948962e+01 5.1100000000e-04 0.0000e+00 1.0000e+00
       11  1    4    4    0    0 -8.4164308840e-01 -2.0142936271e+00 -4.2455932845e+00 4.7739715649e+00 5.1100000000e-04 0.0000e+00 -1.0000e+00
       12  1    4    4    0    0 -1.0484006898e+01 +1.0744488479e+01 -7.0202693845e+00 1.6572344902e+01 0.0000000000e+00 0.0000e+00 -1.0000e+00
      -12  1    3    3    0    0 +3.5276853429e+01 -1.3348773042e+01 +2.1470389650e+01 4.3400734571e+01 0.0000000000e+00 0.0000e+00 1.0000e+00
</event>
<event>
 8      3 +3.7482383e-04 9.11880000e+01 7.81616400e-03 1.18400000e-01
      -11 -1    0    0    0    0 +0.0000000000e+00 +0.0000000000e+00 +4.5593999997e+01 4.5594000000e+01 5.1100000000e-04 0.0000e+00 1.0000e+00
       11 -1    0    0    0    0 -0.0000000000e+00 -0.0000000000e+00 -4.5593999997e+01 4.5594000000e+01 5.1100000000e-04 0.0000e+00 -1.0000e+00
       23  2    1    2    0    0 -1.7763568394e-15 +0.0000000000e+00 +7.1054273576e-15 9.1188000000e+01 9.1188000000e+01 1.9355e-14 0.0000e+00
  9990012  2    3    3    0    0 +5.7051151309e+00 +2.1524305093e+01 -3.7252897232e+01 4.7787281105e+01 2.0000045869e+01 1.0457e-02 0.0000e+00
      -11  1    4    4    0    0 +3.2677400408e+00 -1.7124843950e+00 -2.8240949716e+00 4.6460994874e+00 5.1100000000e-04 0.0000e+00 1.0000e+00
       11  1    4    4    0    0 +4.0674625252e-01 +2.2096595821e+01 -3.4306878716e+01 4.0809152367e+01 5.1100000000e-04 0.0000e+00 -1.0000e+00
       12  1    4    4    0    0 +2.0306288376e+00 +1.1401936671e+00 -1.2192354490e-01 2.3320292505e+00 0.0000000000e+00 0.0000e+00 -1.0000e+00
      -12  1    3    3    0    0 -5.7051151309e+00 -2.1524305093e+01 +3.7252897232e+01 4.3400718895e+01 0.0000000000e+00 0.0000e+00 1.0000e+00
</event>
<event>
 8      4 +3.7482383e-04 9.11880000e+01 7.81616400e-03 1.18400000e-01
      -11 -1    0    0    0    0 +0.0000000000e+00 +0.0000000000e+00 +4.5593999997e+01 4.5594000000e+01 5.1100000000e-04 0.0000e+00 1.0000e+00
       11 -1    0    0    0    0 -0.0000000000e+00 -0.0000000000e+00 -4.5593999997e+01 4.5594000000e+01 5.1100000000e-04 0.0000e+00 -1.0000e+00
       23  2    1    2    0    0 +3.5527136788e-15 +0.0000000000e+00 +0.0000000000e+00 9.1188000000e+01 9.1188000000e+01 1.0121e-14 0.0000e+00
 -9990012  2    3    3    0    0 -2.6397381804e+01 +6.5229720238e+00 +3.3826798934e+01 4.7787271247e+01 2.0000000925e+01 3.8200e-01 0.0000e+00
      -11  1    4    4    0    0 -1.5320235471e+01 -1.4564456611e+00 +7.8552624391e+00 1.7278194266e+01 5.1100000000e-04 0.0000e+00 1.0000e+00
       11  1    4    4    0    0 +8.0508114931e-01 +2.3672477993e+00 +6.9808540271e+00 7.4151426830e+00 5.1100000000e-04 0.0000e+00 -1.0000e+00
      -12  1    4    4    0    0 -1.1882227483e+01 +5.6121698857e+00 +1.8990682468e+01 2.3093934298e+01 0.0000000000e+00 0.0000e+00 1.0000e+00
       12  1    3    3    0    0 +2.6397381804e+01 -6.5229720238e+00 -3.3826798934e+01 4.3400728753e+01 0.0000000000e+00 0.0000e+00 -1.0000e+00
</event>
<event>
 8      4 +3.7482383e-04 9.11880000e+01 7.81616400e-03 1.18400000e-01
      -11 -1    0    0    0    0 +0.0000000000e+00 +0.0000000000e+00 +4.5593999997e+01 4.5594000000e+01 5.1100000000e-04 0.0000e+00 1.0000e+00
       11 -1    0    0    0    0 -0.0000000000e+00 -0.0000000000e+00 -4.5593999997e+01 4.5594000000e+01 5.1100000000e-04 0.0000e+00 -1.0000e+00
       23  2    1    2    0    0 +0.0000000000e+00 +0.0000000000e+00 -1.7763568394e-15 9.1188000000e+01 9.1188000000e+01 1.4373e-13 0.0000e+00
 -9990012  2    3    3    0    0 -3.6710573829e+01 +1.6816255624e+01 +1.5911330737e+01 4.7787272704e+01 2.0000007564e+01 2.9702e-01 0.0000e+00
      -11  1    4    4    0    0 -3.0567979414e+01 +2.0487131452e+01 +9.1966359480e+00 3.7930225858e+01 5.1100000000e-04 0.0000e+00 1.0000e+00
       11  1    4    4    0    0 -5.5828412040e+00 -3.0778771796e+00 +6.1998055932e+00 8.8926392875e+00 5.1100000000e-04 0.0000e+00 -1.0000e+00
      -12  1    4    4    0    0 -5.5975321070e-01 -5.9299864897e-01 +5.1488919528e-01 9.6440755803e-01 0.0000000000e+00 0.0000e+00 1.0000e+00
       12  1    3    3    0    0 +3.6710573829e+01 -1.6816255624e+01 -1.5911330737e+01 4.3400727296e+01 0.0000000000e+00 0.0000e+00 -1.0000e+00
</event>
<event>
 8      4 +3.7482383e-04 9.11880000e+01 7.81616400e-03 1.18400000e-01
      -11 -1    0    0    0    0 +0.0000000000e+00 +0.0000000000e+00 +4.5593999997e+01 4.5594000000e+01 5.1100000000e-04 0.0000e+00 -1.0000e+00
       11 -1    0    0    0    0 -0.0000000000e+00 -0.0000000000e+00 -4.5593999997e+01 4.5594000000e+01 5.1100000000e-04 0.0000e+00 1.0000e+00
       23  2    1    2    0    0 -3.5527136788e-15 +0.0000000000e+00 +0.0000000000e+00 9.1188000000e+01 9.1188000000e+01 3.4791e-14 0.0000e+00
 -9990012  2    3    3    0    0 +2.6320306303e+01 +8.3728405162e+00 -3.3477748399e+01 4.7787278577e+01 2.0000034345e+01 2.0646e-01 0.0000e+00
      -11  1    4    4    0    0 +6.8592893919e+00 -2.5598043317e+00 -7.8914492066e+00 1.0764637477e+01 5.1100000000e-04 0.0000e+00 -1.0000e+00
       11  1    4    4    0    0 +3.9711410136e+00 -3.0277038443e+00 -9.3296341557e+00 1.0582014235e+01 5.1100000000e-04 0.0000e+00 1.0000e+00
      -12  1    4    4    0    0 +1.5489875897e+01 +1.3960348692e+01 -1.6256665036e+01 2.6440626865e+01 0.0000000000e+00 0.0000e+00 1.0000e+00
       12  1    3    3    0    0 -2.6320306303e+01 -8.3728405162e+00 +3.3477748399e+01 4.3400721423e+01 0.0000000000e+00 0.0000e+00 -1.0000e+00
</event>
<event>
 8      4 +3.7482383e-04 9.11880000e+01 7.81616400e-03 1.18400000e-01
      -11 -1    0    0    0    0 +0.0000000000e+00 +0.0000000000e+00 +4.5593999997e+01 4.5594000000e+01 5.1100000000e-04 0.0000e+00 1.0000e+00
       11 -1    0    0    0    0 -0.0000000000e+00 -0.0000000000e+00 -4.5593999997e+01 4.5594000000e+01 5.1100000000e-04 0.0000e+00 -1.0000e+00
       23  2    1    2    0    0 -7.1054273576e-15 -3.5527136788e-15 +0.0000000000e+00 9.1188000000e+01 9.1188000000e+01 5.1860e-15 0.0000e+00
 -9990012  2    3    3    0    0 -3.3045346617e+01 +1.7951884941e+01 +2.1664693527e+01 4.7787262085e+01 1.9999959150e+01 9.1020e-02 0.0000e+00
      -11  1    4    4    0    0 -3.5156583657e+00 +5.7547199061e+00 +5.1308967297e+00 8.4736507158e+00 5.1100000000e-04 0.0000e+00 1.0000e+00
       11  1    4    4    0    0 -1.1249685949e+01 -2.0429114291e+00 +1.0123505119e+01 1.5271354793e+01 5.1100000000e-04 0.0000e+00 -1.0000e+00
      -12  1    4    4    0    0 -1.8280002302e+01 +1.4240076464e+01 +6.4102916782e+00 2.4042256576e+01 0.0000000000e+00 0.0000e+00 1.0000e+00
       12  1    3    3    0    0 +3.3045346617e+01 -1.7951884941e+01 -2.1664693527e+01 4.3400737915e+01 0.0000000000e+00 0.0000e+00 -1.0000e+00
</event>
<event>
 8      3 +3.7482383e-04 9.11880000e+01 7.81616400e-03 1.18400000e-01
      -11 -1    0    0    0    0 +0.0000000000e+00 +0.0000000000e+00 +4.5593999997e+01 4.5594000000e+01 5.1100000000e-04 0.0000e+00 -1.0000e+00
       11 -1    0    0    0    0 -0.0000000000e+00 -0.0000000000e+00 -4.5593999997e+01 4.5594000000e+01 5.1100000000e-04 0.0000e+00 1.0000e+00
       23  2    1    2    0    0 -7.1054273576e-15 +0.0000000000e+00 +3.5527136788e-15 9.1188000000e+01 9.1188000000e+01 1.6493e-13 0.0000e+00
  9990012  2    3    3    0    0 -3.4668095607e+01 -1.8751514120e+01 +1.8169403210e+01 4.7787270193e+01 1.9999996118e+01 1.7682e-01 0.0000e+00
      -11  1    4    4    0    0 -2.0752291884e-01 -2.9748736516e+00 +5.5187564393e+00 6.2729269007e+00 5.1100000000e-04 0.0000e+00 1.0000e+00
       11  1    4    4    0    0 -2.1370979427e+01 -3.6510119871e+00 +7.5338254142e+00 2.2952280406e+01 5.1100000000e-04 0.0000e+00 -1.0000e+00
       12  1    4    4    0    0 -1.3089593261e+01 -1.2125628481e+01 +5.1168213563e+00 1.8562062886e+01 0.0000000000e+00 0.0000e+00 -1.0000e+00
      -12  1    3    3    0    0 +3.4668095607e+01 +1.8751514120e+01 -1.8169403210e+01 4.3400729807e+01 0.0000000000e+00 0.0000e+00 1.0000e+00
</event>
<event>
 8      3 +3.7482383e-04 9.11880000e+01 7.81616400e-03 1.18400000e-01
      -11 -1    0    0    0    0 +0.0000000000e+00 +0.0000000000e+00 +4.5593999997e+01 4.5594000000e+01 5.1100000000e-04 0.0000e+00 -1.0000e+00
       11 -1    0    0    0    0 -0.0000000000e+00 -0.0000000000e+00 -4.5593999997e+01 4.5594000000e+01 5.1100000000e-04 0.0000e+00 1.0000e+00
       23  2    1    2    0    0 +0.0000000000e+00 +3.5527136788e-15 +0.0000000000e+00 9.1188000000e+01 9.1188000000e+01 4.6618e-14 0.0000e+00
  9990012  2    3    3    0    0 -2.2253830166e+01 +2.1150897327e+01 +3.0676209057e+01 4.7787271701e+01 2.0000002993e+01 1.6638e-02 0.0000e+00
      -11  1    4    4    0    0 -8.2934081803e+00 +4.5747169696e-01 +1.0289009550e+01 1.3223222655e+01 5.1100000000e-04 0.0000e+00 1.0000e+00
       11  1    4    4    0    0 -1.0889852941e+01 +2.0782014895e+01 +2.0934121535e+01 3.1443894238e+01 5.1100000000e-04 0.0000e+00 -1.0000e+00
       12  1    4    4    0    0 -3.0705690456e+00 -8.8589264586e-02 -5.4692202810e-01 3.1201548081e+00 0.0000000000e+00 0.0000e+00 -1.0000e+00
      -12  1    3    3    0    0 +2.2253830166e+01 -2.1150897327e+01 -3.0676209057e+01 4.3400728299e+01 0.0000000000e+00 0.0000e+00 1.0000e+00
</event>
<event>
 8      4 +3.7482383e-04 9.11880000e+01 7.81616400e-03 1.18400000e-01
      -11 -1    0    0    0    0 +0.0000000000e+00 +0.0000000000e+00 +4.5593999997e+01 4.5594000000e+01 5.1100000000e-04 0.0000e+00 -1.0000e+00
       11 -1    0    0    0    0 -0.0000000000e+00 -0.0000000000e+00 -4.5593999997e+01 4.5594000000e+01 5.1100000000e-04 0.0000e+00 1.0000e+00
       23  2    1    2    0    0 +0.0000000000e+00 +8.8817841970e-16 +0.0000000000e+00 9.1188000000e+01 9.1188000000e+01 5.4981e-13 0.0000e+00
 -9990012  2    3    3    0    0 -3.2748533243e+01 +7.5748236309e+00 +2.7455054887e+01 4.7787257824e+01 1.9999939723e+01 3.0633e-02 0.0000e+00
      -11  1    4    4    0    0 -1.7162713156e+01 +1.0442269386e+00 +1.6924053059e+01 2.4126182976e+01 5.1100000000e-04 0.0000e+00 1.0000e+00
       11  1    4    4    0    0 +1.0250551143e+00 -5.2498452511e-01 +4.4812081337e+00 4.6268318899e+00 5.1100000000e-04 0.0000e+00 -1.0000e+00
      -12  1    4    4    0    0 -1.6610875201e+01 +7.0555812174e+00 +6.0497936940e+00 1.9034242958e+01 0.0000000000e+00 0.0000e+00 1.0000e+00
       12  1    3    3    0    0 +3.2748533243e+01 -7.5748236309e+00 -2.7455054887e+01 4.3400742176e+01 0.0000000000e+00 0.0000e+00 -1.0000e+00
</event>
<event>
 8      4 +3.7482383e-04 9.11880000e+01 7.81616400e-03 1.18400000e-01
      -11 -1    0    0    0    0 +0.0000000000e+00 +0.0000000000e+00 +4.5593999997e+01 4.5594000000e+01 5.1100000000e-04 0.0000e+00 1.0000e+00
       11 -1    0    0    0    0 -0.0000000000e+00 -0.0000000000e+00 -4.5593999997e+01 4.5594000000e+01 5.1100000000e-04 0.0000e+00 -1.0000e+00
       23  2    1    2    0    0 +3.5527136788e-15 +3.5527136788e-15 +0.0000000000e+00 9.1188000000e+01 9.1188000000e+01 5.1765e-15 0.0000e+00
 -9990012  2    3    3    0    0 +2.7064477096e+01 +2.1977414067e+01 +2.5848218495e+01 4.7787273636e+01 2.0000011816e+01 1.1402e-01 0.0000e+00
      -11  1    4    4    0    0 +8.1390397893e+00 +2.5349828316e+00 +9.8067176321e-01 8.5808987884e+00 5.1100000000e-04 0.0000e+00 1.0000e+00
       11  1    4    4    0    0 -7.6568891925e-01 -1.3221404904e+00 +2.3030310522e+00 2.7637451558e+00 5.1100000000e-04 0.0000e+00 -1.0000e+00
      -12  1    4    4    0    0 +1.9691126226e+01 +2.0764571726e+01 +2.2564515679e+01 3.6442629692e+01 0.0000000000e+00 0.0000e+00 1.0000e+00
       12  1    3    3    0    0 -2.7064477096e+01 -2.1977414067e+01 -2.5848218495e+01 4.3400726364e+01 0.0000000000e+00 0.0000e+00 -1.0000e+00
</event>
<event>
 8      3 +3.7482383e-04 9.11880000e+01 7.81616400e-03 1.18400000e-01
      -11 -1    0    0    0    0 +0.0000000000e+00 +0.0000000000e+00 +4.5593999997e+01 4.5594000000e+01 5.1100000000e-04 0.0000e+00 -1.0000e+00
       11 -1    0    0    0    0 -0.0000000000e+00 -0.0000000000e+00 -4.5593999997e+01 4.5594000000e+01 5.1100000000e-04 0.0000e+00 1.0000e+00
       23  2    1    2    0    0 +0.0000000000e+00 +8.8817841970e-16 -3.5527136788e-15 9.1188000000e+01 9.1188000000e+01 9.2147e-15 0.0000e+00
  9990012  2    3    3    0    0 -3.4107438394e+01 -5.5715113172e+00 +2.6253848350e+01 4.7787266764e+01 1.9999980486e+01 5.8826e-01 0.0000e+00
      -11  1    4    4    0    0 -9.3856376070e+00 -6.6157450209e+00 +9.4629578325e+00 1.4879712587e+01 5.1100000000e-04 0.0000e+00 1.0000e+00
       11  1    4    4    0    0 -6.2777344093e+00 -5.3016260731e+00 +8.1527261068e+00 1.1575151471e+01 5.1100000000e-04 0.0000e+00 -1.0000e+00
       12  1    4    4    0    0 -1.8444066378e+01 +6.3458597767e+00 +8.6381644112e+00 2.1332402707e+01 0.0000000000e+00 0.0000e+00 -1.0000e+00
      -12  1    3    3    0    0 +3.4107438394e+01 +5.5715113172e+00 -2.6253848350e+01 4.3400733236e+01 0.0000000000e+00 0.0000e+00 1.0000e+00
</event>
<event>
 8      4 +3.7482383e-04 9.11880000e+01 7.81616400e-03 1.18400000e-01
      -11 -1    0    0    0    0 +0.0000000000e+00 +0.0000000000e+00 +4.5593999997e+01 4.5594000000e+01 5.1100000000e-04 0.0000e+00 -1.0000e+00
       11 -1    0    0    0    0 -0.0000000000e+00 -0.0000000000e+00 -4.5593999997e+01 4.5594000000e+01 5.1100000000e-04 0.0000e+00 1.0000e+00
       23  2    1    2    0    0 +0.0000000000e+00 +0.0000000000e+00 -3.5527136788e-15 9.1188000000e+01 9.1188000000e+01 1.5679e-13 0.0000e+00
 -9990012  2    3    3    0    0 +1.1164524683e+01 +3.1255389340e+01 -2.7965645612e+01 4.7787270643e+01 1.9999998171e+01 1.2624e-01 0.0000e+00
      -11  1    4    4    0    0 +1.2172313960e+01 +2.5434243992e+01 -2.3737047405e+01 3.6858016961e+01 5.1100000000e-04 0.0000e+00 1.0000e+00
       11  1    4    4    0    0 +2.6301489824e+00 -5.8468255091e-01 -8.5497815195e-01 2.8267517147e+00 5.1100000000e-04 0.0000e+00 -1.0000e+00
      -12  1    4    4    0    0 -3.6379382596e+00 +6.4058278992e+00 -3.3736200557e+00 8.1025019676e+00 0.0000000000e+00 0.0000e+00 1.0000e+00
       12  1    3    3    0    0 -1.1164524683e+01 -3.1255389340e+01 +2.7965645612e+01 4.3400729357e+01 0.0000000000e+00 0.0000e+00 -1.0000e+00
</event>
<event>
 8      3 +3.7482383e-04 9.11880000e+01 7.81616400e-03 1.18400000e-01
      -11 -1    0    0    0    0 +0.0000000000e+00 +0.0000000000e+00 +4.5593999997e+01 4.5594000000e+01 5.1100000000e-04 0.0000e+00 1.0000e+00
       11 -1    0    0    0    0 -0.0000000000e+00 -0.0000000000e+00 -4.5593999997e+01 4.5594000000e+01 5.1100000000e-04 0.0000e+00 -1.0000e+00
       23  2    1    2    0    0 +3.5527136788e-15 +0.0000000000e+00 +0.0000000000e+00 9.1188000000e+01 9.1188000000e+01 8.9661e-14 0.0000e+00
  9990012  2    3    3    0    0 -2.8107031435e+01 +3.2173479060e+01 +7.6475679868e+00 4.7787271123e+01 2.0000000358e+01 1.0933e-01 0.0000e+00
      -11  1    4    4    0    0 -1.9811651137e+01 +2.0008613247e+01 +1.9024304788e+00 2.8221717999e+01 5.1100000000e-04 0.0000e+00 1.0000e+00
       11  1    4    4    0    0 -2.2105542427e+00 +5.3596640376e+00 +8.2646540545e+00 1.0095397741e+01 5.1100000000e-04 0.0000e+00 -1.0000e+00
       12  1    4    4    0    0 -6.0848260555e+00 +6.8052017756e+00 -2.5195165464e+00 9.4701553821e+00 0.0000000000e+00 0.0000e+00 -1.0000e+00
      -12  1    3    3    0    0 +2.8107031435e+01 -3.2173479060e+01 -7.6475679868e+00 4.3400728877e+01 0.0000000000e+00 0.0000e+00 1.0000e+00
</event>
<event>
 8      3 +3.7482383e-04 9.11880000e+01 7.81616400e-03 1.18400000e-01
      -11 -1    0    0    0    0 +0.0000000000e+00 +0.0000000000e+00 +4.5593999997e+01 4.5594000000e+01 5.1100000000e-04 0.0000e+00 1.0000e+00
       11 -1    0    0    0    0 -0.0000000000e+00 -0.0000000000e+00 -4.5593999997e+01 4.5594000000e+01 5.1100000000e-04 0.0000e+00 -1.0000e+00
       23  2    1    2    0    0 +7.1054273576e-15 -1.1102230246e-16 +0.0000000000e+00 9.1188000000e+01 9.1188000000e+01 1.9041e-13 0.0000e+00
  9990012  2    3    3    0    0 +4.1054658059e+01 +7.9052089788e-01 -1.4053942459e+01 4.7787272238e+01 2.0000005441e+01 6.0124e-02 0.0000e+00
      -11  1    4    4    0    0 +1.6492012846e+01 +2.6496134117e+00 +2.2440069790e+00 1.6853560648e+01 5.1100000000e-04 0.0000e+00 1.0000e+00
       11  1    4    4    0    0 +8.1128764047e+00 -4.1418793395e+00 -8.9608587125e+00 1.2777750864e+01 5.1100000000e-04 0.0000e+00 -1.0000e+00
       12  1    4    4    0    0 +1.6449768809e+01 +2.2827868257e+00 -7.3370907259e+00 1.8155960726e+01 0.0000000000e+00 0.0000e+00 -1.0000e+00
      -12  1    3    3    0    0 -4.1054658059e+01 -7.9052089788e-01 +1.4053942459e+01 4.3400727762e+01 0.0000000000e+00 0.0000e+00 1.0000e+00
</event>
<event>
 8      4 +3.7482383e-04 9.11880000e+01 7.81616400e-03 1.18400000e-01
      -11 -1    0    0    0    0 +0.0000000000e+00 +0.0000000000e+00 +4.5593999997e+01 4.5594000000e+01 5.1100000000e-04 0.0000e+00 1.0000e+00
       11 -1    0    0    0    0 -0.0000000000e+00 -0.0000000000e+00 -4.5593999997e+01 4.5594000000e+01 5.1100000000e-04 0.0000e+00 -1.0000e+00
       23  2    1    2    0    0 +0.0000000000e+00 -7.1054273576e-15 +4.4408920985e-16 9.1188000000e+01 9.1188000000e+01 5.9650e-14 0.0000e+00
 -9990012  2    3    3    0    0 +8.7573621867e+00 -4.2374156253e+01 -3.3708043040e+00 4.7787276132e+01 2.0000023195e+01 1.1768e-01 0.0000e+00
      -11  1    4    4    0    0 +2.0078160521e+00 -1.7288390771e+01 -9.2844529641e+00 1.9726146300e+01 5.1100000000e-04 0.0000e+00 1.0000e+00
       11  1    4    4    0    0 +6.3052478049e+00 -8.8847687200e+00 +4.5168991557e+00 1.1793966395e+01 5.1100000000e-04 0.0000e+00 -1.0000e+00
      -12  1    4    4    0    0 +4.4429832971e-01 -1.6200996762e+01 +1.3967495044e+00 1.6267163437e+01 0.0000000000e+00 0.0000e+00 1.0000e+00
       12  1    3    3    0    0 -8.7573621867e+00 +4.2374156253e+01 +3.3708043040e+00 4.3400723868e+01 0.0000000000e+00 0.0000e+00 -1.0000e+00
</event>
<event>
 8      3 +3.7482383e-04 9.11880000e+01 7.81616400e-03 1.18400000e-01
      -11 -1    0    0    0    0 +0.0000000000e+00 +0.0000000000e+00 +4.5593999997e+01 4.5594000000e+01 5.1100000000e-04 0.0000e+00 1.0000e+00
       11 -1    0    0    0    0 -0.0000000000e+00 -0.0000000000e+00 -4.5593999997e+01 4.5594000000e+01 5.1100000000e-04 0.0000e+00 -1.0000e+00
       23  2    1    2    0    0 -7.1054273576e-15 +0.0000000000e+00 +0.0000000000e+00 9.1188000000e+01 9.1188000000e+01 1.1117e-13 0.0000e+00
  9990012  2    3    3    0    0 -3.4818038681e+01 -1.6609295580e+01 -1.9886142339e+01 4.7787272191e+01 2.0000005226e+01 3.7109e-01 0.0000e+00
      -11  1    4    4    0    0 -3.8489203214e+00 -8.1672620874e+00 +1.0342857993e+00 9.0877997898e+00 5.1100000000e-04 0.0000e+00 1.0000e+00
       11  1    4    4    0    0 -2.5691856952e+01 -7.4282022800e+00 -1.9623991601e+01 3.3171535228e+01 5.1100000000e-04 0.0000e+00 -1.0000e+00
       12  1    4    4    0    0 -5.2772614080e+00 -1.0138312125e+00 -1.2964365368e+00 5.5279371732e+00 0.0000000000e+00 0.0000e+00 -1.0000e+00
      -12  1    3    3    0    0 +3.4818038681e+01 +1.6609295580e+01 +1.9886142339e+01 4.3400727809e+01 0.0000000000e+00 0.0000e+00 1.0000e+00
</event>
<event>
 8      4 +3.7482383e-04 9.11880000e+01 7.81616400e-03 1.18400000e-01
      -11 -1    0    0    0    0 +0.0000000000e+00 +0.0000000000e+00 +4.5593999997e+01 4.5594000000e+01 5.1100000000e-04 0.0000e+00 1.0000e+00
       11 -1    0    0    0    0 -0.0000000000e+00 -0.0000000000e+00 -4.5593999997e+01 4.5594000000e+01 5.1100000000e-04 0.0000e+00 -1.0000e+00
       23  2    1    2    0    0 +0.0000000000e+00 -3.5527136788e-15 +0.0000000000e+00 9.1188000000e+01 9.1188000000e+01 1.2408e-14 0.0000e+00
 -9990012  2    3    3    0    0 +7.6530521983e+00 +2.4534261748e+01 +3.4973188126e+01 4.7787273103e+01 2.0000009385e+01 4.8732e-02 0.0000e+00
      -11  1    4    4    0    0 +3.6564442454e+00 +9.5705581473e-02 +6.6770202571e+00 7.6132347825e+00 5.1100000000e-04 0.0000e+00 1.0000e+00
       11  1    4    4    0    0 +3.8138238895e+00 +2.1740896807e+00 +2.9529051645e-01 4.3998994705e+00 5.1100000000e-04 0.0000e+00 -1.0000e+00
      -12  1    4    4    0    0 +1.8278406340e-01 +2.2264466486e+01 +2.8000877353e+01 3.5774138850e+01 0.0000000000e+00 0.0000e+00 1.0000e+00
       12  1    3    3    0    0 -7.6530521983e+00 -2.4534261748e+01 -3.4973188126e+01 4.3400726897e+01 0.0000000000e+00 0.0000e+00 -1.0000e+00
</event>
<event>
 8      3 +3.7482383e-04 9.11880000e+01 7.81616400e-03 1.18400000e-01
      -11 -1    0    0    0    0 +0.0000000000e+00 +0.0000000000e+00 +4.5593999997e+01 4.5594000000e+01 5.1100000000e-04 0.0000e+00 1.0000e+00
       11 -1    0    0    0    0 -0.0000000000e+00 -0.0000000000e+00 -4.5593999997e+01 4.5594000000e+01 5.1100000000e-04 0.0000e+00 -1.0000e+00
       23  2    1    2    0    0 +0.0000000000e+00 +0.0000000000e+00 +0.0000000000e+00 9.1188000000e+01 9.1188000000e+01 6.3164e-14 0.0000e+00
  9990012  2    3    3    0    0 -3.6968103393e+00 +2.3721516467e+01 -3.6155862606e+01 4.7787272460e+01 2.0000006454e+01 1.2522e-01 0.0000e+00
      -11  1    4    4    0    0 +6.2945216627e-01 +1.4503802707e+00 -9.0137663165e+00 9.1513822141e+00 5.1100000000e-04 0.0000e+00 1.0000e+00
       11  1    4    4    0    0 +3.0183190616e-01 +9.9860147623e+00 -1.8794486815e+00 1.0165821213e+01 5.1100000000e-04 0.0000e+00 -1.0000e+00
       12  1    4    4    0    0 -4.6280944118e+00 +1.2285121434e+01 -2.5262647608e+01 2.8470069033e+01 0.0000000000e+00 0.0000e+00 -1.0000e+00
      -12  1    3    3    0    0 +3.6968103393e+00 -2.3721516467e+01 +3.6155862606e+01 4.3400727540e+01 0.0000000000e+00 0.0000e+00 1.0000e+00
</event>
<event>
 8      3 +3.7482383e-04 9.11880000e+01 7.81616400e-03 1.18400000e-01
      -11 -1    0    0    0    0 +0.0000000000e+00 +0.0000000000e+00 +4.5593999997e+01 4.5594000000e+01 5.1100000000e-04 0.0000e+00 1.0000e+00
       11 -1    0    0    0    0 -0.0000000000e+00 -0.0000000000e+00 -4.5593999997e+01 4.5594000000e+01 5.1100000000e-04 0.0000e+00 -1.0000e+00
       23  2    1    2    0    0 -3.5527136788e-15 -3.5527136788e-15 +0.0000000000e+00 9.1188000000e+01 9.1188000000e+01 9.6190e-15 0.0000e+00
  9990012  2    3    3    0    0 -3.0341046240e+01 -2.8503241013e+01 -1.2272311662e+01 4.7787268800e+01 1.9999989766e+01 1.0022e-03 0.0000e+00
      -11  1    4    4    0    0 -2.0682661513e+00 -6.4623130398e-01 +1.4882717613e+00 2.6287435910e+00 5.1100000000e-04 0.0000e+00 1.0000e+00
       11  1    4    4    0    0 -2.0205515619e+01 -2.7528651812e+01 -7.5511907850e+00 3.4972989785e+01 5.1100000000e-04 0.0000e+00 -1.0000e+00
       12  1    4    4    0    0 -8.0672644694e+00 -3.2835789777e-01 -6.2093926381e+00 1.0185535423e+01 0.0000000000e+00 0.0000e+00 -1.0000e+00
      -12  1    3    3    0    0 +3.0341046240e+01 +2.8503241013e+01 +1.2272311662e+01 4.3400731200e+01 0.0000000000e+00 0.0000e+00 1.0000e+00
</event>
<event>
 8      3 +3.7482383e-04 9.11880000e+01 7.81616400e-03 1.18400000e-01
      -11 -1    0    0    0    0 +0.0000000000e+00 +0.0000000000e+00 +4.5593999997e+01 4.5594000000e+01 5.1100000000e-04 0.0000e+00 1.0000e+00
       11 -1    0    0    0    0 -0.0000000000e+00 -0.0000000000e+00 -4.5593999997e+01 4.5594000000e+01 5.1100000000e-04 0.0000e+00 -1.0000e+00
       23  2    1    2    0    0 +0.0000000000e+00 +0.0000000000e+00 +0.0000000000e+00 9.1188000000e+01 9.1188000000e+01 5.7386e-15 0.0000e+00
  9990012  2    3    3    0    0 +1.5228659117e+01 -1.6692760757e+01 -3.7054859576e+01 4.7787274909e+01 2.0000017622e+01 1.6493e-01 0.0000e+00
      -11  1    4    4    0    0 +8.2975252406e+00 -6.5313446704e+00 -3.9650677591e+00 1.1279590016e+01 5.1100000000e-04 0.0000e+00 1.0000e+00
       11  1    4    4    0    0 +5.2368221363e+00 -1.1813151493e+01 -2.6010790585e+01 2.9043692627e+01 5.1100000000e-04 0.0000e+00 -1.0000e+00
       12  1    4    4    0    0 +1.6943117404e+00 +1.6517354063e+00 -7.0790012317e+00 7.4639922672e+00 0.0000000000e+00 0.0000e+00 -1.0000e+00
      -12  1    3    3    0    0 -1.5228659117e+01 +1.6692760757e+01 +3.7054859576e+01 4.3400725091e+01 0.0000000000e+00 0.0000e+00 1.0000e+00
</event>
<event>
 8      3 +3.7482383e-04 9.11880000e+01 7.81616400e-03 1.18400000e-01
      -11 -1    0    0    0    0 +0.0000000000e+00 +0.0000000000e+00 +4.5593999997e+01 4.5594000000e+01 5.1100000000e-04 0.0000e+00 1.0000e+00
       11 -1    0    0    0    0 -0.0000000000e+00 -0.0000000000e+00 -4.5593999997e+01 4.5594000000e+01 5.1100000000e-04 0.0000e+00 -1.0000e+00
       23  2    1    2    0    0 +0.0000000000e+00 -3.5527136788e-15 +0.0000000000e+00 9.1188000000e+01 9.1188000000e+01 6.4580e-14 0.0000e+00
  9990012  2    3    3    0    0 +2.5116841673e+00 -2.4997891752e+01 -3.5389545991e+01 4.7787272877e+01 2.0000008354e+01 2.1643e-01 0.0000e+00
      -11  1    4    4    0    0 +2.6012985993e+00 -9.3375273010e+00 -1.1693246726e+01 1.5188422886e+01 5.1100000000e-04 0.0000e+00 -1.0000e+00
       11  1    4    4    0    0 +1.6152928342e+00 +3.0770165638e+00 -2.6619181056e+00 4.3775575537e+00 5.1100000000e-04 0.0000e+00 1.0000e+00
       12  1    4    4    0    0 -1.7049072662e+00 -1.8737381015e+01 -2.1034381159e+01 2.8221292437e+01 0.0000000000e+00 0.0000e+00 -1.0000e+00
      -12  1    3    3    0    0 -2.5116841673e+00 +2.4997891752e+01 +3.5389545991e+01 4.3400727123e+01 0.0000000000e+00 0.0000e+00 1.0000e+00
</event>
<event>
 8      3 +3.7482383e-04 9.11880000e+01 7.81616400e-03 1.18400000e-01
      -11 -1    0    0    0    0 +0.0000000000e+00 +0.0000000000e+00 +4.5593999997e+01 4.5594000000e+01 5.1100000000e-04 0.0000e+00 1.0000e+00
       11 -1    0    0    0    0 -0.0000000000e+00 -0.0000000000e+00 -4.5593999997e+01 4.5594000000e+01 5.1100000000e-04 0.0000e+00 -1.0000e+00
       23  2    1    2    0    0 +0.0000000000e+00 +0.0000000000e+00 +0.0000000000e+00 9.1188000000e+01 9.1188000000e+01 8.9524e-14 0.0000e+00
  9990012  2    3    3    0    0 +1.7105730466e+01 -1.6637474282e+01 -3.6252046350e+01 4.7787280769e+01 2.0000044336e+01 3.8752e-02 0.0000e+00
      -11  1    4    4    0    0 +8.9545843502e+00 -1.5924690282e+01 -1.2987014676e+01 2.2415237940e+01 5.1100000000e-04 0.0000e+00 1.0000e+00
       11  1    4    4    0    0 +4.1235774831e+00 +1.6924545485e+00 -1.6819631603e+01 1.7400238538e+01 5.1100000000e-04 0.0000e+00 -1.0000e+00
       12  1    4    4    0    0 +4.0275686325e+00 -2.4052385479e+00 -6.4454000706e+00 7.9718042896e+00 0.0000000000e+00 0.0000e+00 -1.0000e+00
      -12  1    3    3    0    0 -1.7105730466e+01 +1.6637474282e+01 +3.6252046350e+01 4.3400719231e+01 0.0000000000e+00 0.0000e+00 1.0000e+00
</event>
<event>
 8      3 +3.7482383e-04 9.11880000e+01 7.81616400e-03 1.18400000e-01
      -11 -1    0    0    0    0 +0.0000000000e+00 +0.0000000000e+00 +4.5593999997e+01 4.5594000000e+01 5.1100000000e-04 0.0000e+00 1.0000e+00
       11 -1    0    0    0    0 -0.0000000000e+00 -0.0000000000e+00 -4.5593999997e+01 4.5594000000e+01 5.1100000000e-04 0.0000e+00 -1.0000e+00
       23  2    1    2    0    0 -7.1054273576e-15 +1.7763568394e-15 +3.5527136788e-15 9.1188000000e+01 9.1188000000e+01 2.6777e-15 0.0000e+00
  9990012  2    3    3    0    0 -2.7804725489e+01 +9.6222730147e+00 -3.1905027725e+01 4.7787289272e+01 2.0000083108e+01 2.5849e-01 0.0000e+00
      -11  1    4    4    0    0 -8.8027905149e+00 +4.0381531753e+00 -4.6913587132e-01 9.6961791775e+00 5.1100000000e-04 0.0000e+00 1.0000e+00
       11  1    4    4    0    0 -9.9049690826e+00 -2.7080102988e-01 -9.9873100544e+00 1.4068692480e+01 5.1100000000e-04 0.0000e+00 -1.0000e+00
       12  1    4    4    0    0 -9.0969658918e+00 +5.8549208693e+00 -2.1448581800e+01 2.4022417614e+01 0.0000000000e+00 0.0000e+00 -1.0000e+00
      -12  1    3    3    0    0 +2.7804725489e+01 -9.6222730147e+00 +3.1905027725e+01 4.3400710728e+01 0.0000000000e+00 0.0000e+00 1.0000e+00
</event>
<event>
 8      3 +3.7482383e-04 9.11880000e+01 7.81616400e-03 1.18400000e-01
      -11 -1    0    0    0    0 +0.0000000000e+00 +0.0000000000e+00 +4.5593999997e+01 4.5594000000e+01 5.1100000000e-04 0.0000e+00 1.0000e+00
       11 -1    0    0    0    0 -0.0000000000e+00 -0.0000000000e+00 -4.5593999997e+01 4.5594000000e+01 5.1100000000e-04 0.0000e+00 -1.0000e+00
       23  2    1    2    0    0 +7.1054273576e-15 +0.0000000000e+00 -1.1102230246e-15 9.1188000000e+01 9.1188000000e+01 1.8557e-13 0.0000e+00
  9990012  2    3    3    0    0 +3.5220547623e+01 +2.5329409070e+01 -1.2478947544e+00 4.7787272126e+01 2.0000004931e+01 3.3960e-02 0.0000e+00
      -11  1    4    4    0    0 +6.3204909753e+00 +5.9065680181e-01 -4.7816477552e+00 7.9474295934e+00 5.1100000000e-04 0.0000e+00 1.0000e+00
       11  1    4    4    0    0 +1.0413393884e+01 +6.1282695158e+00 -3.6861891088e+00 1.2632594740e+01 5.1100000000e-04 0.0000e+00 -1.0000e+00
       12  1    4    4    0    0 +1.8486662764e+01 +1.8610482752e+01 +7.2199421097e+00 2.7207247793e+01 0.0000000000e+00 0.0000e+00 -1.0000e+00
      -12  1    3    3    0    0 -3.5220547623e+01 -2.5329409070e+01 +1.2478947544e+00 4.3400727874e+01 0.0000000000e+00 0.0000e+00 1.0000e+00
</event>
<event>
 8      3 +3.7482383e-04 9.11880000e+01 7.81616400e-03 1.18400000e-01
      -11 -1    0    0    0    0 +0.0000000000e+00 +0.0000000000e+00 +4.5593999997e+01 4.5594000000e+01 5.1100000000e-04 0.0000e+00 -1.0000e+00
       11 -1    0    0    0    0 -0.0000000000e+00 -0.0000000000e+00 -4.5593999997e+01 4.5594000000e+01 5.1100000000e-04 0.0000e+00 1.0000e+00
       23  2    1    2    0    0 -3.5527136788e-15 -3.5527136788e-15 +0.0000000000e+00 9.1188000000e+01 9.1188000000e+01 8.9215e-15 0.0000e+00
  9990012  2    3    3    0    0 -1.9509808498e+01 +2.4431873986e+01 +3.0101063968e+01 4.7787272516e+01 2.0000006711e+01 4.1606e-02 0.0000e+00
      -11  1    4    4    0    0 -4.7088736566e+00 +1.0500874261e+01 +4.7157629079e+00 1.2437052361e+01 5.1100000000e-04 0.0000e+00 1.0000e+00
       11  1    4    4    0    0 -9.0105614771e+00 +8.5159271406e+00 +4.8064888228e+00 1.3297126316e+01 5.1100000000e-04 0.0000e+00 -1.0000e+00
       12  1    4    4    0    0 -5.7903733645e+00 +5.4150725843e+00 +2.0578812237e+01 2.2053093840e+01 0.0000000000e+00 0.0000e+00 -1.0000e+00
      -12  1    3    3    0    0 +1.9509808498e+01 -2.4431873986e+01 -3.0101063968e+01 4.3400727484e+01 0.0000000000e+00 0.0000e+00 1.0000e+00
</event>
<event>
 8      4 +3.7482383e-04 9.11880000e+01 7.81616400e-03 1.18400000e-01
      -11 -1    0    0    0    0 +0.0000000000e+00 +0.0000000000e+00 +4.5593999997e+01 4.5594000000e+01 5.1100000000e-04 0.0000e+00 1.0000e+00
       11 -1    0    0    0    0 -0.0000000000e+00 -0.0000000000e+00 -4.5593999997e+01 4.5594000000e+01 5.1100000000e-04 0.0000e+00 -1.0000e+00
       23  2    1    2    0    0 -3.5527136788e-15 +1.7763568394e-15 +0.0000000000e+00 9.1188000000e+01 9.1188000000e+01 2.3809e-13 0.0000e+00
 -9990012  2    3    3    0    0 -2.0076741783e+01 +9.1945470893e+00 +3.7363189653e+01 4.7787271920e+01 2.0000003992e+01 2.1056e-01 0.0000e+00
      -11  1    4    4    0    0 -2.1823033419e+00 -3.0043906151e+00 +4.8629932753e+00 6.1186203266e+00 5.1100000000e-04 0.0000e+00 1.0000e+00
       11  1    4    4    0    0 +1.4659733636e+00 +9.1044760144e-01 +9.1210062444e+00 9.2828200408e+00 5.1100000000e-04 0.0000e+00 -1.0000e+00
      -12  1    4    4    0    0 -1.9360411805e+01 +1.1288490103e+01 +2.3379190133e+01 3.2385831553e+01 0.0000000000e+00 0.0000e+00 1.0000e+00
       12  1    3    3    0    0 +2.0076741783e+01 -9.1945470893e+00 -3.7363189653e+01 4.3400728080e+01 0.0000000000e+00 0.0000e+00 -1.0000e+00
</event>
<event>
 8      4 +3.7482383e-04 9.11880000e+01 7.81616400e-03 1.18400000e-01
      -11 -1    0    0    0    0 +0.0000000000e+00 +0.0000000000e+00 +4.5593999997e+01 4.5594000000e+01 5.1100000000e-04 0.0000e+00 -1.0000e+00
       11 -1    0    0    0    0 -0.0000000000e+00 -0.0000000000e+00 -4.5593999997e+01 4.5594000000e+01 5.1100000000e-04 0.0000e+00 1.0000e+00
       23  2    1    2    0    0 -1.7763568394e-15 +6.6613381478e-16 +0.0000000000e+00 9.1188000000e+01 9.1188000000e+01 2.4014e-14 0.0000e+00
 -9990012  2    3    3    0    0 -1.2895158881e+01 +1.6184540724e+00 -4.1409155635e+01 4.7787277810e+01 2.0000030848e+01 2.7735e-02 0.0000e+00
      -11  1    4    4    0    0 -1.1203123072e+01 +4.9239314764e-01 -2.1427407711e+01 2.4184420998e+01 5.1100000000e-04 0.0000e+00 1.0000e+00
       11  1    4    4    0    0 +9.7195364201e-01 +5.8338271611e+00 -5.2458577444e+00 7.9055206637e+00 5.1100000000e-04 0.0000e+00 -1.0000e+00
      -12  1    4    4    0    0 -2.6639894513e+00 -4.7077662363e+00 -1.4735890181e+01 1.5697336148e+01 0.0000000000e+00 0.0000e+00 1.0000e+00
       12  1    3    3    0    0 +1.2895158881e+01 -1.6184540724e+00 +4.1409155635e+01 4.3400722190e+01 0.0000000000e+00 0.0000e+00 -1.0000e+00
</event>
<event>
 8      3 +3.7482383e-04 9.11880000e+01 7.81616400e-03 1.18400000e-01
      -11 -1    0    0    0    0 +0.0000000000e+00 +0.0000000000e+00 +4.5593999997e+01 4.5594000000e+01 5.1100000000e-04 0.0000e+00 1.0000e+00
       11 -1    0    0    0    0 -0.0000000000e+00 -0.0000000000e+00 -4.5593999997e+01 4.5594000000e+01 5.1100000000e-04 0.0000e+00 -1.0000e+00
       23  2    1    2    0    0 +0.0000000000e+00 +0.0000000000e+00 +0.0000000000e+00 9.1188000000e+01 9.1188000000e+01 2.7792e-13 0.0000e+00
  9990012  2    3    3    0    0 -3.4585386166e+01 -1.2687030483e+01 -2.2945869359e+01 4.7787278815e+01 2.0000035431e+01 4.8824e-02 0.0000e+00
      -11  1    4    4    0    0 -6.5409433041e+00 +1.3827415298e+00 -1.7463631437e+00 6.9098261871e+00 5.1100000000e-04 0.0000e+00 1.0000e+00
       11  1    4    4    0    0 +1.4519089217e+00 +6.0811191238e-01 +2.0650311859e-01 1.5876030404e+00 5.1100000000e-04 0.0000e+00 -1.0000e+00
       12  1    4    4    0    0 -2.9496351783e+01 -1.4677883926e+01 -2.1406009334e+01 3.9289849588e+01 0.0000000000e+00 0.0000e+00 -1.0000e+00
      -12  1    3    3    0    0 +3.4585386166e+01 +1.2687030483e+01 +2.2945869359e+01 4.3400721185e+01 0.0000000000e+00 0.0000e+00 1.0000e+00
</event>
<event>
 8      4 +3.7482383e-04 9.11880000e+01 7.81616400e-03 1.18400000e-01
      -11 -1    0    0    0    0 +0.0000000000e+00 +0.0000000000e+00 +4.5593999997e+01 4.5594000000e+01 5.1100000000e-04 0.0000e+00 -1.0000e+00
       11 -1    0    0    0    0 -0.0000000000e+00 -0.0000000000e+00 -4.5593999997e+01 4.5594000000e+01 5.1100000000e-04 0.0000e+00 1.0000e+00
       23  2    1    2    0    0 +0.0000000000e+00 +0.0000000000e+00 +3.5527136788e-15 9.1188000000e+01 9.1188000000e+01 7.8107e-15 0.0000e+00
 -9990012  2    3    3    0    0 -2.8144306450e+01 -1.3981649230e+01 -2.9933838617e+01 4.7787271952e+01 2.0000004137e+01 7.7900e-02 0.0000e+00
      -11  1    4    4    0    0 -1.2926673873e+01 -7.0295248225e+00 -1.3052539701e+01 1.9669313907e+01 5.1100000000e-04 0.0000e+00 1.0000e+00
       11  1    4    4    0    0 -7.6146403998e-01 -7.3356715349e-01 -1.1407226479e+01 1.1456123448e+01 5.1100000000e-04 0.0000e+00 -1.0000e+00
      -12  1    4    4    0    0 -1.4456168537e+01 -6.2185572544e+00 -5.4740724376e+00 1.6661834597e+01 0.0000000000e+00 0.0000e+00 1.0000e+00
       12  1    3    3    0    0 +2.8144306450e+01 +1.3981649230e+01 +2.9933838617e+01 4.3400728048e+01 0.0000000000e+00 0.0000e+00 -1.0000e+00
</event>
<event>
 8      4 +3.7482383e-04 9.11880000e+01 7.81616400e-03 1.18400000e-01
      -11 -1    0    0    0    0 +0.0000000000e+00 +0.0000000000e+00 +4.5593999997e+01 4.5594000000e+01 5.1100000000e-04 0.0000e+00 1.0000e+00
       11 -1    0    0    0    0 -0.0000000000e+00 -0.0000000000e+00 -4.5593999997e+01 4.5594000000e+01 5.1100000000e-04 0.0000e+00 -1.0000e+00
       23  2    1    2    0    0 +0.0000000000e+00 +0.0000000000e+00 +0.0000000000e+00 9.1188000000e+01 9.1188000000e+01 4.1343e-14 0.0000e+00
 -9990012  2    3    3    0    0 -3.4204190062e+01 -9.3095337960e+00 +2.5040518873e+01 4.7787290067e+01 2.0000086730e+01 5.0903e-02 0.0000e+00
      -11  1    4    4    0    0 -1.9640142193e+01 +9.9487044323e-01 +2.0462192579e+01 2.8380033086e+01 5.1100000000e-04 0.0000e+00 1.0000e+00
       11  1    4    4    0    0 -6.8313502161e+00 -4.3545888275e+00 +5.2068969172e+00 9.6302422295e+00 5.1100000000e-04 0.0000e+00 -1.0000e+00
      -12  1    4    4    0    0 -7.7326976524e+00 -5.9498154116e+00 -6.2857062284e-01 9.7770147511e+00 0.0000000000e+00 0.0000e+00 1.0000e+00
       12  1    3    3    0    0 +3.4204190062e+01 +9.3095337960e+00 -2.5040518873e+01 4.3400709933e+01 0.0000000000e+00 0.0000e+00 -1.0000e+00
</event>
<event>
 8      4 +3.7482383e-04 9.11880000e+01 7.81616400e-03 1.18400000e-01
      -11 -1    0    0    0    0 +0.0000000000e+00 +0.0000000000e+00 +4.5593999997e+01 4.5594000000e+01 5.1100000000e-04 0.0000e+00 1.0000e+00
       11 -1    0    0    0    0 -0.0000000000e+00 -0.0000000000e+00 -4.5593999997e+01 4.5594000000e+01 5.1100000000e-04 0.0000e+00 -1.0000e+00
       23  2    1    2    0    0 -1.7763568394e-15 +0.0000000000e+00 +7.1054273576e-15 9.1188000000e+01 9.1188000000e+01 6.2245e-14 0.0000e+00
 -9990012  2    3    3    0    0 -1.2351948034e+01 -6.5639451556e+00 +4.1084877460e+01 4.7787272447e+01 2.0000006393e+01 4.8403e-01 0.0000e+00
      -11  1    4    4    0    0 -7.0229944645e+00 +2.4202665560e+00 +7.0197568711e+00 1.0220427009e+01 5.1100000000e-04 0.0000e+00 1.0000e+00
       11  1    4    4    0    0 +9.3705994589e-01 +1.2926342459e+00 +1.7905561624e-01 1.6065633541e+00 5.1100000000e-04 0.0000e+00 -1.0000e+00
      -12  1    4    4    0    0 -6.2660135159e+00 -1.0276845957e+01 +3.3886064973e+01 3.5960282084e+01 0.0000000000e+00 0.0000e+00 1.0000e+00
       12  1    3    3    0    0 +1.2351948034e+01 +6.5639451556e+00 -4.1084877460e+01 4.3400727553e+01 0.0000000000e+00 0.0000e+00 -1.0000e+00
</event>
<event>
 8      3 +3.7482383e-04 9.11880000e+01 7.81616400e-03 1.18400000e-01
      -11 -1    0    0    0    0 +0.0000000000e+00 +0.0000000000e+00 +4.5593999997e+01 4.5594000000e+01 5.1100000000e-04 0.0000e+00 -1.0000e+00
       11 -1    0    0    0    0 -0.0000000000e+00 -0.0000000000e+00 -4.5593999997e+01 4.5594000000e+01 5.1100000000e-04 0.0000e+00 1.0000e+00
       23  2    1    2    0    0 -8.8817841970e-16 +7.1054273576e-15 +0.0000000000e+00 9.1188000000e+01 9.1188000000e+01 2.1474e-14 0.0000e+00
  9990012  2    3    3    0    0 +7.8924252824e+00 -4.2380625344e+01 -5.0215183162e+00 4.7787269273e+01 1.9999991925e+01 5.3600e-01 0.0000e+00
      -11  1    4    4    0    0 +1.5995086558e+00 -3.0210707357e+01 -6.3764465595e+00 3.0917702663e+01 5.1100000000e-04 0.0000e+00 1.0000e+00
       11  1    4    4    0    0 -8.0031171373e-02 -9.2761613576e+00 +2.8659977292e+00 9.7091460883e+00 5.1100000000e-04 0.0000e+00 -1.0000e+00
       12  1    4    4    0    0 +6.3729477980e+00 -2.8937566297e+00 -1.5110694859e+00 7.1604205225e+00 0.0000000000e+00 0.0000e+00 -1.0000e+00
      -12  1    3    3    0    0 -7.8924252824e+00 +4.2380625344e+01 +5.0215183162e+00 4.3400730727e+01 0.0000000000e+00 0.0000e+00 1.0000e+00
</event>
<event>
 8      3 +3.7482383e-04 9.11880000e+01 7.81616400e-03 1.18400000e-01
      -11 -1    0    0    0    0 +0.0000000000e+00 +0.0000000000e+00 +4.5593999997e+01 4.5594000000e+01 5.1100000000e-04 0.0000e+00 1.0000e+00
       11 -1    0    0    0    0 -0.0000000000e+00 -0.0000000000e+00 -4.5593999997e+01 4.5594000000e+01 5.1100000000e-04 0.0000e+00 -1.0000e+00
       23  2    1    2    0    0 -3.5527136788e-15 +0.0000000000e+00 +0.0000000000e+00 9.1188000000e+01 9.1188000000e+01 3.5097e-14 0.0000e+00
  9990012  2    3    3    0    0 -2.5657716657e+01 +2.3679190433e+01 -2.5779875669e+01 4.7787257229e+01 1.9999937009e+01 3.2270e-01 0.0000e+00
      -11  1    4    4    0    0 -5.4683590037e-01 -1.2685877702e+00 +1.0484649748e+00 1.7342501253e+00 5.1100000000e-04 0.0000e+00 1.0000e+00
       11  1    4    4    0    0 -1.6474474153e+01 +1.8448007484e+01 -2.4856897953e+01 3.5065690566e+01 5.1100000000e-04 0.0000e+00 -1.0000e+00
       12  1    4    4    0    0 -8.6364066032e+00 +6.4997707189e+00 -1.9714426904e+00 1.0987316538e+01 0.0000000000e+00 0.0000e+00 -1.0000e+00
      -12  1    3    3    0    0 +2.5657716657e+01 -2.3679190433e+01 +2.5779875669e+01 4.3400742771e+01 0.0000000000e+00 0.0000e+00 1.0000e+00
</event>
<event>
 8      3 +3.7482383e-04 9.11880000e+01 7.81616400e-03 1.18400000e-01
      -11 -1    0    0    0    0 +0.0000000000e+00 +0.0000000000e+00 +4.5593999997e+01 4.5594000000e+01 5.1100000000e-04 0.0000e+00 1.0000e+00
       11 -1    0    0    0    0 -0.0000000000e+00 -0.0000000000e+00 -4.5593999997e+01 4.5594000000e+01 5.1100000000e-04 0.0000e+00 -1.0000e+00
       23  2    1    2    0    0 +0.0000000000e+00 +0.0000000000e+00 +3.5527136788e-15 9.1188000000e+01 9.1188000000e+01 2.7511e-13 0.0000e+00
  9990012  2    3    3    0    0 +3.3643725497e+01 +1.6966891697e+01 -2.1537099951e+01 4.7787281648e+01 2.0000048347e+01 4.8332e-01 0.0000e+00
      -11  1    4    4    0    0 +1.0081142449e+00 +4.5644784532e+00 +1.9313354393e+00 5.0577479890e+00 5.1100000000e-04 0.0000e+00 -1.0000e+00
       11  1    4    4    0    0 +1.3198141655e+01 +1.4127983548e+00 -7.1821344779e+00 1.5092050830e+01 5.1100000000e-04 0.0000e+00 1.0000e+00
       12  1    4    4    0    0 +1.9437469596e+01 +1.0989614889e+01 -1.6286300912e+01 2.7637482829e+01 0.0000000000e+00 0.0000e+00 -1.0000e+00
      -12  1    3    3    0    0 -3.3643725497e+01 -1.6966891697e+01 +2.1537099951e+01 4.3400718352e+01 0.0000000000e+00 0.0000e+00 1.0000e+00
</event>
<event>
 8      3 +3.7482383e-04 9.11880000e+01 7.81616400e-03 1.18400000e-01
      -11 -1    0    0    0    0 +0.0000000000e+00 +0.0000000000e+00 +4.5593999997e+01 4.5594000000e+01 5.1100000000e-04 0.0000e+00 1.0000e+00
       11 -1    0    0    0    0 -0.0000000000e+00 -0.0000000000e+00 -4.5593999997e+01 4.5594000000e+01 5.1100000000e-04 0.0000e+00 -1.0000e+00
       23  2    1    2    0    0 +0.0000000000e+00 +0.0000000000e+00 +1.7763568394e-15 9.1188000000e+01 9.1188000000e+01 8.3394e-15 0.0000e+00
  9990012  2    3    3    0    0 +2.5044941331e+01 -3.2735617768e+01 +1.3592395239e+01 4.7787274600e+01 2.0000016211e+01 5.2719e-02 0.0000e+00
      -11  1    4    4    0    0 +1.8108936635e+01 -1.1923862312e+01 +5.2078207152e+00 2.2298732595e+01 5.1100000000e-04 0.0000e+00 1.0000e+00
       11  1    4    4    0    0 +8.1405923001e+00 -1.7030745513e+01 +9.8084694000e+00 2.1272555275e+01 5.1100000000e-04 0.0000e+00 -1.0000e+00
       12  1    4    4    0    0 -1.2045876038e+00 -3.7810099432e+00 -1.4238948764e+00 4.2159867296e+00 0.0000000000e+00 0.0000e+00 -1.0000e+00
      -12  1    3    3    0    0 -2.5044941331e+01 +3.2735617768e+01 -1.3592395239e+01 4.3400725400e+01 0.0000000000e+00 0.0000e+00 1.0000e+00
</event>
<event>
 8      4 +3.7482383e-04 9.11880000e+01 7.81616400e-03 1.18400000e-01
      -11 -1    0    0    0    0 +0.0000000000e+00 +0.0000000000e+00 +4.5593999997e+01 4.5594000000e+01 5.1100000000e-04 0.0000e+00 1.0000e+00
       11 -1    0    0    0    0 -0.0000000000e+00 -0.0000000000e+00 -4.5593999997e+01 4.5594000000e+01 5.1100000000e-04 0.0000e+00 -1.0000e+00
       23  2    1    2    0    0 +0.0000000000e+00 +0.0000000000e+00 +0.0000000000e+00 9.1188000000e+01 9.1188000000e+01 2.3220e-14 0.0000e+00
 -9990012  2    3    3    0    0 -1.0141484473e+01 -1.1462489968e+01 +4.0612620305e+01 4.7787270610e+01 1.9999998019e+01 7.0309e-02 0.0000e+00
      -11  1    4    4    0    0 -2.6373769933e+00 -2.6881551500e+00 +1.2198579608e-01 3.7678662809e+00 5.1100000000e-04 0.0000e+00 1.0000e+00
       11  1    4    4    0    0 -2.4421916472e+00 -9.4656074528e+00 +1.4216283886e+01 1.7252963579e+01 5.1100000000e-04 0.0000e+00 -1.0000e+00
      -12  1    4    4    0    0 -5.0619158323e+00 +6.9127263454e-01 +2.6274350623e+01 2.6766440750e+01 0.0000000000e+00 0.0000e+00 1.0000e+00
       12  1    3    3    0    0 +1.0141484473e+01 +1.1462489968e+01 -4.0612620305e+01 4.3400729390e+01 0.0000000000e+00 0.0000e+00 -1.0000e+00
</event>
<event>
 8      3 +3.7482383e-04 9.11880000e+01 7.81616400e-03 1.18400000e-01
      -11 -1    0    0    0    0 +0.0000000000e+00 +0.0000000000e+00 +4.5593999997e+01 4.5594000000e+01 5.1100000000e-04 0.0000e+00 -1.0000e+00
       11 -1    0    0    0    0 -0.0000000000e+00 -0.0000000000e+00 -4.5593999997e+01 4.5594000000e+01 5.1100000000e-04 0.0000e+00 1.0000e+00
       23  2    1    2    0    0 +0.0000000000e+00 +0.0000000000e+00 +0.0000000000e+00 9.1188000000e+01 9.1188000000e+01 1.2479e-14 0.0000e+00
  9990012  2    3    3    0    0 +1.9776877486e+01 +3.4426070824e+01 +1.7531208962e+01 4.7787279693e+01 2.0000039434e+01 6.1076e-02 0.0000e+00
      -11  1    4    4    0    0 +8.9236720519e+00 +1.6176862762e+01 +1.4019941443e+01 2.3192273930e+01 5.1100000000e-04 0.0000e+00 1.0000e+00
       11  1    4    4    0    0 +4.7069922812e+00 +1.5976893981e+01 +5.8260064531e+00 1.7645375289e+01 5.1100000000e-04 0.0000e+00 -1.0000e+00
       12  1    4    4    0    0 +6.1462131526e+00 +2.2723140804e+00 -2.3147389343e+00 6.9496304744e+00 0.0000000000e+00 0.0000e+00 -1.0000e+00
      -12  1    3    3    0    0 -1.9776877486e+01 -3.4426070824e+01 -1.7531208962e+01 4.3400720307e+01 0.0000000000e+00 0.0000e+00 1.0000e+00
</event>
<event>
 8      3 +3.7482383e-04 9.11880000e+01 7.81616400e-03 1.18400000e-01
      -11 -1    0    0    0    0 +0.0000000000e+00 +0.0000000000e+00 +4.5593999997e+01 4.5594000000e+01 5.1100000000e-04 0.0000e+00 1.0000e+00
       11 -1    0    0    0    0 -0.0000000000e+00 -0.0000000000e+00 -4.5593999997e+01 4.5594000000e+01 5.1100000000e-04 0.0000e+00 -1.0000e+00
       23  2    1    2    0    0 +0.0000000000e+00 +0.0000000000e+00 +0.0000000000e+00 9.1188000000e+01 9.1188000000e+01 7.2210e-14 0.0000e+00
  9990012  2    3    3    0    0 -1.9593414692e+01 +1.4063402749e+01 -3.6082436663e+01 4.7787269226e+01 1.9999991710e+01 1.3650e-01 0.0000e+00
      -11  1    4    4    0    0 -2.4457912241e+00 -2.2181138868e-01 -6.0078217730e+00 6.4903788581e+00 5.1100000000e-04 0.0000e+00 1.0000e+00
       11  1    4    4    0    0 -2.8680332329e+00 +7.7763778014e+00 -2.2285960744e+01 2.3777336118e+01 5.1100000000e-04 0.0000e+00 -1.0000e+00
       12  1    4    4    0    0 -1.4279590235e+01 +6.5088363361e+00 -7.7886541463e+00 1.7519554250e+01 0.0000000000e+00 0.0000e+00 -1.0000e+00
      -12  1    3    3    0    0 +1.9593414692e+01 -1.4063402749e+01 +3.6082436663e+01 4.3400730774e+01 0.0000000000e+00 0.0000e+00 1.0000e+00
</event>
<event>
 8      3 +3.7482383e-04 9.11880000e+01 7.81616400e-03 1.18400000e-01
      -11 -1    0    0    0    0 +0.0000000000e+00 +0.0000000000e+00 +4.5593999997e+01 4.5594000000e+01 5.1100000000e-04 0.0000e+00 1.0000e+00
       11 -1    0    0    0    0 -0.0000000000e+00 -0.0000000000e+00 -4.5593999997e+01 4.5594000000e+01 5.1100000000e-04 0.0000e+00 -1.0000e+00
       23  2    1    2    0    0 +0.0000000000e+00 +0.0000000000e+00 +1.7763568394e-15 9.1188000000e+01 9.1188000000e+01 9.0332e-14 0.0000e+00
  9990012  2    3    3    0    0 +3.1485265123e+01 -2.6305726230e+01 +1.4153102711e+01 4.7787268799e+01 1.9999989764e+01 3.6699e-01 0.0000e+00
      -11  1    4    4    0    0 -1.3275205891e+00 +1.6375174611e+00 +4.6378626954e-01 2.1584421036e+00 5.1100000000e-04 0.0000e+00 1.0000e+00
       11  1    4    4    0    0 +1.8709038816e+01 -1.8618002897e+01 +1.0588595567e+01 2.8438996495e+01 5.1100000000e-04 0.0000e+00 -1.0000e+00
       12  1    4    4    0    0 +1.4103746897e+01 -9.3252407944e+00 +3.1007208744e+00 1.7189830201e+01 0.0000000000e+00 0.0000e+00 -1.0000e+00
      -12  1    3    3    0    0 -3.1485265123e+01 +2.6305726230e+01 -1.4153102711e+01 4.3400731201e+01 0.0000000000e+00 0.0000e+00 1.0000e+00
</event>
<event>
 8      4 +3.7482383e-04 9.11880000e+01 7.81616400e-03 1.18400000e-01
      -11 -1    0    0    0    0 +0.0000000000e+00 +0.0000000000e+00 +4.5593999997e+01 4.5594000000e+01 5.1100000000e-04 0.0000e+00 1.0000e+00
       11 -1    0    0    0    0 -0.0000000000e+00 -0.0000000000e+00 -4.5593999997e+01 4.5594000000e+01 5.1100000000e-04 0.0000e+00 -1.0000e+00
       23  2    1    2    0    0 +3.5527136788e-15 +3.5527136788e-15 +0.0000000000e+00 9.1188000000e+01 9.1188000000e+01 1.8538e-13 0.0000e+00
 -9990012  2    3    3    0    0 +2.3647257877e+01 +1.7301372021e+01 +3.2017073353e+01 4.7787271147e+01 2.0000000469e+01 2.5351e-01 0.0000e+00
      -11  1    4    4    0    0 +9.4288629531e+00 +3.0668031114e+00 +1.4122740885e+01 1.7255739575e+01 5.1100000000e-04 0.0000e+00 1.0000e+00
       11  1    4    4    0    0 +1.2440746012e+01 +2.2770235249e+00 +8.9753958186e+00 1.5508537256e+01 5.1100000000e-04 0.0000e+00 -1.0000e+00
      -12  1    4    4    0    0 +1.7776489118e+00 +1.1957545384e+01 +8.9189366493e+00 1.5022994316e+01 0.0000000000e+00 0.0000e+00 1.0000e+00
       12  1    3    3    0    0 -2.3647257877e+01 -1.7301372021e+01 -3.2017073353e+01 4.3400728853e+01 0.0000000000e+00 0.0000e+00 -1.0000e+00
</event>
<event>
 8      3 +3.7482383e-04 9.11880000e+01 7.81616400e-03 1.18400000e-01
      -11 -1    0    0    0    0 +0.0000000000e+00 +0.0000000000e+00 +4.5593999997e+01 4.5594000000e+01 5.1100000000e-04 0.0000e+00 -1.0000e+00
       11 -1    0    0    0    0 -0.0000000000e+00 -0.0000000000e+00 -4.5593999997e+01 4.5594000000e+01 5.1100000000e-04 0.0000e+00 1.0000e+00
       23  2    1    2    0    0 +3.5527136788e-15 +0.0000000000e+00 +3.5527136788e-15 9.1188000000e+01 9.1188000000e+01 1.5416e-13 0.0000e+00
  9990012  2    3    3    0    0 +1.7142165306e+01 +3.2419835613e+01 +2.3210386275e+01 4.7787290287e+01 2.0000087735e+01 8.7187e-02 0.0000e+00
      -11  1    4    4    0    0 +1.0524504757e+01 +1.3495610351e+01 +1.5073311427e+01 2.2805732103e+01 5.1100000000e-04 0.0000e+00 1.0000e+00
       11  1    4    4    0    0 +2.3910485082e+00 +1.6818791116e+01 +1.0215008222e+01 1.9822594199e+01 5.1100000000e-04 0.0000e+00 -1.0000e+00
       12  1    4    4    0    0 +4.2266120408e+00 +2.1054341461e+00 -2.0779333738e+00 5.1589639845e+00 0.0000000000e+00 0.0000e+00 -1.0000e+00
      -12  1    3    3    0    0 -1.7142165306e+01 -3.2419835613e+01 -2.3210386275e+01 4.3400709713e+01 0.0000000000e+00 0.0000e+00 1.0000e+00
</event>
<event>
 8      4 +3.7482383e-04 9.11880000e+01 7.81616400e-03 1.18400000e-01
      -11 -1    0    0    0    0 +0.0000000000e+00 +0.0000000000e+00 +4.5593999997e+01 4.5594000000e+01 5.1100000000e-04 0.0000e+00 -1.0000e+00
       11 -1    0    0    0    0 -0.0000000000e+00 -0.0000000000e+00 -4.5593999997e+01 4.5594000000e+01 5.1100000000e-04 0.0000e+00 1.0000e+00
       23  2    1    2    0    0 +1.7763568394e-15 +0.0000000000e+00 -8.8817841970e-16 9.1188000000e+01 9.1188000000e+01 9.6834e-14 0.0000e+00
 -9990012  2    3    3    0    0 -7.3921358535e+00 -4.2718031444e+01 -2.0369851821e+00 4.7787271993e+01 2.0000004323e+01 9.3621e-02 0.0000e+00
      -11  1    4    4    0    0 -9.8952723039e-01 -1.7082247181e+01 +2.3487677091e+00 1.7271335875e+01 5.1100000000e-04 0.0000e+00 1.0000e+00
       11  1    4    4    0    0 -5.5619067408e+00 -8.6482311853e+00 +4.6176123387e+00 1.1271603843e+01 5.1100000000e-04 0.0000e+00 -1.0000e+00
      -12  1    4    4    0    0 -8.4070188230e-01 -1.6987553078e+01 -9.0033652299e+00 1.9244332275e+01 0.0000000000e+00 0.0000e+00 1.0000e+00
       12  1    3    3    0    0 +7.3921358535e+00 +4.2718031444e+01 +2.0369851821e+00 4.3400728007e+01 0.0000000000e+00 0.0000e+00 -1.0000e+00
</event>
<event>
 8      3 +3.7482383e-04 9.11880000e+01 7.81616400e-03 1.18400000e-01
      -11 -1    0    0    0    0 +0.0000000000e+00 +0.0000000000e+00 +4.5593999997e+01 4.5594000000e+01 5.1100000000e-04 0.0000e+00 -1.0000e+00
       11 -1    0    0    0    0 -0.0000000000e+00 -0.0000000000e+00 -4.5593999997e+01 4.5594000000e+01 5.1100000000e-04 0.0000e+00 1.0000e+00
       23  2    1    2    0    0 +0.0000000000e+00 +0.0000000000e+00 +1.7763568394e-15 9.1188000000e+01 9.1188000000e+01 1.2037e-13 0.0000e+00
  9990012  2    3    3    0    0 -1.7539371658e+01 -3.6691039616e+01 +1.5157878336e+01 4.7787271644e+01 2.0000002732e+01 4.0531e-02 0.0000e+00
      -11  1    4    4    0    0 -8.0980449323e+00 -1.8250843302e+00 +3.5248807996e+00 9.0185392082e+00 5.1100000000e-04 0.0000e+00 1.0000e+00
       11  1    4    4    0    0 -5.0848331890e+00 -1.2306551342e+01 +7.2682388656e-01 1.3335479283e+01 5.1100000000e-04 0.0000e+00 -1.0000e+00
       12  1    4    4    0    0 -4.3564935363e+00 -2.2559403944e+01 +1.0906173650e+01 2.5433253152e+01 0.0000000000e+00 0.0000e+00 -1.0000e+00
      -12  1    3    3    0    0 +1.7539371658e+01 +3.6691039616e+01 -1.5157878336e+01 4.3400728356e+01 0.0000000000e+00 0.0000e+00 1.0000e+00
</event>
<event>
 8      4 +3.7482383e-04 9.11880000e+01 7.81616400e-03 1.18400000e-01
      -11 -1    0    0    0    0 +0.0000000000e+00 +0.0000000000e+00 +4.5593999997e+01 4.5594000000e+01 5.1100000000e-04 0.0000e+00 1.0000e+00
       11 -1    0    0    0    0 -0.0000000000e+00 -0.0000000000e+00 -4.5593999997e+01 4.5594000000e+01 5.1100000000e-04 0.0000e+00 -1.0000e+00
       23  2    1    2    0    0 -3.5527136788e-15 +0.0000000000e+00 -3.5527136788e-15 9.1188000000e+01 9.1188000000e+01 1.5083e-13 0.0000e+00
 -9990012  2    3    3    0    0 +1.6995964384e+01 +3.4330969701e+01 +2.0399635546e+01 4.7787269403e+01 1.9999992517e+01 2.3747e-01 0.0000e+00
      -11  1    4    4    0    0 +1.9147921776e+01 +2.9354580133e+01 +1.9161608797e+01 3.9943729608e+01 5.1100000000e-04 0.0000e+00 1.0000e+00
       11  1    4    4    0    0 -5.4650070962e-01 +2.7700245644e+00 -2.1097642007e+00 3.5245998860e+00 5.1100000000e-04 0.0000e+00 -1.0000e+00
      -12  1    4    4    0    0 -1.6054566826e+00 +2.2063650037e+00 +3.3477909502e+00 4.3189399088e+00 0.0000000000e+00 0.0000e+00 1.0000e+00
       12  1    3    3    0    0 -1.6995964384e+01 -3.4330969701e+01 -2.0399635546e+01 4.3400730597e+01 0.0000000000e+00 0.0000e+00 -1.0000e+00
</event>
<event>
 8      4 +3.7482383e-04 9.11880000e+01 7.81616400e-03 1.18400000e-01
      -11 -1    0    0    0    0 +0.0000000000e+00 +0.0000000000e+00 +4.5593999997e+01 4.5594000000e+01 5.1100000000e-04 0.0000e+00 -1.0000e+00
       11 -1    0    0    0    0 -0.0000000000e+00 -0.0000000000e+00 -4.5593999997e+01 4.5594000000e+01 5.1100000000e-04 0.0000e+00 1.0000e+00
       23  2    1    2    0    0 +0.0000000000e+00 +0.0000000000e+00 -1.7763568394e-15 9.1188000000e+01 9.1188000000e+01 6.1327e-14 0.0000e+00
 -9990012  2    3    3    0    0 +3.9126608263e+01 +1.2627056584e+01 -1.3902840991e+01 4.7787273972e+01 2.0000013349e+01 4.4264e-01 0.0000e+00
      -11  1    4    4    0    0 +1.0954292480e+01 -9.8935412199e-02 -3.9596398765e+00 1.1648393029e+01 5.1100000000e-04 0.0000e+00 1.0000e+00
       11  1    4    4    0    0 +1.1390019596e+01 +2.9495309640e-01 -1.0140903750e+01 1.5253113546e+01 5.1100000000e-04 0.0000e+00 -1.0000e+00
      -12  1    4    4    0    0 +1.6782296187e+01 +1.2431038899e+01 +1.9770263561e-01 2.0885767397e+01 0.0000000000e+00 0.0000e+00 1.0000e+00
       12  1    3    3    0    0 -3.9126608263e+01 -1.2627056584e+01 +1.3902840991e+01 4.3400726028e+01 0.0000000000e+00 0.0000e+00 -1.0000e+00
</event>
<event>
 8      3 +3.7482383e-04 9.11880000e+01 7.81616400e-03 1.18400000e-01
      -11 -1    0    0    0    0 +0.0000000000e+00 +0.0000000000e+00 +4.5593999997e+01 4.5594000000e+01 5.1100000000e-04 0.0000e+00 1.0000e+00
       11 -1    0    0    0    0 -0.0000000000e+00 -0.0000000000e+00 -4.5593999997e+01 4.5594000000e+01 5.1100000000e-04 0.0000e+00 -1.0000e+00
       23  2    1    2    0    0 +0.0000000000e+00 +0.0000000000e+00 +0.0000000000e+00 9.1188000000e+01 9.1188000000e+01 4.4429e-15 0.0000e+00
  9990012  2    3    3    0    0 +3.0941329700e+01 -1.7977641843e+01 -2.4557310446e+01 4.7787274359e+01 2.0000015112e+01 9.7712e-02 0.0000e+00
      -11  1    4    4    0    0 +1.2957920741e+01 +5.6675369754e-01 -1.0245266610e+01 1.6528593644e+01 5.1100000000e-04 0.0000e+00 1.0000e+00
       11  1    4    4    0    0 +1.0535443505e+01 -1.4846434319e+01 -1.3950565031e+01 2.2935353644e+01 5.1100000000e-04 0.0000e+00 -1.0000e+00
       12  1    4    4    0    0 +7.4479654541e+00 -3.6979612211e+00 -3.6147880470e-01 8.3233270706e+00 0.0000000000e+00 0.0000e+00 -1.0000e+00
      -12  1    3    3    0    0 -3.0941329700e+01 +1.7977641843e+01 +2.4557310446e+01 4.3400725641e+01 0.0000000000e+00 0.0000e+00 1.0000e+00
</event>
<event>
 8      3 +3.7482383e-04 9.11880000e+01 7.81616400e-03 1.18400000e-01
      -11 -1    0    0    0    0 +0.0000000000e+00 +0.0000000000e+00 +4.5593999997e+01 4.5594000000e+01 5.1100000000e-04 0.0000e+00 -1.0000e+00
       11 -1    0    0    0    0 -0.0000000000e+00 -0.0000000000e+00 -4.5593999997e+01 4.5594000000e+01 5.1100000000e-04 0.0000e+00 1.0000e+00
       23  2    1    2    0    0 -1.7763568394e-15 +0.0000000000e+00 +7.1054273576e-15 9.1188000000e+01 9.1188000000e+01 1.5639e-13 0.0000e+00
  9990012  2    3    3    0    0 -4.5824136436e+00 -6.6569848474e+00 +4.2641639326e+01 4.7787269978e+01 1.9999995136e+01 1.3601e-01 0.0000e+00
      -11  1    4    4    0    0 -8.3533115178e+00 +4.3245930535e-01 +1.2648551972e+01 1.5164125482e+01 5.1100000000e-04 0.0000e+00 1.0000e+00
       11  1    4    4    0    0 +1.6216928103e+00 +2.1689446669e+00 +1.1687453280e+01 1.1997115193e+01 5.1100000000e-04 0.0000e+00 -1.0000e+00
       12  1    4    4    0    0 +2.1492050638e+00 -9.2583888196e+00 +1.8305634074e+01 2.0626029303e+01 0.0000000000e+00 0.0000e+00 -1.0000e+00
      -12  1    3    3    0    0 +4.5824136436e+00 +6.6569848474e+00 -4.2641639326e+01 4.3400730022e+01 0.0000000000e+00 0.0000e+00 1.0000e+00
</event>
<event>
 8      3 +3.7482383e-04 9.11880000e+01 7.81616400e-03 1.18400000e-01
      -11 -1    0    0    0    0 +0.0000000000e+00 +0.0000000000e+00 +4.5593999997e+01 4.5594000000e+01 5.1100000000e-04 0.0000e+00 -1.0000e+00
       11 -1    0    0    0    0 -0.0000000000e+00 -0.0000000000e+00 -4.5593999997e+01 4.5594000000e+01 5.1100000000e-04 0.0000e+00 1.0000e+00
       23  2    1    2    0    0 -8.8817841970e-16 -8.8817841970e-16 +0.0000000000e+00 9.1188000000e+01 9.1188000000e+01 5.0639e-14 0.0000e+00
  9990012  2    3    3    0    0 -6.3241060616e+00 +4.3423712977e+00 +4.2717357048e+01 4.7787273058e+01 2.0000009179e+01 6.0633e-02 0.0000e+00
      -11  1    4    4    0    0 +2.8120727252e+00 +1.9420528171e+00 +4.3482699986e+00 5.5305311136e+00 5.1100000000e-04 0.0000e+00 1.0000e+00
       11  1    4    4    0    0 -5.9066810664e-01 +7.2271145454e+00 +1.0942512946e+01 1.3127020351e+01 5.1100000000e-04 0.0000e+00 -1.0000e+00
       12  1    4    4    0    0 -8.5455106801e+00 -4.8267960648e+00 +2.7426574103e+01 2.9129721593e+01 0.0000000000e+00 0.0000e+00 -1.0000e+00
      -12  1    3    3    0    0 +6.3241060616e+00 -4.3423712977e+00 -4.2717357048e+01 4.3400726942e+01 0.0000000000e+00 0.0000e+00 1.0000e+00
</event>
<event>
 8      3 +3.7482383e-04 9.11880000e+01 7.81616400e-03 1.18400000e-01
      -11 -1    0    0    0    0 +0.0000000000e+00 +0.0000000000e+00 +4.5593999997e+01 4.5594000000e+01 5.1100000000e-04 0.0000e+00 1.0000e+00
       11 -1    0    0    0    0 -0.0000000000e+00 -0.0000000000e+00 -4.5593999997e+01 4.5594000000e+01 5.1100000000e-04 0.0000e+00 -1.0000e+00
       23  2    1    2    0    0 +7.1054273576e-15 +1.7763568394e-15 +1.7763568394e-15 9.1188000000e+01 9.1188000000e+01 1.0492e-14 0.0000e+00
  9990012  2    3    3    0    0 +4.1461772202e+01 +3.8216344894e+00 +1.2244995488e+01 4.7787270066e+01 1.9999995538e+01 6.5936e-02 0.0000e+00
      -11  1    4    4    0    0 +7.6150339736e+00 +1.8552098380e-01 -3.2801861062e+00 8.2935385456e+00 5.1100000000e-04 0.0000e+00 -1.0000e+00
       11  1    4    4    0    0 +5.5104978793e+00 -4.1671651145e+00 +3.3958375613e+00 7.6982182985e+00 5.1100000000e-04 0.0000e+00 1.0000e+00
       12  1    4    4    0    0 +2.8336240349e+01 +7.8032786201e+00 +1.2129344033e+01 3.1795513222e+01 0.0000000000e+00 0.0000e+00 -1.0000e+00
      -12  1    3    3    0    0 -4.1461772202e+01 -3.8216344894e+00 -1.2244995488e+01 4.3400729934e+01 0.0000000000e+00 0.0000e+00 1.0000e+00
</event>
<event>
 8      4 +3.7482383e-04 9.11880000e+01 7.81616400e-03 1.18400000e-01
      -11 -1    0    0    0    0 +0.0000000000e+00 +0.0000000000e+00 +4.5593999997e+01 4.5594000000e+01 5.1100000000e-04 0.0000e+00 1.0000e+00
       11 -1    0    0    0    0 -0.0000000000e+00 -0.0000000000e+00 -4.5593999997e+01 4.5594000000e+01 5.1100000000e-04 0.0000e+00 -1.0000e+00
       23  2    1    2    0    0 +0.0000000000e+00 +3.8857805862e-16 +0.0000000000e+00 9.1188000000e+01 9.1188000000e+01 3.1809e-15 0.0000e+00
 -9990012  2    3    3    0    0 -4.0028401729e+01 +3.1634985899e-01 +1.6770521299e+01 4.7787269512e+01 1.9999993014e+01 1.6303e-01 0.0000e+00
      -11  1    4    4    0    0 -8.2848515021e+00 -2.6408266197e+00 +5.2967949830e+00 1.0181786042e+01 5.1100000000e-04 0.0000e+00 -1.0000e+00
       11  1    4    4    0    0 -1.9330731577e+01 -6.1174332998e+00 +8.2801606393e+00 2.1901169693e+01 5.1100000000e-04 0.0000e+00 1.0000e+00
      -12  1    4    4    0    0 -1.2412818650e+01 +9.0746097784e+00 +3.1935656771e+00 1.5704313777e+01 0.0000000000e+00 0.0000e+00 1.0000e+00
       12  1    3    3    0    0 +4.0028401729e+01 -3.1634985899e-01 -1.6770521299e+01 4.3400730488e+01 0.0000000000e+00 0.0000e+00 -1.0000e+00
</event>
<event>
 8      3 +3.7482383e-04 9.11880000e+01 7.81616400e-03 1.18400000e-01
      -11 -1    0    0    0    0 +0.0000000000e+00 +0.0000000000e+00 +4.5593999997e+01 4.5594000000e+01 5.1100000000e-04 0.0000e+00 -1.0000e+00
       11 -1    0    0    0    0 -0.0000000000e+00 -0.0000000000e+00 -4.5593999997e+01 4.5594000000e+01 5.1100000000e-04 0.0000e+00 1.0000e+00
       23  2    1    2    0    0 +0.0000000000e+00 +0.0000000000e+00 +0.0000000000e+00 9.1188000000e+01 9.1188000000e+01 9.1126e-15 0.0000e+00
  9990012  2    3    3    0    0 +1.3297266018e+01 -3.9479418244e+01 +1.2172976828e+01 4.7787272894e+01 2.0000008434e+01 1.6453e-01 0.0000e+00
      -11  1    4    4    0    0 +7.4978181686e+00 -4.1740895721e+00 +6.3577764330e+00 1.0679963599e+01 5.1100000000e-04 0.0000e+00 1.0000e+00
       11  1    4    4    0    0 +3.5467538078e+00 -1.1527648172e+01 +5.4125800860e+00 1.3219763932e+01 5.1100000000e-04 0.0000e+00 -1.0000e+00
       12  1    4    4    0    0 +2.2526940421e+00 -2.3777680500e+01 +4.0262030916e-01 2.3887545364e+01 0.0000000000e+00 0.0000e+00 -1.0000e+00
      -12  1    3    3    0    0 -1.3297266018e+01 +3.9479418244e+01 -1.2172976828e+01 4.3400727106e+01 0.0000000000e+00 0.0000e+00 1.0000e+00
</event>
<event>
 8      4 +3.7482383e-04 9.11880000e+01 7.81616400e-03 1.18400000e-01
      -11 -1    0    0    0    0 +0.0000000000e+00 +0.0000000000e+00 +4.5593999997e+01 4.5594000000e+01 5.1100000000e-04 0.0000e+00 -1.0000e+00
       11 -1    0    0    0    0 -0.0000000000e+00 -0.0000000000e+00 -4.5593999997e+01 4.5594000000e+01 5.1100000000e-04 0.0000e+00 1.0000e+00
       23  2    1    2    0    0 +0.0000000000e+00 +0.0000000000e+00 +3.5527136788e-15 9.1188000000e+01 9.1188000000e+01 6.0785e-14 0.0000e+00
 -9990012  2    3    3    0    0 +3.3611098249e+01 -1.8792510581e+01 -2.0018966402e+01 4.7787269646e+01 1.9999993623e+01 8.2766e-01 0.0000e+00
      -11  1    4    4    0    0 +5.4467410949e+00 -1.0361993747e+01 -1.4033335795e+00 1.1790133518e+01 5.1100000000e-04 0.0000e+00 1.0000e+00
       11  1    4    4    0    0 +3.6826961343e+00 +2.0124638375e-01 +5.5112216976e-01 3.7291402268e+00 5.1100000000e-04 0.0000e+00 -1.0000e+00
      -12  1    4    4    0    0 +2.4481661020e+01 -8.6317632176e+00 -1.9166754993e+01 3.2267995901e+01 0.0000000000e+00 0.0000e+00 1.0000e+00
       12  1    3    3    0    0 -3.3611098249e+01 +1.8792510581e+01 +2.0018966402e+01 4.3400730354e+01 0.0000000000e+00 0.0000e+00 -1.0000e+00
</event>
<event>
 8      3 +3.7482383e-04 9.11880000e+01 7.81616400e-03 1.18400000e-01
      -11 -1    0    0    0    0 +0.0000000000e+00 +0.0000000000e+00 +4.5593999997e+01 4.5594000000e+01 5.1100000000e-04 0.0000e+00 -1.0000e+00
       11 -1    0    0    0    0 -0.0000000000e+00 -0.0000000000e+00 -4.5593999997e+01 4.5594000000e+01 5.1100000000e-04 0.0000e+00 1.0000e+00
       23  2    1    2    0    0 +4.4408920985e-16 -8.8817841970e-16 +0.0000000000e+00 9.1188000000e+01 9.1188000000e+01 1.1762e-14 0.0000e+00
  9990012  2    3    3    0    0 +1.8507048191e+00 -7.2742584916e+00 +4.2746752182e+01 4.7787253843e+01 1.9999921570e+01 9.6816e-02 0.0000e+00
      -11  1    4    4    0    0 -1.3315736543e+00 -2.1754840951e+00 -1.1913439034e+00 2.8151589657e+00 5.1100000000e-04 0.0000e+00 1.0000e+00
       11  1    4    4    0    0 +3.8358677719e+00 -2.5279387959e-01 +1.0564491396e+01 1.1242164606e+01 5.1100000000e-04 0.0000e+00 -1.0000e+00
       12  1    4    4    0    0 -6.5358929848e-01 -4.8459805170e+00 +3.3373604689e+01 3.3729930271e+01 0.0000000000e+00 0.0000e+00 -1.0000e+00
      -12  1    3    3    0    0 -1.8507048191e+00 +7.2742584916e+00 -4.2746752182e+01 4.3400746157e+01 0.0000000000e+00 0.0000e+00 1.0000e+00
</event>
<event>
 8      4 +3.7482383e-04 9.11880000e+01 7.81616400e-03 1.18400000e-01
      -11 -1    0    0    0    0 +0.0000000000e+00 +0.0000000000e+00 +4.5593999997e+01 4.5594000000e+01 5.1100000000e-04 0.0000e+00 1.0000e+00
       11 -1    0    0    0    0 -0.0000000000e+00 -0.0000000000e+00 -4.5593999997e+01 4.5594000000e+01 5.1100000000e-04 0.0000e+00 -1.0000e+00
       23  2    1    2    0    0 +3.5527136788e-15 +0.0000000000e+00 +0.0000000000e+00 9.1188000000e+01 9.1188000000e+01 1.7528e-13 0.0000e+00
 -9990012  2    3    3    0    0 +1.9477015519e+01 +3.8336229130e+01 +5.8825374619e+00 4.7787252951e+01 1.9999917505e+01 1.1211e-01 0.0000e+00
      -11  1    4    4    0    0 +6.9293711599e+00 +2.1036119281e+01 -2.4054789925e+00 2.2278259100e+01 5.1100000000e-04 0.0000e+00 1.0000e+00
       11  1    4    4    0    0 +2.4532087762e+00 -1.2862567396e+00 +2.0865966421e+00 3.4679353378e+00 5.1100000000e-04 0.0000e+00 -1.0000e+00
      -12  1    4    4    0    0 +1.0094435583e+01 +1.8586366588e+01 +6.2014198123e+00 2.2041058513e+01 0.0000000000e+00 0.0000e+00 1.0000e+00
       12  1    3    3    0    0 -1.9477015519e+01 -3.8336229130e+01 -5.8825374619e+00 4.3400747049e+01 0.0000000000e+00 0.0000e+00 -1.0000e+00
</event>
<event>
 8      4 +3.7482383e-04 9.11880000e+01 7.81616400e-03 1.18400000e-01
      -11 -1    0    0    0    0 +0.0000000000e+00 +0.0000000000e+00 +4.5593999997e+01 4.5594000000e+01 5.1100000000e-04 0.0000e+00 1.0000e+00
       11 -1    0    0    0    0 -0.0000000000e+00 -0.0000000000e+00 -4.5593999997e+01 4.5594000000e+01 5.1100000000e-04 0.0000e+00 -1.0000e+00
       23  2    1    2    0    0 -4.4408920985e-16 -3.5527136788e-15 +0.0000000000e+00 9.1188000000e+01 9.1188000000e+01 2.2408e-14 0.0000e+00
 -9990012  2    3    3    0    0 -1.7072735102e+00 -2.1652526588e+01 +3.7574946274e+01 4.7787270997e+01 1.9999999782e+01 7.9359e-03 0.0000e+00
      -11  1    4    4    0    0 +1.8601495469e+00 -1.8300950471e+01 +1.2973135037e+01 2.2509712958e+01 5.1100000000e-04 0.0000e+00 -1.0000e+00
       11  1    4    4    0    0 -3.8475746785e+00 -3.4974970600e+00 +2.4264791614e+01 2.4815648872e+01 5.1100000000e-04 0.0000e+00 1.0000e+00
      -12  1    4    4    0    0 +2.8015162143e-01 +1.4592094278e-01 +3.3701962311e-01 4.6190916736e-01 0.0000000000e+00 0.0000e+00 1.0000e+00
       12  1    3    3    0    0 +1.7072735102e+00 +2.1652526588e+01 -3.7574946274e+01 4.3400729003e+01 0.0000000000e+00 0.0000e+00 -1.0000e+00
</event>
<event>
 8      4 +3.7482383e-04 9.11880000e+01 7.81616400e-03 1.18400000e-01
      -11 -1    0    0    0    0 +0.0000000000e+00 +0.0000000000e+00 +4.5593999997e+01 4.5594000000e+01 5.1100000000e-04 0.0000e+00 -1.0000e+00
       11 -1    0    0    0    0 -0.0000000000e+00 -0.0000000000e+00 -4.5593999997e+01 4.5594000000e+01 5.1100000000e-04 0.0000e+00 1.0000e+00
       23  2    1    2    0    0 +1.7763568394e-15 -7.1054273576e-15 +0.0000000000e+00 9.1188000000e+01 9.1188000000e+01 2.3367e-14 0.0000e+00
 -9990012  2    3    3    0    0 -1.5470113322e+01 +3.4982876126e+01 -2.0506067383e+01 4.7787253143e+01 1.9999918380e+01 1.1239e-01 0.0000e+00
      -11  1    4    4    0    0 -3.2453227401e+00 +2.8722948514e+00 +3.3458620724e-01 4.3467396508e+00 5.1100000000e-04 0.0000e+00 -1.0000e+00
       11  1    4    4    0    0 -1.0519265279e+01 +3.2896452886e+01 -2.2257540784e+01 4.1088072192e+01 5.1100000000e-04 0.0000e+00 1.0000e+00
      -12  1    4    4    0    0 -1.7055253029e+00 -7.8587161118e-01 +1.4168871940e+00 2.3524412997e+00 0.0000000000e+00 0.0000e+00 1.0000e+00
       12  1    3    3    0    0 +1.5470113322e+01 -3.4982876126e+01 +2.0506067383e+01 4.3400746857e+01 0.0000000000e+00 0.0000e+00 -1.0000e+00
</event>
<event>
 8      4 +3.7482383e-04 9.11880000e+01 7.81616400e-03 1.18400000e-01
      -11 -1    0    0    0    0 +0.0000000000e+00 +0.0000000000e+00 +4.5593999997e+01 4.5594000000e+01 5.1100000000e-04 0.0000e+00 1.0000e+00
       11 -1    0    0    0    0 -0.0000000000e+00 -0.0000000000e+00 -4.5593999997e+01 4.5594000000e+01 5.1100000000e-04 0.0000e+00 -1.0000e+00
       23  2    1    2    0    0 +0.0000000000e+00 -3.5527136788e-15 +3.5527136788e-15 9.1188000000e+01 9.1188000000e+01 4.6560e-14 0.0000e+00
 -9990012  2    3    3    0    0 +3.4421567773e+01 -1.6943640073e+01 +2.0290187005e+01 4.7787274711e+01 2.0000016717e+01 2.9518e-01 0.0000e+00
      -11  1    4    4    0    0 +3.0869896113e+00 -7.7365977392e+00 +8.3281535547e+00 1.1778904505e+01 5.1100000000e-04 0.0000e+00 1.0000e+00
       11  1    4    4    0    0 +2.4848680138e+01 -5.2874086314e+00 +1.2684730541e+01 2.8395703615e+01 5.1100000000e-04 0.0000e+00 -1.0000e+00
      -12  1    4    4    0    0 +6.4858980238e+00 -3.9196337027e+00 -7.2269709068e-01 7.6126665908e+00 0.0000000000e+00 0.0000e+00 1.0000e+00
       12  1    3    3    0    0 -3.4421567773e+01 +1.6943640073e+01 -2.0290187005e+01 4.3400725289e+01 0.0000000000e+00 0.0000e+00 -1.0000e+00
</event>
<event>
 8      3 +3.7482383e-04 9.11880000e+01 7.81616400e-03 1.18400000e-01
      -11 -1    0    0    0    0 +0.0000000000e+00 +0.0000000000e+00 +4.5593999997e+01 4.5594000000e+01 5.1100000000e-04 0.0000e+00 1.0000e+00
       11 -1    0    0    0    0 -0.0000000000e+00 -0.0000000000e+00 -4.5593999997e+01 4.5594000000e+01 5.1100000000e-04 0.0000e+00 -1.0000e+00
       23  2    1    2    0    0 +3.5527136788e-15 -8.8817841970e-16 +7.1054273576e-15 9.1188000000e+01 9.1188000000e+01 1.8622e-14 0.0000e+00
  9990012  2    3    3    0    0 +2.5287702725e+01 -7.5668257416e+00 +3.4451394942e+01 4.7787269887e+01 1.9999994724e+01 6.5337e-01 0.0000e+00
      -11  1    4    4    0    0 +1.1371411569e+00 +1.2100108523e+00 +7.4036169466e+00 7.5875398138e+00 5.1100000000e-04 0.0000e+00 1.0000e+00
       11  1    4    4    0    0 +5.3975616604e+00 +3.6139989492e+00 +1.0268678551e+01 1.2150737415e+01 5.1100000000e-04 0.0000e+00 -1.0000e+00
       12  1    4    4    0    0 +1.8752999907e+01 -1.2390835543e+01 +1.6779099444e+01 2.8048992658e+01 0.0000000000e+00 0.0000e+00 -1.0000e+00
      -12  1    3    3    0    0 -2.5287702725e+01 +7.5668257416e+00 -3.4451394942e+01 4.3400730113e+01 0.0000000000e+00 0.0000e+00 1.0000e+00
</event>
<event>
 8      4 +3.7482383e-04 9.11880000e+01 7.81616400e-03 1.18400000e-01
      -11 -1    0    0    0    0 +0.0000000000e+00 +0.0000000000e+00 +4.5593999997e+01 4.5594000000e+01 5.1100000000e-04 0.0000e+00 -1.0000e+00
       11 -1    0    0    0    0 -0.0000000000e+00 -0.0000000000e+00 -4.5593999997e+01 4.5594000000e+01 5.1100000000e-04 0.0000e+00 1.0000e+00
       23  2    1    2    0    0 +0.0000000000e+00 -1.3322676296e-15 +0.0000000000e+00 9.1188000000e+01 9.1188000000e+01 1.1918e-13 0.0000e+00
 -9990012  2    3    3    0    0 -3.3538287536e+01 +3.1375867118e+00 -2.7367171814e+01 4.7787271039e+01 1.9999999976e+01 1.5292e-01 0.0000e+00
      -11  1    4    4    0    0 -2.8344599697e+00 -2.2685182820e+00 -2.9401417415e-01 3.6423595527e+00 5.1100000000e-04 0.0000e+00 1.0000e+00
       11  1    4    4    0    0 -1.0335217019e+01 -4.9527162167e+00 -5.4726386661e+00 1.2700231612e+01 5.1100000000e-04 0.0000e+00 -1.0000e+00
      -12  1    4    4    0    0 -2.0368610548e+01 +1.0358821210e+01 -2.1600518974e+01 3.1444679875e+01 0.0000000000e+00 0.0000e+00 1.0000e+00
       12  1    3    3    0    0 +3.3538287536e+01 -3.1375867118e+00 +2.7367171814e+01 4.3400728961e+01 0.0000000000e+00 0.0000e+00 -1.0000e+00
</event>
<event>
 8      4 +3.7482383e-04 9.11880000e+01 7.81616400e-03 1.18400000e-01
      -11 -1    0    0    0    0 +0.0000000000e+00 +0.0000000000e+00 +4.5593999997e+01 4.5594000000e+01 5.1100000000e-04 0.0000e+00 1.0000e+00
       11 -1    0    0    0    0 -0.0000000000e+00 -0.0000000000e+00 -4.5593999997e+01 4.5594000000e+01 5.1100000000e-04 0.0000e+00 -1.0000e+00
       23  2    1    2    0    0 +8.8817841970e-16 +0.0000000000e+00 +0.0000000000e+00 9.1188000000e+01 9.1188000000e+01 1.4976e-15 0.0000e+00
 -9990012  2    3    3    0    0 -6.0046764411e+00 -2.4761084186e+01 +3.5134825811e+01 4.7787269430e+01 1.9999992638e+01 3.6074e-02 0.0000e+00
      -11  1    4    4    0    0 -2.7667650293e+00 -1.4101621886e+01 +2.9979838467e+01 3.3246074103e+01 5.1100000000e-04 0.0000e+00 1.0000e+00
       11  1    4    4    0    0 +2.5078534209e+00 -4.0236001057e+00 +1.0746221207e+00 4.8614297850e+00 5.1100000000e-04 0.0000e+00 -1.0000e+00
      -12  1    4    4    0    0 -5.7457648327e+00 -6.6358621941e+00 +4.0803652243e+00 9.6797655413e+00 0.0000000000e+00 0.0000e+00 1.0000e+00
       12  1    3    3    0    0 +6.0046764411e+00 +2.4761084186e+01 -3.5134825811e+01 4.3400730570e+01 0.0000000000e+00 0.0000e+00 -1.0000e+00
</event>
<event>
 8      3 +3.7482383e-04 9.11880000e+01 7.81616400e-03 1.18400000e-01
      -11 -1    0    0    0    0 +0.0000000000e+00 +0.0000000000e+00 +4.5593999997e+01 4.5594000000e+01 5.1100000000e-04 0.0000e+00 1.0000e+00
       11 -1    0    0    0    0 -0.0000000000e+00 -0.0000000000e+00 -4.5593999997e+01 4.5594000000e+01 5.1100000000e-04 0.0000e+00 -1.0000e+00
       23  2    1    2    0    0 -7.1054273576e-15 +1.7763568394e-15 +0.0000000000e+00 9.1188000000e+01 9.1188000000e+01 4.6860e-15 0.0000e+00
  9990012  2    3    3    0    0 -3.8684926431e+01 +9.3748295673e+00 +1.7297740189e+01 4.7787276757e+01 2.0000026045e+01 3.4895e-02 0.0000e+00
      -11  1    4    4    0    0 +4.3687100982e-02 +1.1748975257e+00 +4.9215462175e+00 5.0600306512e+00 5.1100000000e-04 0.0000e+00 1.0000e+00
       11  1    4    4    0    0 -4.8478909804e+00 +3.5022963596e+00 -8.7694152327e-01 6.0445970457e+00 5.1100000000e-04 0.0000e+00 -1.0000e+00
       12  1    4    4    0    0 -3.3880722552e+01 +4.6976356819e+00 +1.3253135495e+01 3.6682649060e+01 0.0000000000e+00 0.0000e+00 -1.0000e+00
      -12  1    3    3    0    0 +3.8684926431e+01 -9.3748295673e+00 -1.7297740189e+01 4.3400723243e+01 0.0000000000e+00 0.0000e+00 1.0000e+00
</event>
<event>
 8      3 +3.7482383e-04 9.11880000e+01 7.81616400e-03 1.18400000e-01
      -11 -1    0    0    0    0 +0.0000000000e+00 +0.0000000000e+00 +4.5593999997e+01 4.5594000000e+01 5.1100000000e-04 0.0000e+00 1.0000e+00
       11 -1    0    0    0    0 -0.0000000000e+00 -0.0000000000e+00 -4.5593999997e+01 4.5594000000e+01 5.1100000000e-04 0.0000e+00 -1.0000e+00
       23  2    1    2    0    0 +3.5527136788e-15 +0.0000000000e+00 -1.7763568394e-15 9.1188000000e+01 9.1188000000e+01 6.2721e-14 0.0000e+00
  9990012  2    3    3    0    0 -2.2139763515e+01 +3.6446421396e+01 +8.0692206465e+00 4.7787273244e+01 2.0000010029e+01 8.8174e-02 0.0000e+00
      -11  1    4    4    0    0 -5.4764431448e+00 +6.5166769669e+00 +4.0803743766e+00 9.4397014531e+00 5.1100000000e-04 0.0000e+00 1.0000e+00
       11  1    4    4    0    0 -1.9563783882e+01 +2.8239360364e+01 +5.2667955808e+00 3.4755463592e+01 5.1100000000e-04 0.0000e+00 -1.0000e+00
       12  1    4    4    0    0 +2.9004635120e+00 +1.6903840657e+00 -1.2779493109e+00 3.5921081992e+00 0.0000000000e+00 0.0000e+00 -1.0000e+00
      -12  1    3    3    0    0 +2.2139763515e+01 -3.6446421396e+01 -8.0692206465e+00 4.3400726756e+01 0.0000000000e+00 0.0000e+00 1.0000e+00
</event>
<event>
 8      3 +3.7482383e-04 9.11880000e+01 7.81616400e-03 1.18400000e-01
      -11 -1    0    0    0    0 +0.0000000000e+00 +0.0000000000e+00 +4.5593999997e+01 4.5594000000e+01 5.1100000000e-04 0.0000e+00 1.0000e+00
       11 -1    0    0    0    0 -0.0000000000e+00 -0.0000000000e+00 -4.5593999997e+01 4.5594000000e+01 5.1100000000e-04 0.0000e+00 -1.0000e+00
       23  2    1    2    0    0 +1.3322676296e-15 -8.8817841970e-16 +0.0000000000e+00 9.1188000000e+01 9.1188000000e+01 1.2265e-13 0.0000e+00
  9990012  2    3    3    0    0 +5.2270909601e-01 +4.8937923677e+00 -4.3120769729e+01 4.7787271773e+01 2.0000003324e+01 4.7483e-01 0.0000e+00
      -11  1    4    4    0    0 +3.3294705277e+00 -1.3496360906e+00 -1.1540429539e+00 3.7734211231e+00 5.1100000000e-04 0.0000e+00 1.0000e+00
       11  1    4    4    0    0 +3.6116826606e+00 -7.0859509769e-01 -1.4633337986e+01 1.5089100023e+01 5.1100000000e-04 0.0000e+00 -1.0000e+00
       12  1    4    4    0    0 -6.4184440923e+00 +6.9520235560e+00 -2.7333388790e+01 2.8924750627e+01 0.0000000000e+00 0.0000e+00 -1.0000e+00
      -12  1    3    3    0    0 -5.2270909601e-01 -4.8937923677e+00 +4.3120769729e+01 4.3400728227e+01 0.0000000000e+00 0.0000e+00 1.0000e+00
</event>
<event>
 8      3 +3.7482383e-04 9.11880000e+01 7.81616400e-03 1.18400000e-01
      -11 -1    0    0    0    0 +0.0000000000e+00 +0.0000000000e+00 +4.5593999997e+01 4.5594000000e+01 5.1100000000e-04 0.0000e+00 1.0000e+00
       11 -1    0    0    0    0 -0.0000000000e+00 -0.0000000000e+00 -4.5593999997e+01 4.5594000000e+01 5.1100000000e-04 0.0000e+00 -1.0000e+00
       23  2    1    2    0    0 -3.5527136788e-15 +0.0000000000e+00 +0.0000000000e+00 9.1188000000e+01 9.1188000000e+01 2.4844e-14 0.0000e+00
  9990012  2    3    3    0    0 +2.8662275058e+01 +2.9415191322e+01 -1.4030102104e+01 4.7787271238e+01 2.0000000883e+01 3.5626e-01 0.0000e+00
      -11  1    4    4    0    0 -6.9786717966e-01 +1.2263237752e+00 +1.9337190257e+00 2.3937748711e+00 5.1100000000e-04 0.0000e+00 1.0000e+00
       11  1    4    4    0    0 +2.4390663732e+01 +2.5981597730e+01 -1.7558059058e+01 3.9726984985e+01 5.1100000000e-04 0.0000e+00 -1.0000e+00
       12  1    4    4    0    0 +4.9694785062e+00 +2.2072698164e+00 +1.5942379283e+00 5.6665113817e+00 0.0000000000e+00 0.0000e+00 -1.0000e+00
      -12  1    3    3    0    0 -2.8662275058e+01 -2.9415191322e+01 +1.4030102104e+01 4.3400728762e+01 0.0000000000e+00 0.0000e+00 1.0000e+00
</event>
<event>
 8      3 +3.7482383e-04 9.11880000e+01 7.81616400e-03 1.18400000e-01
      -11 -1    0    0    0    0 +0.0000000000e+00 +0.0000000000e+00 +4.5593999997e+01 4.5594000000e+01 5.1100000000e-04 0.0000e+00 1.0000e+00
       11 -1    0    0    0    0 -0.0000000000e+00 -0.0000000000e+00 -4.5593999997e+01 4.5594000000e+01 5.1100000000e-04 0.0000e+00 -1.0000e+00
       23  2    1    2    0    0 -3.5527136788e-15 +0.0000000000e+00 +7.1054273576e-15 9.1188000000e+01 9.1188000000e+01 7.2484e-14 0.0000e+00
  9990012  2    3    3    0    0 -2.5060276710e+01 +1.3851700707e+01 -3.2614965782e+01 4.7787273344e+01 2.0000010486e+01 3.9435e-02 0.0000e+00
      -11  1    4    4    0    0 -5.2703956714e+00 +4.4692134393e-01 -7.5946646861e-01 5.3435567555e+00 5.1100000000e-04 0.0000e+00 1.0000e+00
       11  1    4    4    0    0 -3.6821289111e+00 +2.8982994129e+00 -1.8362600954e+01 1.8951077195e+01 5.1100000000e-04 0.0000e+00 -1.0000e+00
       12  1    4    4    0    0 -1.6107752127e+01 +1.0506479950e+01 -1.3492898360e+01 2.3492639394e+01 0.0000000000e+00 0.0000e+00 -1.0000e+00
      -12  1    3    3    0    0 +2.5060276710e+01 -1.3851700707e+01 +3.2614965782e+01 4.3400726656e+01 0.0000000000e+00 0.0000e+00 1.0000e+00
</event>
<event>
 8      3 +3.7482383e-04 9.11880000e+01 7.81616400e-03 1.18400000e-01
      -11 -1    0    0    0    0 +0.0000000000e+00 +0.0000000000e+00 +4.5593999997e+01 4.5594000000e+01 5.1100000000e-04 0.0000e+00 -1.0000e+00
       11 -1    0    0    0    0 -0.0000000000e+00 -0.0000000000e+00 -4.5593999997e+01 4.5594000000e+01 5.1100000000e-04 0.0000e+00 1.0000e+00
       23  2    1    2    0    0 -1.1102230246e-16 +0.0000000000e+00 +0.0000000000e+00 9.1188000000e+01 9.1188000000e+01 3.7620e-14 0.0000e+00
  9990012  2    3    3    0    0 +8.1383205040e-01 +3.1789649089e+01 +2.9536061907e+01 4.7787273453e+01 2.0000010983e+01 1.5727e-01 0.0000e+00
      -11  1    4    4    0    0 +3.6839928665e+00 +9.5376591235e+00 +5.0470232229e+00 1.1402244896e+01 5.1100000000e-04 0.0000e+00 1.0000e+00
       11  1    4    4    0    0 +5.8064407637e+00 +1.1667588212e+01 +9.7839683314e+00 1.6296423092e+01 5.1100000000e-04 0.0000e+00 -1.0000e+00
       12  1    4    4    0    0 -8.6766015798e+00 +1.0584401753e+01 +1.4705070353e+01 2.0088605465e+01 0.0000000000e+00 0.0000e+00 -1.0000e+00
      -12  1    3    3    0    0 -8.1383205040e-01 -3.1789649089e+01 -2.9536061907e+01 4.3400726547e+01 0.0000000000e+00 0.0000e+00 1.0000e+00
</event>
<event>
 8      3 +3.7482383e-04 9.11880000e+01 7.81616400e-03 1.18400000e-01
      -11 -1    0    0    0    0 +0.0000000000e+00 +0.0000000000e+00 +4.5593999997e+01 4.5594000000e+01 5.1100000000e-04 0.0000e+00 1.0000e+00
       11 -1    0    0    0    0 -0.0000000000e+00 -0.0000000000e+00 -4.5593999997e+01 4.5594000000e+01 5.1100000000e-04 0.0000e+00 -1.0000e+00
       23  2    1    2    0    0 +0.0000000000e+00 -7.1054273576e-15 -2.2204460493e-16 9.1188000000e+01 9.1188000000e+01 2.0476e-13 0.0000e+00
  9990012  2    3    3    0    0 -3.4165337740e+01 +2.6739750584e+01 -1.1568026982e+00 4.7787277003e+01 2.0000027167e+01 1.9411e-01 0.0000e+00
      -11  1    4    4    0    0 -7.3827152180e+00 +5.7002248742e+00 +3.1201703289e+00 9.8352687177e+00 5.1100000000e-04 0.0000e+00 1.0000e+00
       11  1    4    4    0    0 -1.6447740082e+00 -1.1918946903e-01 -4.8157554202e+00 5.0902837048e+00 5.1100000000e-04 0.0000e+00 -1.0000e+00
       12  1    4    4    0    0 -2.5137848514e+01 +2.1158715179e+01 +5.3878239305e-01 3.2861724580e+01 0.0000000000e+00 0.0000e+00 -1.0000e+00
      -12  1    3    3    0    0 +3.4165337740e+01 -2.6739750584e+01 +1.1568026982e+00 4.3400722997e+01 0.0000000000e+00 0.0000e+00 1.0000e+00
</event>
<event>
 8      3 +3.7482383e-04 9.11880000e+01 7.81616400e-03 1.18400000e-01
      -11 -1    0    0    0    0 +0.0000000000e+00 +0.0000000000e+00 +4.5593999997e+01 4.5594000000e+01 5.1100000000e-04 0.0000e+00 -1.0000e+00
       11 -1    0    0    0    0 -0.0000000000e+00 -0.0000000000e+00 -4.5593999997e+01 4.5594000000e+01 5.1100000000e-04 0.0000e+00 1.0000e+00
       23  2    1    2    0    0 +3.5527136788e-15 +0.0000000000e+00 +0.0000000000e+00 9.1188000000e+01 9.1188000000e+01 6.9867e-14 0.0000e+00
  9990012  2    3    3    0    0 -2.2688895538e+01 -8.6632324755e+00 +3.5969232905e+01 4.7787270819e+01 1.9999998971e+01 1.2884e-01 0.0000e+00
      -11  1    4    4    0    0 -9.1186452536e+00 +4.4405543558e+00 +5.9230573157e+00 1.1745246803e+01 5.1100000000e-04 0.0000e+00 1.0000e+00
       11  1    4    4    0    0 -1.1559529919e+01 -1.1818758669e+01 +2.1224244109e+01 2.6903054226e+01 5.1100000000e-04 0.0000e+00 -1.0000e+00
       12  1    4    4    0    0 -2.0107203660e+00 -1.2850281624e+00 +8.8219314803e+00 9.1389697894e+00 0.0000000000e+00 0.0000e+00 -1.0000e+00
      -12  1    3    3    0    0 +2.2688895538e+01 +8.6632324755e+00 -3.5969232905e+01 4.3400729181e+01 0.0000000000e+00 0.0000e+00 1.0000e+00
</event>
<event>
 8      4 +3.7482383e-04 9.11880000e+01 7.81616400e-03 1.18400000e-01
      -11 -1    0    0    0    0 +0.0000000000e+00 +0.0000000000e+00 +4.5593999997e+01 4.5594000000e+01 5.1100000000e-04 0.0000e+00 -1.0000e+00
       11 -1    0    0    0    0 -0.0000000000e+00 -0.0000000000e+00 -4.5593999997e+01 4.5594000000e+01 5.1100000000e-04 0.0000e+00 1.0000e+00
       23  2    1    2    0    0 +7.1054273576e-15 +0.0000000000e+00 +0.0000000000e+00 9.1188000000e+01 9.1188000000e+01 2.5463e-14 0.0000e+00
 -9990012  2    3    3    0    0 -3.5976875445e+01 +1.1932163899e+01 -2.1140159376e+01 4.7787326727e+01 2.0000253878e+01 7.0569e-02 0.0000e+00
      -11  1    4    4    0    0 +1.1421044992e-01 +2.9054911639e+00 +6.6061594177e-01 2.9818344378e+00 5.1100000000e-04 0.0000e+00 1.0000e+00
       11  1    4    4    0    0 -5.2247538750e+00 +5.9304405163e+00 -2.5885702616e+00 8.3167826731e+00 5.1100000000e-04 0.0000e+00 -1.0000e+00
      -12  1    4    4    0    0 -3.0866332020e+01 +3.0962322184e+00 -1.9212205057e+01 3.6488709616e+01 0.0000000000e+00 0.0000e+00 1.0000e+00
       12  1    3    3    0    0 +3.5976875445e+01 -1.1932163899e+01 +2.1140159376e+01 4.3400673273e+01 0.0000000000e+00 0.0000e+00 -1.0000e+00
</event>
<event>
 8      4 +3.7482383e-04 9.11880000e+01 7.81616400e-03 1.18400000e-01
      -11 -1    0    0    0    0 +0.0000000000e+00 +0.0000000000e+00 +4.5593999997e+01 4.5594000000e+01 5.1100000000e-04 0.0000e+00 -1.0000e+00
       11 -1    0    0    0    0 -0.0000000000e+00 -0.0000000000e+00 -4.5593999997e+01 4.5594000000e+01 5.1100000000e-04 0.0000e+00 1.0000e+00
       23  2    1    2    0    0 +0.0000000000e+00 -8.8817841970e-16 +0.0000000000e+00 9.1188000000e+01 9.1188000000e+01 2.1693e-13 0.0000e+00
 -9990012  2    3    3    0    0 +3.7548733185e+01 -7.0867374277e+00 -2.0578976991e+01 4.7787268379e+01 1.9999987849e+01 1.2630e-01 0.0000e+00
      -11  1    4    4    0    0 +1.5720725131e+01 -7.7267021267e+00 -1.3523553404e+01 2.2129835547e+01 5.1100000000e-04 0.0000e+00 1.0000e+00
       11  1    4    4    0    0 +1.2556879395e+00 +2.4256799122e-01 +2.6233963844e+00 2.9185270741e+00 5.1100000000e-04 0.0000e+00 -1.0000e+00
      -12  1    4    4    0    0 +2.0572320115e+01 +3.9739670772e-01 -9.6788199717e+00 2.2738905758e+01 0.0000000000e+00 0.0000e+00 1.0000e+00
       12  1    3    3    0    0 -3.7548733185e+01 +7.0867374277e+00 +2.0578976991e+01 4.3400731621e+01 0.0000000000e+00 0.0000e+00 -1.0000e+00
</event>
<event>
 8      3 +3.7482383e-04 9.11880000e+01 7.81616400e-03 1.18400000e-01
      -11 -1    0    0    0    0 +0.0000000000e+00 +0.0000000000e+00 +4.5593999997e+01 4.5594000000e+01 5.1100000000e-04 0.0000e+00 1.0000e+00
       11 -1    0    0    0    0 -0.0000000000e+00 -0.0000000000e+00 -4.5593999997e+01 4.5594000000e+01 5.1100000000e-04 0.0000e+00 -1.0000e+00
       23  2    1    2    0    0 -3.5527136788e-15 +0.0000000000e+00 -3.5527136788e-15 9.1188000000e+01 9.1188000000e+01 3.1132e-13 0.0000e+00
  9990012  2    3    3    0    0 -1.7330198561e+01 -3.5654618668e+01 -1.7664571601e+01 4.7787254565e+01 1.9999924862e+01 8.8749e-01 0.0000e+00
      -11  1    4    4    0    0 -1.3504695187e+01 -2.0715052605e+01 -1.6331392682e+01 2.9634516762e+01 5.1100000000e-04 0.0000e+00 1.0000e+00
       11  1    4    4    0    0 -1.8465805985e+00 +8.0069374984e-01 +7.5929854555e-01 2.1511636224e+00 5.1100000000e-04 0.0000e+00 -1.0000e+00
       12  1    4    4    0    0 -1.9789227748e+00 -1.5740259812e+01 -2.0924774650e+00 1.6001574180e+01 0.0000000000e+00 0.0000e+00 -1.0000e+00
      -12  1    3    3    0    0 +1.7330198561e+01 +3.5654618668e+01 +1.7664571601e+01 4.3400745435e+01 0.0000000000e+00 0.0000e+00 1.0000e+00
</event>
<event>
 8      4 +3.7482383e-04 9.11880000e+01 7.81616400e-03 1.18400000e-01
      -11 -1    0    0    0    0 +0.0000000000e+00 +0.0000000000e+00 +4.5593999997e+01 4.5594000000e+01 5.1100000000e-04 0.0000e+00 1.0000e+00
       11 -1    0    0    0    0 -0.0000000000e+00 -0.0000000000e+00 -4.5593999997e+01 4.5594000000e+01 5.1100000000e-04 0.0000e+00 -1.0000e+00
       23  2    1    2    0    0 +0.0000000000e+00 +8.8817841970e-16 +0.0000000000e+00 9.1188000000e+01 9.1188000000e+01 9.8911e-14 0.0000e+00
 -9990012  2    3    3    0    0 +4.0703400526e+01 +5.8821312565e+00 +1.3865681371e+01 4.7787269564e+01 1.9999993251e+01 6.0850e-01 0.0000e+00
      -11  1    4    4    0    0 +5.6439898380e+00 +1.8713296796e+00 +5.8344549143e+00 8.3305078158e+00 5.1100000000e-04 0.0000e+00 1.0000e+00
       11  1    4    4    0    0 +3.2237345610e+00 -1.4208145153e+00 -3.6882336723e+00 5.1004162859e+00 5.1100000000e-04 0.0000e+00 -1.0000e+00
      -12  1    4    4    0    0 +3.1835676127e+01 +5.4316160922e+00 +1.1719460129e+01 3.4356345463e+01 0.0000000000e+00 0.0000e+00 1.0000e+00
       12  1    3    3    0    0 -4.0703400526e+01 -5.8821312565e+00 -1.3865681371e+01 4.3400730436e+01 0.0000000000e+00 0.0000e+00 -1.0000e+00
</event>
<event>
 8      4 +3.7482383e-04 9.11880000e+01 7.81616400e-03 1.18400000e-01
      -11 -1    0    0    0    0 +0.0000000000e+00 +0.0000000000e+00 +4.5593999997e+01 4.5594000000e+01 5.1100000000e-04 0.0000e+00 -1.0000e+00
       11 -1    0    0    0    0 -0.0000000000e+00 -0.0000000000e+00 -4.5593999997e+01 4.5594000000e+01 5.1100000000e-04 0.0000e+00 1.0000e+00
       23  2    1    2    0    0 -1.7763568394e-15 +0.0000000000e+00 +0.0000000000e+00 9.1188000000e+01 9.1188000000e+01 1.9580e-14 0.0000e+00
 -9990012  2    3    3    0    0 +1.0892764501e+01 +2.8845144749e+01 -3.0543873769e+01 4.7787275134e+01 2.0000018648e+01 5.6510e-01 0.0000e+00
      -11  1    4    4    0    0 +6.1841688122e-01 +6.5613613608e+00 -1.4501631817e+01 1.5928943090e+01 5.1100000000e-04 0.0000e+00 1.0000e+00
       11  1    4    4    0    0 -2.9168940739e+00 +4.1448990615e+00 -2.4111622124e+00 5.6126787494e+00 5.1100000000e-04 0.0000e+00 -1.0000e+00
      -12  1    4    4    0    0 +1.3191241693e+01 +1.8138884326e+01 -1.3631079740e+01 2.6245653295e+01 0.0000000000e+00 0.0000e+00 1.0000e+00
       12  1    3    3    0    0 -1.0892764501e+01 -2.8845144749e+01 +3.0543873769e+01 4.3400724866e+01 0.0000000000e+00 0.0000e+00 -1.0000e+00
</event>
<event>
 8      3 +3.7482383e-04 9.11880000e+01 7.81616400e-03 1.18400000e-01
      -11 -1    0    0    0    0 +0.0000000000e+00 +0.0000000000e+00 +4.5593999997e+01 4.5594000000e+01 5.1100000000e-04 0.0000e+00 1.0000e+00
       11 -1    0    0    0    0 -0.0000000000e+00 -0.0000000000e+00 -4.5593999997e+01 4.5594000000e+01 5.1100000000e-04 0.0000e+00 -1.0000e+00
       23  2    1    2    0    0 -3.5527136788e-15 +0.0000000000e+00 +0.0000000000e+00 9.1188000000e+01 9.1188000000e+01 1.3864e-13 0.0000e+00
  9990012  2    3    3    0    0 +2.2769183579e+01 +2.7117997511e+01 -2.5095845099e+01 4.7787274763e+01 2.0000016955e+01 7.1453e-01 0.0000e+00
      -11  1    4    4    0    0 +7.6519939861e+00 +4.0855946026e+00 -1.4018215982e+01 1.6485007576e+01 5.1100000000e-04 0.0000e+00 -1.0000e+00
       11  1    4    4    0    0 +8.5721208015e-01 +6.1858979708e+00 +7.0149381112e-01 6.2842851689e+00 5.1100000000e-04 0.0000e+00 1.0000e+00
       12  1    4    4    0    0 +1.4259977513e+01 +1.6846504938e+01 -1.1779122928e+01 2.5017982018e+01 0.0000000000e+00 0.0000e+00 -1.0000e+00
      -12  1    3    3    0    0 -2.2769183579e+01 -2.7117997511e+01 +2.5095845099e+01 4.3400725237e+01 0.0000000000e+00 0.0000e+00 1.0000e+00
</event>
<event>
 8      3 +3.7482383e-04 9.11880000e+01 7.81616400e-03 1.18400000e-01
      -11 -1    0    0    0    0 +0.0000000000e+00 +0.0000000000e+00 +4.5593999997e+01 4.5594000000e+01 5.1100000000e-04 0.0000e+00 -1.0000e+00
       11 -1    0    0    0    0 -0.0000000000e+00 -0.0000000000e+00 -4.5593999997e+01 4.5594000000e+01 5.1100000000e-04 0.0000e+00 1.0000e+00
       23  2    1    2    0    0 +3.5527136788e-15 +0.0000000000e+00 +7.1054273576e-15 9.1188000000e+01 9.1188000000e+01 1.5762e-13 0.0000e+00
  9990012  2    3    3    0    0 +2.5052024853e+01 +8.5511105364e+00 +3.4393285559e+01 4.7787268069e+01 1.9999986433e+01 1.2841e-01 0.0000e+00
      -11  1    4    4    0    0 +2.7232033998e+00 +1.8035372659e+00 -1.1852955012e+00 3.4746955424e+00 5.1100000000e-04 0.0000e+00 1.0000e+00
       11  1    4    4    0    0 +1.0063980264e+01 -2.2349083389e+00 +8.9600250589e+00 1.3658717486e+01 5.1100000000e-04 0.0000e+00 -1.0000e+00
       12  1    4    4    0    0 +1.2264841189e+01 +8.9824816094e+00 +2.6618556001e+01 3.0653855041e+01 0.0000000000e+00 0.0000e+00 -1.0000e+00
      -12  1    3    3    0    0 -2.5052024853e+01 -8.5511105364e+00 -3.4393285559e+01 4.3400731931e+01 0.0000000000e+00 0.0000e+00 1.0000e+00
</event>
<event>
 8      3 +3.7482383e-04 9.11880000e+01 7.81616400e-03 1.18400000e-01
      -11 -1    0    0    0    0 +0.0000000000e+00 +0.0000000000e+00 +4.5593999997e+01 4.5594000000e+01 5.1100000000e-04 0.0000e+00 -1.0000e+00
       11 -1    0    0    0    0 -0.0000000000e+00 -0.0000000000e+00 -4.5593999997e+01 4.5594000000e+01 5.1100000000e-04 0.0000e+00 1.0000e+00
       23  2    1    2    0    0 +0.0000000000e+00 -8.8817841970e-16 +7.1054273576e-15 9.1188000000e+01 9.1188000000e+01 2.5145e-14 0.0000e+00
  9990012  2    3    3    0    0 -2.1689729523e+01 -7.4603170404e+00 +3.6844574421e+01 4.7787270036e+01 1.9999995403e+01 1.7047e-02 0.0000e+00
      -11  1    4    4    0    0 +1.9381424764e+00 +1.8825623054e+00 +8.3766594479e+00 8.8016396688e+00 5.1100000000e-04 0.0000e+00 1.0000e+00
       11  1    4    4    0    0 -6.6026312808e+00 -2.8522948008e+00 +3.2967574669e+00 7.9119489077e+00 5.1100000000e-04 0.0000e+00 -1.0000e+00
       12  1    4    4    0    0 -1.7025240719e+01 -6.4905845451e+00 +2.5171157506e+01 3.1073681460e+01 0.0000000000e+00 0.0000e+00 -1.0000e+00
      -12  1    3    3    0    0 +2.1689729523e+01 +7.4603170404e+00 -3.6844574421e+01 4.3400729964e+01 0.0000000000e+00 0.0000e+00 1.0000e+00
</event>
<event>
 8      4 +3.7482383e-04 9.11880000e+01 7.81616400e-03 1.18400000e-01
      -11 -1    0    0    0    0 +0.0000000000e+00 +0.0000000000e+00 +4.5593999997e+01 4.5594000000e+01 5.1100000000e-04 0.0000e+00 1.0000e+00
       11 -1    0    0    0    0 -0.0000000000e+00 -0.0000000000e+00 -4.5593999997e+01 4.5594000000e+01 5.1100000000e-04 0.0000e+00 -1.0000e+00
       23  2    1    2    0    0 +0.0000000000e+00 +0.0000000000e+00 +0.0000000000e+00 9.1188000000e+01 9.1188000000e+01 4.8204e-14 0.0000e+00
 -9990012  2    3    3    0    0 +2.9676756421e+01 -2.8140138907e+01 +1.4527424862e+01 4.7787270024e+01 1.9999995347e+01 1.6244e-02 0.0000e+00
      -11  1    4    4    0    0 +6.0004249760e+00 -9.5603728981e+00 +5.5559693720e-01 1.1301084818e+01 5.1100000000e-04 0.0000e+00 -1.0000e+00
       11  1    4    4    0    0 +3.1451185812e+00 -1.1247837328e+01 +6.9077592142e+00 1.3569183950e+01 5.1100000000e-04 0.0000e+00 1.0000e+00
      -12  1    4    4    0    0 +2.0531212863e+01 -7.3319286803e+00 +7.0640687102e+00 2.2917001256e+01 0.0000000000e+00 0.0000e+00 1.0000e+00
       12  1    3    3    0    0 -2.9676756421e+01 +2.8140138907e+01 -1.4527424862e+01 4.3400729976e+01 0.0000000000e+00 0.0000e+00 -1.0000e+00
</event>
<event>
 8      4 +3.7482383e-04 9.11880000e+01 7.81616400e-03 1.18400000e-01
      -11 -1    0    0    0    0 +0.0000000000e+00 +0.0000000000e+00 +4.5593999997e+01 4.5594000000e+01 5.1100000000e-04 0.0000e+00 1.0000e+00
       11 -1    0    0    0    0 -0.0000000000e+00 -0.0000000000e+00 -4.5593999997e+01 4.5594000000e+01 5.1100000000e-04 0.0000e+00 -1.0000e+00
       23  2    1    2    0    0 +0.0000000000e+00 +0.0000000000e+00 +1.7763568394e-15 9.1188000000e+01 9.1188000000e+01 4.3401e-14 0.0000e+00
 -9990012  2    3    3    0    0 -1.5342316806e+01 -3.7604442036e+01 +1.5301715625e+01 4.7787271355e+01 2.0000001417e+01 3.0472e-01 0.0000e+00
      -11  1    4    4    0    0 -7.4947153741e+00 -1.3158723358e+01 +8.9605761259e+00 1.7595871213e+01 5.1100000000e-04 0.0000e+00 1.0000e+00
       11  1    4    4    0    0 -4.8325834270e+00 -1.0148951343e+01 +1.0092006005e+01 1.5106411268e+01 5.1100000000e-04 0.0000e+00 -1.0000e+00
      -12  1    4    4    0    0 -3.0150180049e+00 -1.4296767335e+01 -3.7508665057e+00 1.5084988875e+01 0.0000000000e+00 0.0000e+00 1.0000e+00
       12  1    3    3    0    0 +1.5342316806e+01 +3.7604442036e+01 -1.5301715625e+01 4.3400728645e+01 0.0000000000e+00 0.0000e+00 -1.0000e+00
</event>
<event>
 8      3 +3.7482383e-04 9.11880000e+01 7.81616400e-03 1.18400000e-01
      -11 -1    0    0    0    0 +0.0000000000e+00 +0.0000000000e+00 +4.5593999997e+01 4.5594000000e+01 5.1100000000e-04 0.0000e+00 1.0000e+00
       11 -1    0    0    0    0 -0.0000000000e+00 -0.0000000000e+00 -4.5593999997e+01 4.5594000000e+01 5.1100000000e-04 0.0000e+00 -1.0000e+00
       23  2    1    2    0    0 +0.0000000000e+00 +0.0000000000e+00 +0.0000000000e+00 9.1188000000e+01 9.1188000000e+01 1.1184e-13 0.0000e+00
  9990012  2    3    3    0    0 -3.9531216063e+01 +1.7606928023e+01 -3.3018726592e+00 4.7787270503e+01 1.9999997530e+01 2.7338e-01 0.0000e+00
      -11  1    4    4    0    0 +1.7503339920e-02 +4.0313375115e+00 -3.1014620997e+00 5.0863597902e+00 5.1100000000e-04 0.0000e+00 1.0000e+00
       11  1    4    4    0    0 -1.1674565514e+00 -1.1044096713e+00 -4.6974827936e-02 1.6077569521e+00 5.1100000000e-04 0.0000e+00 -1.0000e+00
       12  1    4    4    0    0 -3.8381262852e+01 +1.4680000183e+01 -1.5343573151e-01 4.1093153760e+01 0.0000000000e+00 0.0000e+00 -1.0000e+00
      -12  1    3    3    0    0 +3.9531216063e+01 -1.7606928023e+01 +3.3018726592e+00 4.3400729497e+01 0.0000000000e+00 0.0000e+00 1.0000e+00
</event>
<event>
 8      4 +3.7482383e-04 9.11880000e+01 7.81616400e-03 1.18400000e-01
      -11 -1    0    0    0    0 +0.0000000000e+00 +0.0000000000e+00 +4.5593999997e+01 4.5594000000e+01 5.1100000000e-04 0.0000e+00 -1.0000e+00
       11 -1    0    0    0    0 -0.0000000000e+00 -0.0000000000e+00 -4.5593999997e+01 4.5594000000e+01 5.1100000000e-04 0.0000e+00 1.0000e+00
       23  2    1    2    0    0 +3.5527136788e-15 +3.5527136788e-15 +3.5527136788e-15 9.1188000000e+01 9.1188000000e+01 9.1883e-14 0.0000e+00
 -9990012  2    3    3    0    0 +2.7809331942e+01 +2.7197920307e+01 -1.9249355578e+01 4.7787268414e+01 1.9999988006e+01 4.1031e-02 0.0000e+00
      -11  1    4    4    0    0 +1.8585732485e+00 +3.0748015600e+00 +3.2562992109e+00 4.8489363746e+00 5.1100000000e-04 0.0000e+00 1.0000e+00
       11  1    4    4    0    0 +5.5727632686e+00 +8.1423024096e+00 -2.4041857090e+00 1.0155436385e+01 5.1100000000e-04 0.0000e+00 -1.0000e+00
      -12  1    4    4    0    0 +2.0377995425e+01 +1.5980816337e+01 -2.0101469080e+01 3.2782895655e+01 0.0000000000e+00 0.0000e+00 1.0000e+00
       12  1    3    3    0    0 -2.7809331942e+01 -2.7197920307e+01 +1.9249355578e+01 4.3400731586e+01 0.0000000000e+00 0.0000e+00 -1.0000e+00
</event>
<event>
 8      4 +3.7482383e-04 9.11880000e+01 7.81616400e-03 1.18400000e-01
      -11 -1    0    0    0    0 +0.0000000000e+00 +0.0000000000e+00 +4.5593999997e+01 4.5594000000e+01 5.1100000000e-04 0.0000e+00 -1.0000e+00
       11 -1    0    0    0    0 -0.0000000000e+00 -0.0000000000e+00 -4.5593999997e+01 4.5594000000e+01 5.1100000000e-04 0.0000e+00 1.0000e+00
       23  2    1    2    0    0 +0.0000000000e+00 +0.0000000000e+00 +3.5527136788e-15 9.1188000000e+01 9.1188000000e+01 1.3981e-13 0.0000e+00
 -9990012  2    3    3    0    0 -3.7751865360e+00 +3.5304033900e+01 -2.4959897471e+01 4.7787270458e+01 1.9999997325e+01 2.2942e-01 0.0000e+00
      -11  1    4    4    0    0 -2.2095206589e+00 +3.1668473788e+01 -2.6623478129e+01 4.1431676306e+01 5.1100000000e-04 0.0000e+00 1.0000e+00
       11  1    4    4    0    0 -3.1371255563e+00 +1.6848668705e+00 +1.4386623134e+00 3.8405836328e+00 5.1100000000e-04 0.0000e+00 -1.0000e+00
      -12  1    4    4    0    0 +1.5714596792e+00 +1.9506932417e+00 +2.2491834446e-01 2.5150105185e+00 0.0000000000e+00 0.0000e+00 1.0000e+00
       12  1    3    3    0    0 +3.7751865360e+00 -3.5304033900e+01 +2.4959897471e+01 4.3400729542e+01 0.0000000000e+00 0.0000e+00 -1.0000e+00
</event>
</LesHouchesEvents>
