<event>
 4    1  0.4067306E+000  0.1972704E+03  0.7546771E-02  0.1152063E+00
         21   -1    0    0  501  502  0.00000000000E+00  0.00000000000E+00  0.15420624862E+04  0.15420624862E+04  0.00000000000E+00 0.  1.
         21   -1    0    0  502  503 -0.00000000000E+00 -0.00000000000E+00 -0.32164030828E+02  0.32164030828E+02  0.00000000000E+00 0. -1.
          6    1    1    2  501    0 -0.70379832966E+02 -0.63508075585E+02  0.11202534658E+04  0.11374899666E+04  0.17300000000E+03 0.  1.
         -6    1    1    2    0  503  0.70379832966E+02  0.63508075585E+02  0.38964498957E+03  0.43673655040E+03  0.17300000000E+03 0. -1.
<mgrwt>
<rscale>  2 0.19727036E+03</rscale>
<asrwt>0</asrwt>
<pdfrwt beam="1">  1       21 0.23724033E+00 0.19727036E+03</pdfrwt>
<pdfrwt beam="2">  1       21 0.49483136E-02 0.19727036E+03</pdfrwt>
<totfact> 0.21579320E+04</totfact>
</mgrwt>
</event>
<event>
 4    1  0.4067306E+000  0.1862654E+03  0.7546771E-02  0.1161873E+00
         21   -1    0    0  503  502  0.00000000000E+00  0.00000000000E+00  0.32421593357E+02  0.32421593357E+02  0.00000000000E+00 0. -1.
         21   -1    0    0  501  503 -0.00000000000E+00 -0.00000000000E+00 -0.10972677122E+04  0.10972677122E+04  0.00000000000E+00 0. -1.
          6    1    1    2  501    0  0.43553712311E+02  0.53561796527E+02 -0.62127963238E+03  0.64860093549E+03  0.17300000000E+03 0. -1.
         -6    1    1    2    0  502 -0.43553712311E+02 -0.53561796527E+02 -0.44356648646E+03  0.48108837006E+03  0.17300000000E+03 0. -1.
<mgrwt>
<rscale>  2 0.18626538E+03</rscale>
<asrwt>0</asrwt>
<pdfrwt beam="1">  1       21 0.49879375E-02 0.18626538E+03</pdfrwt>
<pdfrwt beam="2">  1       21 0.16881042E+00 0.18626538E+03</pdfrwt>
<totfact> 0.58969997E+04</totfact>
</mgrwt>
</event>
<event>
 4    1  0.4067306E+000  0.2152310E+03  0.7546771E-02  0.1137489E+00
         21   -1    0    0  503  502  0.00000000000E+00  0.00000000000E+00  0.52035282609E+02  0.52035282609E+02  0.00000000000E+00 0.  1.
         21   -1    0    0  501  503 -0.00000000000E+00 -0.00000000000E+00 -0.90680780049E+03  0.90680780049E+03  0.00000000000E+00 0. -1.
          6    1    1    2  501    0  0.10888616156E+03 -0.67373533253E+02 -0.49217008312E+03  0.53717388235E+03  0.17300000000E+03 0. -1.
         -6    1    1    2    0  502 -0.10888616156E+03  0.67373533253E+02 -0.36260243476E+03  0.42166920074E+03  0.17300000000E+03 0. -1.
<mgrwt>
<rscale>  2 0.21523101E+03</rscale>
<asrwt>0</asrwt>
<pdfrwt beam="1">  1       21 0.80054278E-02 0.21523101E+03</pdfrwt>
<pdfrwt beam="2">  1       21 0.13950890E+00 0.21523101E+03</pdfrwt>
<totfact> 0.42736595E+04</totfact>
</mgrwt>
</event>
<event>
 4    1  0.4067306E+000  0.1823694E+03  0.7546771E-02  0.1165529E+00
         21   -1    0    0  503  502  0.00000000000E+00  0.00000000000E+00  0.15749517003E+04  0.15749517003E+04  0.00000000000E+00 0. -1.
         21   -1    0    0  501  503 -0.00000000000E+00 -0.00000000000E+00 -0.21852229977E+02  0.21852229977E+02  0.00000000000E+00 0. -1.
          6    1    1    2  501    0 -0.41315853042E+02  0.40281373087E+02  0.92297726517E+03  0.94082177948E+03  0.17300000000E+03 0. -1.
         -6    1    1    2    0  502  0.41315853042E+02 -0.40281373087E+02  0.63012220513E+03  0.65598215077E+03  0.17300000000E+03 0. -1.
<mgrwt>
<rscale>  2 0.18236937E+03</rscale>
<asrwt>0</asrwt>
<pdfrwt beam="1">  1       21 0.24230017E+00 0.18236937E+03</pdfrwt>
<pdfrwt beam="2">  1       21 0.33618828E-02 0.18236937E+03</pdfrwt>
<totfact> 0.38987086E+04</totfact>
</mgrwt>
</event>
<event>
 4    1  0.4067306E+000  0.1912361E+03  0.7546771E-02  0.1157351E+00
         21   -1    0    0  503  502  0.00000000000E+00  0.00000000000E+00  0.72722593786E+03  0.72722593786E+03  0.00000000000E+00 0.  1.
         21   -1    0    0  501  503 -0.00000000000E+00 -0.00000000000E+00 -0.91587610628E+02  0.91587610628E+02  0.00000000000E+00 0. -1.
          6    1    1    2  501    0  0.60291900865E+02 -0.54837488606E+02  0.42899477737E+02  0.19598884830E+03  0.17300000000E+03 0. -1.
         -6    1    1    2    0  502 -0.60291900865E+02  0.54837488606E+02  0.59273884950E+03  0.62282470019E+03  0.17300000000E+03 0.  1.
<mgrwt>
<rscale>  2 0.19123615E+03</rscale>
<asrwt>0</asrwt>
<pdfrwt beam="1">  1       21 0.11188091E+00 0.19123615E+03</pdfrwt>
<pdfrwt beam="2">  1       21 0.14090402E-01 0.19123615E+03</pdfrwt>
<totfact> 0.27571317E+04</totfact>
</mgrwt>
</event>
<event>
 4    1  0.4067306E+000  0.1920882E+03  0.7546771E-02  0.1156591E+00
         21   -1    0    0  503  502  0.00000000000E+00  0.00000000000E+00  0.23852732362E+03  0.23852732362E+03  0.00000000000E+00 0.  1.
         21   -1    0    0  501  503 -0.00000000000E+00 -0.00000000000E+00 -0.12277605026E+04  0.12277605026E+04  0.00000000000E+00 0. -1.
          6    1    1    2  501    0  0.77700188599E+02  0.30521244271E+02 -0.11800203296E+04  0.11955525266E+04  0.17300000000E+03 0. -1.
         -6    1    1    2    0  502 -0.77700188599E+02 -0.30521244271E+02  0.19078715056E+03  0.27073529965E+03  0.17300000000E+03 0.  1.
<mgrwt>
<rscale>  2 0.19208817E+03</rscale>
<asrwt>0</asrwt>
<pdfrwt beam="1">  1       21 0.36696511E-01 0.19208817E+03</pdfrwt>
<pdfrwt beam="2">  1       21 0.18888624E+00 0.19208817E+03</pdfrwt>
<totfact> 0.11368236E+03</totfact>
</mgrwt>
</event>
<event>
 4    1  0.4067306E+000  0.2073817E+03  0.7546771E-02  0.1143656E+00
         21   -1    0    0  503  502  0.00000000000E+00  0.00000000000E+00  0.13142168610E+04  0.13142168610E+04  0.00000000000E+00 0.  1.
         21   -1    0    0  501  503 -0.00000000000E+00 -0.00000000000E+00 -0.36234378177E+02  0.36234378177E+02  0.00000000000E+00 0.  1.
          6    1    1    2  501    0  0.29603006803E+02  0.11046194465E+03  0.42884079782E+03  0.47635240012E+03  0.17300000000E+03 0.  1.
         -6    1    1    2    0  502 -0.29603006803E+02 -0.11046194465E+03  0.84914168499E+03  0.87409883905E+03  0.17300000000E+03 0.  1.
<mgrwt>
<rscale>  2 0.20738172E+03</rscale>
<asrwt>0</asrwt>
<pdfrwt beam="1">  1       21 0.20218717E+00 0.20738172E+03</pdfrwt>
<pdfrwt beam="2">  1       21 0.55745207E-02 0.20738172E+03</pdfrwt>
<totfact> 0.28762949E+04</totfact>
</mgrwt>
</event>
<event>
 4    1  0.4067306E+000  0.1865992E+03  0.7546771E-02  0.1161565E+00
         21   -1    0    0  501  502  0.00000000000E+00  0.00000000000E+00  0.43870561159E+03  0.43870561159E+03  0.00000000000E+00 0. -1.
         21   -1    0    0  502  503 -0.00000000000E+00 -0.00000000000E+00 -0.97228776264E+02  0.97228776264E+02  0.00000000000E+00 0. -1.
          6    1    1    2  501    0  0.52524266155E+02 -0.46167636626E+02  0.28558885659E+03  0.34114548834E+03  0.17300000000E+03 0. -1.
         -6    1    1    2    0  503 -0.52524266155E+02  0.46167636626E+02  0.55887978739E+02  0.19478889952E+03  0.17300000000E+03 0. -1.
<mgrwt>
<rscale>  2 0.18659917E+03</rscale>
<asrwt>0</asrwt>
<pdfrwt beam="1">  1       21 0.67493170E-01 0.18659917E+03</pdfrwt>
<pdfrwt beam="2">  1       21 0.14958274E-01 0.18659917E+03</pdfrwt>
<totfact> 0.79351570E+04</totfact>
</mgrwt>
</event>
<event>
 4    1  0.4067306E+000  0.2509372E+03  0.7546771E-02  0.1112714E+00
         21   -1    0    0  501  502  0.00000000000E+00  0.00000000000E+00  0.85774532149E+03  0.85774532149E+03  0.00000000000E+00 0.  1.
         21   -1    0    0  502  503 -0.00000000000E+00 -0.00000000000E+00 -0.86697447016E+02  0.86697447016E+02  0.00000000000E+00 0. -1.
          6    1    1    2  501    0 -0.17840104701E+03  0.34836280773E+02  0.20067488308E+03  0.32130967731E+03  0.17300000000E+03 0. -1.
         -6    1    1    2    0  503  0.17840104701E+03 -0.34836280773E+02  0.57037299139E+03  0.62313309119E+03  0.17300000000E+03 0. -1.
<mgrwt>
<rscale>  2 0.25093724E+03</rscale>
<asrwt>0</asrwt>
<pdfrwt beam="1">  1       21 0.13196081E+00 0.25093724E+03</pdfrwt>
<pdfrwt beam="2">  1       21 0.13338069E-01 0.25093724E+03</pdfrwt>
<totfact> 0.19514401E+04</totfact>
</mgrwt>
</event>
<event>
 4    1  0.4067306E+000  0.1930557E+03  0.7546771E-02  0.1155734E+00
         21   -1    0    0  501  502  0.00000000000E+00  0.00000000000E+00  0.10586051671E+04  0.10586051671E+04  0.00000000000E+00 0.  1.
         21   -1    0    0  502  503 -0.00000000000E+00 -0.00000000000E+00 -0.35255357999E+02  0.35255357999E+02  0.00000000000E+00 0.  1.
          6    1    1    2  501    0  0.85659717464E+02 -0.19752098500E+01  0.49145386658E+03  0.52801268131E+03  0.17300000000E+03 0. -1.
         -6    1    1    2    0  503 -0.85659717464E+02  0.19752098500E+01  0.53189594257E+03  0.56584784383E+03  0.17300000000E+03 0. -1.
<mgrwt>
<rscale>  2 0.19305566E+03</rscale>
<asrwt>0</asrwt>
<pdfrwt beam="1">  1       21 0.16286231E+00 0.19305566E+03</pdfrwt>
<pdfrwt beam="2">  1       21 0.54239020E-02 0.19305566E+03</pdfrwt>
<totfact> 0.56189832E+04</totfact>
</mgrwt>
</event>
<event>
 4    1  0.4067306E+000  0.1810418E+03  0.7546771E-02  0.1166799E+00
         21   -1    0    0  501  502  0.00000000000E+00  0.00000000000E+00  0.60871214514E+03  0.60871214514E+03  0.00000000000E+00 0.  1.
         21   -1    0    0  502  503 -0.00000000000E+00 -0.00000000000E+00 -0.71385360251E+02  0.71385360251E+02  0.00000000000E+00 0.  1.
          6    1    1    2  501    0 -0.47239704484E+02 -0.24810149363E+02  0.43722369368E+03  0.47322372247E+03  0.17300000000E+03 0.  1.
         -6    1    1    2    0  503  0.47239704484E+02  0.24810149363E+02  0.10010309121E+03  0.20687378292E+03  0.17300000000E+03 0.  1.
<mgrwt>
<rscale>  2 0.18104180E+03</rscale>
<asrwt>0</asrwt>
<pdfrwt beam="1">  1       21 0.93648019E-01 0.18104180E+03</pdfrwt>
<pdfrwt beam="2">  1       21 0.10982363E-01 0.18104180E+03</pdfrwt>
<totfact> 0.66186646E+04</totfact>
</mgrwt>
</event>
<event>
 4    1  0.4067306E+000  0.1749967E+03  0.7546771E-02  0.1172735E+00
         21   -1    0    0  503  502  0.00000000000E+00  0.00000000000E+00  0.17867543401E+03  0.17867543401E+03  0.00000000000E+00 0.  1.
         21   -1    0    0  501  503 -0.00000000000E+00 -0.00000000000E+00 -0.46284713419E+03  0.46284713419E+03  0.00000000000E+00 0.  1.
          6    1    1    2  501    0 -0.71187364595E+01  0.25380499067E+02 -0.39662098114E+03  0.43351130184E+03  0.17300000000E+03 0.  1.
         -6    1    1    2    0  502  0.71187364595E+01 -0.25380499067E+02  0.11244928096E+03  0.20801126635E+03  0.17300000000E+03 0.  1.
<mgrwt>
<rscale>  2 0.17499670E+03</rscale>
<asrwt>0</asrwt>
<pdfrwt beam="1">  1       21 0.27488528E-01 0.17499670E+03</pdfrwt>
<pdfrwt beam="2">  1       21 0.71207251E-01 0.17499670E+03</pdfrwt>
<totfact> 0.22762746E+04</totfact>
</mgrwt>
</event>
<event>
 4    1  0.4067306E+000  0.1734173E+03  0.7546771E-02  0.1174330E+00
         21   -1    0    0  503  502  0.00000000000E+00  0.00000000000E+00  0.12087522660E+03  0.12087522660E+03  0.00000000000E+00 0. -1.
         21   -1    0    0  501  503 -0.00000000000E+00 -0.00000000000E+00 -0.26388612462E+03  0.26388612462E+03  0.00000000000E+00 0. -1.
          6    1    1    2  501    0 -0.28898682966E-01  0.12022801636E+02 -0.11750639418E+03  0.20947864155E+03  0.17300000000E+03 0. -1.
         -6    1    1    2    0  502  0.28898682966E-01 -0.12022801636E+02 -0.25504503838E+02  0.17528270967E+03  0.17300000000E+03 0. -1.
<mgrwt>
<rscale>  2 0.17341727E+03</rscale>
<asrwt>0</asrwt>
<pdfrwt beam="1">  1       21 0.18596189E-01 0.17341727E+03</pdfrwt>
<pdfrwt beam="2">  1       21 0.40597865E-01 0.17341727E+03</pdfrwt>
<totfact> 0.15546544E+05</totfact>
</mgrwt>
</event>
<event>
 4    1  0.4067306E+000  0.2064650E+03  0.7546771E-02  0.1144396E+00
         21   -1    0    0  503  502  0.00000000000E+00  0.00000000000E+00  0.45004515289E+03  0.45004515289E+03  0.00000000000E+00 0.  1.
         21   -1    0    0  501  503 -0.00000000000E+00 -0.00000000000E+00 -0.94723617262E+02  0.94723617262E+02  0.00000000000E+00 0.  1.
          6    1    1    2  501    0 -0.44019164001E+02  0.10373582215E+03  0.17957126649E+03  0.27363049418E+03  0.17300000000E+03 0.  1.
         -6    1    1    2    0  502  0.44019164001E+02 -0.10373582215E+03  0.17575026914E+03  0.27113827597E+03  0.17300000000E+03 0.  1.
<mgrwt>
<rscale>  2 0.20646503E+03</rscale>
<asrwt>0</asrwt>
<pdfrwt beam="1">  1       21 0.69237715E-01 0.20646503E+03</pdfrwt>
<pdfrwt beam="2">  1       21 0.14572864E-01 0.20646503E+03</pdfrwt>
<totfact> 0.78001952E+04</totfact>
</mgrwt>
</event>
<event>
 4    1  0.4067306E+000  0.2631851E+03  0.7546771E-02  0.1105245E+00
         21   -1    0    0  501  502  0.00000000000E+00  0.00000000000E+00  0.70596122050E+03  0.70596122050E+03  0.00000000000E+00 0.  1.
         21   -1    0    0  502  503 -0.00000000000E+00 -0.00000000000E+00 -0.12547098941E+03  0.12547098941E+03  0.00000000000E+00 0.  1.
          6    1    1    2  501    0  0.16550457522E+03 -0.10929595693E+03  0.48435172371E+03  0.55123766461E+03  0.17300000000E+03 0.  1.
         -6    1    1    2    0  503 -0.16550457522E+03  0.10929595693E+03  0.96138507369E+02  0.28019454530E+03  0.17300000000E+03 0.  1.
<mgrwt>
<rscale>  2 0.26318505E+03</rscale>
<asrwt>0</asrwt>
<pdfrwt beam="1">  1       21 0.10860942E+00 0.26318505E+03</pdfrwt>
<pdfrwt beam="2">  1       21 0.19303230E-01 0.26318505E+03</pdfrwt>
<totfact> 0.15946233E+04</totfact>
</mgrwt>
</event>
<event>
 4    1  0.4067306E+000  0.2019781E+03  0.7546771E-02  0.1148081E+00
         21   -1    0    0  501  502  0.00000000000E+00  0.00000000000E+00  0.15427782872E+03  0.15427782872E+03  0.00000000000E+00 0.  1.
         21   -1    0    0  502  503 -0.00000000000E+00 -0.00000000000E+00 -0.26995815652E+03  0.26995815652E+03  0.00000000000E+00 0.  1.
          6    1    1    2  501    0  0.47257202277E+02 -0.92913364702E+02 -0.27476136822E+02  0.20383835410E+03  0.17300000000E+03 0.  1.
         -6    1    1    2    0  503 -0.47257202277E+02  0.92913364702E+02 -0.88204190973E+02  0.22039763114E+03  0.17300000000E+03 0.  1.
<mgrwt>
<rscale>  2 0.20197806E+03</rscale>
<asrwt>0</asrwt>
<pdfrwt beam="1">  1       21 0.23735051E-01 0.20197806E+03</pdfrwt>
<pdfrwt beam="2">  1       21 0.41532024E-01 0.20197806E+03</pdfrwt>
<totfact> 0.92975629E+04</totfact>
</mgrwt>
</event>
<event>
 4    1  0.4067306E+000  0.2048535E+03  0.7546771E-02  0.1145707E+00
         21   -1    0    0  501  502  0.00000000000E+00  0.00000000000E+00  0.54958899281E+02  0.54958899281E+02  0.00000000000E+00 0.  1.
         21   -1    0    0  502  503 -0.00000000000E+00 -0.00000000000E+00 -0.76419277352E+03  0.76419277352E+03  0.00000000000E+00 0. -1.
          6    1    1    2  501    0 -0.99613508799E+02 -0.45968727950E+02 -0.34292611957E+03  0.39945375022E+03  0.17300000000E+03 0.  1.
         -6    1    1    2    0  503  0.99613508799E+02  0.45968727950E+02 -0.36630775467E+03  0.41969792258E+03  0.17300000000E+03 0. -1.
<mgrwt>
<rscale>  2 0.20485355E+03</rscale>
<asrwt>0</asrwt>
<pdfrwt beam="1">  1       21 0.84552158E-02 0.20485355E+03</pdfrwt>
<pdfrwt beam="2">  1       21 0.11756811E+00 0.20485355E+03</pdfrwt>
<totfact> 0.60152423E+04</totfact>
</mgrwt>
</event>
<event>
 4    1  0.4067306E+000  0.1735869E+03  0.7546771E-02  0.1174158E+00
         21   -1    0    0  503  502  0.00000000000E+00  0.00000000000E+00  0.57791884907E+03  0.57791884907E+03  0.00000000000E+00 0. -1.
         21   -1    0    0  501  503 -0.00000000000E+00 -0.00000000000E+00 -0.42594824536E+03  0.42594824536E+03  0.00000000000E+00 0. -1.
          6    1    1    2  501    0 -0.13298801968E+02 -0.51521045083E+01 -0.39422542529E+03  0.43075061028E+03  0.17300000000E+03 0. -1.
         -6    1    1    2    0  502  0.13298801968E+02  0.51521045083E+01  0.54619602900E+03  0.57311648415E+03  0.17300000000E+03 0. -1.
<mgrwt>
<rscale>  2 0.17358687E+03</rscale>
<asrwt>0</asrwt>
<pdfrwt beam="1">  1       21 0.88910593E-01 0.17358687E+03</pdfrwt>
<pdfrwt beam="2">  1       21 0.65530499E-01 0.17358687E+03</pdfrwt>
<totfact> 0.23547479E+03</totfact>
</mgrwt>
</event>
<event>
 4    1  0.4067306E+000  0.2092407E+03  0.7546771E-02  0.1142169E+00
         21   -1    0    0  501  502  0.00000000000E+00  0.00000000000E+00  0.20991254526E+02  0.20991254526E+02  0.00000000000E+00 0. -1.
         21   -1    0    0  502  503 -0.00000000000E+00 -0.00000000000E+00 -0.24389413619E+04  0.24389413619E+04  0.00000000000E+00 0.  1.
          6    1    1    2  501    0  0.85692780548E+02 -0.80681027077E+02 -0.74089316984E+03  0.76987295698E+03  0.17300000000E+03 0. -1.
         -6    1    1    2    0  503 -0.85692780548E+02  0.80681027077E+02 -0.16770569375E+04  0.16900596594E+04  0.17300000000E+03 0.  1.
<mgrwt>
<rscale>  2 0.20924072E+03</rscale>
<asrwt>0</asrwt>
<pdfrwt beam="1">  1       21 0.32294224E-02 0.20924072E+03</pdfrwt>
<pdfrwt beam="2">  1       21 0.37522191E+00 0.20924072E+03</pdfrwt>
<totfact> 0.67821835E+03</totfact>
</mgrwt>
</event>
<event>
 4    1  0.4067306E+000  0.1761735E+03  0.7546771E-02  0.1171559E+00
         21   -1    0    0  501  502  0.00000000000E+00  0.00000000000E+00  0.71883395407E+03  0.71883395407E+03  0.00000000000E+00 0.  1.
         21   -1    0    0  502  503 -0.00000000000E+00 -0.00000000000E+00 -0.77796262387E+02  0.77796262387E+02  0.00000000000E+00 0.  1.
          6    1    1    2  501    0 -0.31674253106E+02 -0.10238879488E+02  0.58622788229E+03  0.61212761981E+03  0.17300000000E+03 0.  1.
         -6    1    1    2    0  503  0.31674253106E+02  0.10238879488E+02  0.54809809394E+02  0.18450259665E+03  0.17300000000E+03 0.  1.
<mgrwt>
<rscale>  2 0.17617347E+03</rscale>
<asrwt>0</asrwt>
<pdfrwt beam="1">  1       21 0.11058983E+00 0.17617347E+03</pdfrwt>
<pdfrwt beam="2">  1       21 0.11968656E-01 0.17617347E+03</pdfrwt>
<totfact> 0.38354847E+04</totfact>
</mgrwt>
</event>
<event>
 4    1  0.4067306E+000  0.2384446E+03  0.7546771E-02  0.1120833E+00
         21   -1    0    0  501  502  0.00000000000E+00  0.00000000000E+00  0.52707365312E+03  0.52707365312E+03  0.00000000000E+00 0.  1.
         21   -1    0    0  502  503 -0.00000000000E+00 -0.00000000000E+00 -0.11527845188E+03  0.11527845188E+03  0.00000000000E+00 0. -1.
          6    1    1    2  501    0  0.12067311268E+03  0.11119724051E+03  0.28731384219E+03  0.37336988407E+03  0.17300000000E+03 0.  1.
         -6    1    1    2    0  503 -0.12067311268E+03 -0.11119724051E+03  0.12448135905E+03  0.26898222092E+03  0.17300000000E+03 0. -1.
<mgrwt>
<rscale>  2 0.23844460E+03</rscale>
<asrwt>0</asrwt>
<pdfrwt beam="1">  1       21 0.81088253E-01 0.23844460E+03</pdfrwt>
<pdfrwt beam="2">  1       21 0.17735147E-01 0.23844460E+03</pdfrwt>
<totfact> 0.37622886E+04</totfact>
</mgrwt>
</event>
<event>
 4    1  0.4067306E+000  0.2320908E+03  0.7546771E-02  0.1125177E+00
         21   -1    0    0  503  502  0.00000000000E+00  0.00000000000E+00  0.49525970603E+03  0.49525970603E+03  0.00000000000E+00 0. -1.
         21   -1    0    0  501  503 -0.00000000000E+00 -0.00000000000E+00 -0.14417087037E+03  0.14417087037E+03  0.00000000000E+00 0.  1.
          6    1    1    2  501    0  0.35171263328E+02  0.15066553959E+03  0.17101737829E+02  0.23271998629E+03  0.17300000000E+03 0.  1.
         -6    1    1    2    0  502 -0.35171263328E+02 -0.15066553959E+03  0.33398709783E+03  0.40671059010E+03  0.17300000000E+03 0. -1.
<mgrwt>
<rscale>  2 0.23209076E+03</rscale>
<asrwt>0</asrwt>
<pdfrwt beam="1">  1       21 0.76193800E-01 0.23209076E+03</pdfrwt>
<pdfrwt beam="2">  1       21 0.22180134E-01 0.23209076E+03</pdfrwt>
<totfact> 0.28565691E+04</totfact>
</mgrwt>
</event>
<event>
 4    1  0.4067306E+000  0.1848189E+03  0.7546771E-02  0.1163219E+00
         21   -1    0    0  501  502  0.00000000000E+00  0.00000000000E+00  0.16509739368E+03  0.16509739368E+03  0.00000000000E+00 0. -1.
         21   -1    0    0  502  503 -0.00000000000E+00 -0.00000000000E+00 -0.20754480942E+03  0.20754480942E+03  0.00000000000E+00 0. -1.
          6    1    1    2  501    0 -0.44242889161E+02  0.47661080507E+02 -0.10807224042E+02  0.18513456708E+03  0.17300000000E+03 0. -1.
         -6    1    1    2    0  503  0.44242889161E+02 -0.47661080507E+02 -0.31640191703E+02  0.18750763602E+03  0.17300000000E+03 0. -1.
<mgrwt>
<rscale>  2 0.18481886E+03</rscale>
<asrwt>0</asrwt>
<pdfrwt beam="1">  1       21 0.25399599E-01 0.18481886E+03</pdfrwt>
<pdfrwt beam="2">  1       21 0.31929971E-01 0.18481886E+03</pdfrwt>
<totfact> 0.13897028E+05</totfact>
</mgrwt>
</event>
<event>
 4    1  0.4067306E+000  0.2253924E+03  0.7546771E-02  0.1129925E+00
         21   -1    0    0  501  502  0.00000000000E+00  0.00000000000E+00  0.16750317327E+03  0.16750317327E+03  0.00000000000E+00 0.  1.
         21   -1    0    0  502  503 -0.00000000000E+00 -0.00000000000E+00 -0.36127050433E+03  0.36127050433E+03  0.00000000000E+00 0. -1.
          6    1    1    2  501    0 -0.14439920167E+03  0.46467015365E+01  0.90347906941E+01  0.22557337768E+03  0.17300000000E+03 0.  1.
         -6    1    1    2    0  503  0.14439920167E+03 -0.46467015365E+01 -0.20280212176E+03  0.30320029991E+03  0.17300000000E+03 0. -1.
<mgrwt>
<rscale>  2 0.22539237E+03</rscale>
<asrwt>0</asrwt>
<pdfrwt beam="1">  1       21 0.25769719E-01 0.22539237E+03</pdfrwt>
<pdfrwt beam="2">  1       21 0.55580077E-01 0.22539237E+03</pdfrwt>
<totfact> 0.42913435E+04</totfact>
</mgrwt>
</event>
<event>
 4    1  0.4067306E+000  0.1746954E+03  0.7546771E-02  0.1173038E+00
         21   -1    0    0  501  502  0.00000000000E+00  0.00000000000E+00  0.15173564312E+03  0.15173564312E+03  0.00000000000E+00 0. -1.
         21   -1    0    0  502  503 -0.00000000000E+00 -0.00000000000E+00 -0.27346234134E+03  0.27346234134E+03  0.00000000000E+00 0. -1.
          6    1    1    2  501    0  0.56163271885E+01 -0.23620940130E+02  0.48477045566E+02  0.18129676194E+03  0.17300000000E+03 0. -1.
         -6    1    1    2    0  503 -0.56163271885E+01  0.23620940130E+02 -0.17020374380E+03  0.24390122252E+03  0.17300000000E+03 0. -1.
<mgrwt>
<rscale>  2 0.17469543E+03</rscale>
<asrwt>0</asrwt>
<pdfrwt beam="1">  1       21 0.23343945E-01 0.17469543E+03</pdfrwt>
<pdfrwt beam="2">  1       21 0.42071129E-01 0.17469543E+03</pdfrwt>
<totfact> 0.94487539E+04</totfact>
</mgrwt>
</event>
<event>
 4    1  0.4067306E+000  0.1853200E+03  0.7546771E-02  0.1162751E+00
         21   -1    0    0  503  502  0.00000000000E+00  0.00000000000E+00  0.24776620224E+03  0.24776620224E+03  0.00000000000E+00 0.  1.
         21   -1    0    0  501  503 -0.00000000000E+00 -0.00000000000E+00 -0.33164258651E+03  0.33164258651E+03  0.00000000000E+00 0.  1.
          6    1    1    2  501    0 -0.58665008732E+02  0.31191701751E+02 -0.26295860233E+03  0.32169975450E+03  0.17300000000E+03 0.  1.
         -6    1    1    2    0  502  0.58665008732E+02 -0.31191701751E+02  0.17908221806E+03  0.25770903425E+03  0.17300000000E+03 0.  1.
<mgrwt>
<rscale>  2 0.18532001E+03</rscale>
<asrwt>0</asrwt>
<pdfrwt beam="1">  1       21 0.38117877E-01 0.18532001E+03</pdfrwt>
<pdfrwt beam="2">  1       21 0.51021936E-01 0.18532001E+03</pdfrwt>
<totfact> 0.24345005E+04</totfact>
</mgrwt>
</event>
<event>
 4    1  0.4067306E+000  0.2015029E+03  0.7546771E-02  0.1148477E+00
         21   -1    0    0  501  502  0.00000000000E+00  0.00000000000E+00  0.19497074124E+03  0.19497074124E+03  0.00000000000E+00 0. -1.
         21   -1    0    0  502  503 -0.00000000000E+00 -0.00000000000E+00 -0.32506717795E+03  0.32506717795E+03  0.00000000000E+00 0.  1.
          6    1    1    2  501    0 -0.29663906656E+02  0.98966929846E+02  0.90822565846E+02  0.22102519998E+03  0.17300000000E+03 0. -1.
         -6    1    1    2    0  503  0.29663906656E+02 -0.98966929846E+02 -0.22091900256E+03  0.29901271921E+03  0.17300000000E+03 0.  1.
<mgrwt>
<rscale>  2 0.20150285E+03</rscale>
<asrwt>0</asrwt>
<pdfrwt beam="1">  1       21 0.29995499E-01 0.20150285E+03</pdfrwt>
<pdfrwt beam="2">  1       21 0.50010335E-01 0.20150285E+03</pdfrwt>
<totfact> 0.40414317E+04</totfact>
</mgrwt>
</event>
<event>
 4    1  0.4067306E+000  0.2611365E+03  0.7546771E-02  0.1106462E+00
         21   -1    0    0  501  502  0.00000000000E+00  0.00000000000E+00  0.52316510808E+03  0.52316510808E+03  0.00000000000E+00 0. -1.
         21   -1    0    0  502  503 -0.00000000000E+00 -0.00000000000E+00 -0.19599371283E+03  0.19599371283E+03  0.00000000000E+00 0. -1.
          6    1    1    2  501    0 -0.18241563686E+03 -0.70624493113E+02  0.37169178423E+03  0.45425440677E+03  0.17300000000E+03 0. -1.
         -6    1    1    2    0  503  0.18241563686E+03  0.70624493113E+02 -0.44520388983E+02  0.26490441415E+03  0.17300000000E+03 0. -1.
<mgrwt>
<rscale>  2 0.26113652E+03</rscale>
<asrwt>0</asrwt>
<pdfrwt beam="1">  1       21 0.80486939E-01 0.26113652E+03</pdfrwt>
<pdfrwt beam="2">  1       21 0.30152879E-01 0.26113652E+03</pdfrwt>
<totfact> 0.13757152E+04</totfact>
</mgrwt>
</event>
<event>
 4    1  0.4067306E+000  0.1753654E+03  0.7546771E-02  0.1172365E+00
         21   -1    0    0  501  502  0.00000000000E+00  0.00000000000E+00  0.97502945179E+03  0.97502945179E+03  0.00000000000E+00 0.  1.
         21   -1    0    0  502  503 -0.00000000000E+00 -0.00000000000E+00 -0.45265836129E+02  0.45265836129E+02  0.00000000000E+00 0.  1.
          6    1    1    2  501    0  0.20753630842E+02 -0.19832319946E+02  0.74579374638E+03  0.76613402629E+03  0.17300000000E+03 0.  1.
         -6    1    1    2    0  503 -0.20753630842E+02  0.19832319946E+02  0.18396986928E+03  0.25416126163E+03  0.17300000000E+03 0.  1.
<mgrwt>
<rscale>  2 0.17536543E+03</rscale>
<asrwt>0</asrwt>
<pdfrwt beam="1">  1       21 0.15000452E+00 0.17536543E+03</pdfrwt>
<pdfrwt beam="2">  1       21 0.69639755E-02 0.17536543E+03</pdfrwt>
<totfact> 0.46072602E+04</totfact>
</mgrwt>
</event>
<event>
 4    1  0.4067306E+000  0.2057072E+03  0.7546771E-02  0.1145011E+00
         21   -1    0    0  503  502  0.00000000000E+00  0.00000000000E+00  0.23273777921E+03  0.23273777921E+03  0.00000000000E+00 0. -1.
         21   -1    0    0  501  503 -0.00000000000E+00 -0.00000000000E+00 -0.22368052802E+03  0.22368052802E+03  0.00000000000E+00 0. -1.
          6    1    1    2  501    0 -0.10902043645E+03  0.22382730149E+02 -0.94199818035E+02  0.22624996771E+03  0.17300000000E+03 0. -1.
         -6    1    1    2    0  502  0.10902043645E+03 -0.22382730149E+02  0.10325706922E+03  0.23016833952E+03  0.17300000000E+03 0. -1.
<mgrwt>
<rscale>  2 0.20570718E+03</rscale>
<asrwt>0</asrwt>
<pdfrwt beam="1">  1       21 0.35805812E-01 0.20570718E+03</pdfrwt>
<pdfrwt beam="2">  1       21 0.34412389E-01 0.20570718E+03</pdfrwt>
<totfact> 0.60840676E+04</totfact>
</mgrwt>
</event>
<event>
 4    1  0.4067306E+000  0.4707667E+03  0.7546771E-02  0.1021704E+00
         21   -1    0    0  501  502  0.00000000000E+00  0.00000000000E+00  0.49700725698E+03  0.49700725698E+03  0.00000000000E+00 0. -1.
         21   -1    0    0  502  503 -0.00000000000E+00 -0.00000000000E+00 -0.49908906434E+03  0.49908906434E+03  0.00000000000E+00 0.  1.
          6    1    1    2  501    0 -0.25490615424E+03  0.35597070341E+03  0.16153127458E+03  0.49770839035E+03  0.17300000000E+03 0. -1.
         -6    1    1    2    0  503  0.25490615424E+03 -0.35597070341E+03 -0.16361308195E+03  0.49838793097E+03  0.17300000000E+03 0.  1.
<mgrwt>
<rscale>  2 0.47076670E+03</rscale>
<asrwt>0</asrwt>
<pdfrwt beam="1">  1       21 0.76462655E-01 0.47076670E+03</pdfrwt>
<pdfrwt beam="2">  1       21 0.76782933E-01 0.47076670E+03</pdfrwt>
<totfact> 0.19679632E+03</totfact>
</mgrwt>
</event>
<event>
 4    1  0.4067306E+000  0.2027107E+03  0.7546771E-02  0.1147472E+00
         21   -1    0    0  501  502  0.00000000000E+00  0.00000000000E+00  0.26574993286E+03  0.26574993286E+03  0.00000000000E+00 0.  1.
         21   -1    0    0  502  503 -0.00000000000E+00 -0.00000000000E+00 -0.22090313207E+03  0.22090313207E+03  0.00000000000E+00 0.  1.
          6    1    1    2  501    0 -0.44108696620E+01  0.10556130663E+03  0.15570582907E+03  0.25560897957E+03  0.17300000000E+03 0.  1.
         -6    1    1    2    0  503  0.44108696620E+01 -0.10556130663E+03 -0.11085902827E+03  0.23104408536E+03  0.17300000000E+03 0.  1.
<mgrwt>
<rscale>  2 0.20271074E+03</rscale>
<asrwt>0</asrwt>
<pdfrwt beam="1">  1       21 0.40884605E-01 0.20271074E+03</pdfrwt>
<pdfrwt beam="2">  1       21 0.33985097E-01 0.20271074E+03</pdfrwt>
<totfact> 0.47833697E+04</totfact>
</mgrwt>
</event>
<event>
 4    1  0.4067306E+000  0.1794761E+03  0.7546771E-02  0.1168311E+00
         21   -1    0    0  503  502  0.00000000000E+00  0.00000000000E+00  0.10434400822E+03  0.10434400822E+03  0.00000000000E+00 0. -1.
         21   -1    0    0  501  503 -0.00000000000E+00 -0.00000000000E+00 -0.54582200134E+03  0.54582200134E+03  0.00000000000E+00 0. -1.
          6    1    1    2  501    0  0.19407105676E+02  0.43658300862E+02 -0.43500271488E+03  0.47057310265E+03  0.17300000000E+03 0. -1.
         -6    1    1    2    0  502 -0.19407105676E+02 -0.43658300862E+02 -0.64752782351E+01  0.17959290691E+03  0.17300000000E+03 0. -1.
<mgrwt>
<rscale>  2 0.17947613E+03</rscale>
<asrwt>0</asrwt>
<pdfrwt beam="1">  1       21 0.16052925E-01 0.17947613E+03</pdfrwt>
<pdfrwt beam="2">  1       21 0.83972614E-01 0.17947613E+03</pdfrwt>
<totfact> 0.42985334E+04</totfact>
</mgrwt>
</event>
<event>
 4    1  0.4067306E+000  0.2368658E+03  0.7546771E-02  0.1121899E+00
         21   -1    0    0  503  502  0.00000000000E+00  0.00000000000E+00  0.17215593560E+03  0.17215593560E+03  0.00000000000E+00 0. -1.
         21   -1    0    0  501  503 -0.00000000000E+00 -0.00000000000E+00 -0.49261665008E+03  0.49261665008E+03  0.00000000000E+00 0. -1.
          6    1    1    2  501    0  0.81046237544E+02  0.14002827326E+03 -0.35359614420E+03  0.42560033262E+03  0.17300000000E+03 0. -1.
         -6    1    1    2    0  502 -0.81046237544E+02 -0.14002827326E+03  0.33135429714E+02  0.23917225306E+03  0.17300000000E+03 0. -1.
<mgrwt>
<rscale>  2 0.23686581E+03</rscale>
<asrwt>0</asrwt>
<pdfrwt beam="1">  1       21 0.26485529E-01 0.23686581E+03</pdfrwt>
<pdfrwt beam="2">  1       21 0.75787175E-01 0.23686581E+03</pdfrwt>
<totfact> 0.20545575E+04</totfact>
</mgrwt>
</event>
<event>
 4    1  0.4067306E+000  0.1750122E+03  0.7546771E-02  0.1172719E+00
         21   -1    0    0  503  502  0.00000000000E+00  0.00000000000E+00  0.66838129521E+02  0.66838129521E+02  0.00000000000E+00 0. -1.
         21   -1    0    0  501  503 -0.00000000000E+00 -0.00000000000E+00 -0.45876438103E+03  0.45876438103E+03  0.00000000000E+00 0. -1.
          6    1    1    2  501    0 -0.24292632545E+02  0.10495160293E+02 -0.18725429937E+03  0.25630734094E+03  0.17300000000E+03 0.  1.
         -6    1    1    2    0  502  0.24292632545E+02 -0.10495160293E+02 -0.20467195214E+03  0.26929516962E+03  0.17300000000E+03 0.  1.
<mgrwt>
<rscale>  2 0.17501223E+03</rscale>
<asrwt>0</asrwt>
<pdfrwt beam="1">  1       21 0.10282790E-01 0.17501223E+03</pdfrwt>
<pdfrwt beam="2">  1       21 0.70579133E-01 0.17501223E+03</pdfrwt>
<totfact> 0.14140455E+05</totfact>
</mgrwt>
</event>
<event>
 4    1  0.4067306E+000  0.2014089E+03  0.7546771E-02  0.1148556E+00
         21   -1    0    0  501  502  0.00000000000E+00  0.00000000000E+00  0.28946730177E+03  0.28946730177E+03  0.00000000000E+00 0.  1.
         21   -1    0    0  502  503 -0.00000000000E+00 -0.00000000000E+00 -0.18911431141E+03  0.18911431141E+03  0.00000000000E+00 0. -1.
          6    1    1    2  501    0 -0.81583765215E+02  0.63092320751E+02  0.17195034894E+03  0.26482536545E+03  0.17300000000E+03 0.  1.
         -6    1    1    2    0  503  0.81583765215E+02 -0.63092320751E+02 -0.71597358582E+02  0.21375624772E+03  0.17300000000E+03 0. -1.
<mgrwt>
<rscale>  2 0.20140892E+03</rscale>
<asrwt>0</asrwt>
<pdfrwt beam="1">  1       21 0.44533431E-01 0.20140892E+03</pdfrwt>
<pdfrwt beam="2">  1       21 0.29094509E-01 0.20140892E+03</pdfrwt>
<totfact> 0.54528731E+04</totfact>
</mgrwt>
</event>
<event>
 4    1  0.4067306E+000  0.2301640E+03  0.7546771E-02  0.1126524E+00
         21   -1    0    0  501  502  0.00000000000E+00  0.00000000000E+00  0.15142759514E+04  0.15142759514E+04  0.00000000000E+00 0.  1.
         21   -1    0    0  502  503 -0.00000000000E+00 -0.00000000000E+00 -0.66194127011E+02  0.66194127011E+02  0.00000000000E+00 0. -1.
          6    1    1    2  501    0 -0.10744666193E+03 -0.10724599295E+03  0.12666587335E+04  0.12874004176E+04  0.17300000000E+03 0.  1.
         -6    1    1    2    0  503  0.10744666193E+03  0.10724599295E+03  0.18142309089E+03  0.29306966079E+03  0.17300000000E+03 0. -1.
<mgrwt>
<rscale>  2 0.23016405E+03</rscale>
<asrwt>0</asrwt>
<pdfrwt beam="1">  1       21 0.23296551E+00 0.23016405E+03</pdfrwt>
<pdfrwt beam="2">  1       21 0.10183713E-01 0.23016405E+03</pdfrwt>
<totfact> 0.63744122E+03</totfact>
</mgrwt>
</event>
<event>
 4    1  0.4067306E+000  0.1818781E+03  0.7546771E-02  0.1165998E+00
         21   -1    0    0  503  502  0.00000000000E+00  0.00000000000E+00  0.15430516228E+03  0.15430516228E+03  0.00000000000E+00 0. -1.
         21   -1    0    0  501  503 -0.00000000000E+00 -0.00000000000E+00 -0.37044877144E+03  0.37044877144E+03  0.00000000000E+00 0. -1.
          6    1    1    2  501    0 -0.49024331783E+02 -0.27335763904E+02 -0.27837486137E+03  0.33252397288E+03  0.17300000000E+03 0. -1.
         -6    1    1    2    0  502  0.49024331783E+02  0.27335763904E+02  0.62231252206E+02  0.19222996084E+03  0.17300000000E+03 0. -1.
<mgrwt>
<rscale>  2 0.18187806E+03</rscale>
<asrwt>0</asrwt>
<pdfrwt beam="1">  1       21 0.23739256E-01 0.18187806E+03</pdfrwt>
<pdfrwt beam="2">  1       21 0.56992118E-01 0.18187806E+03</pdfrwt>
<totfact> 0.48595149E+04</totfact>
</mgrwt>
</event>
<event>
 4    1  0.4067306E+000  0.1995056E+03  0.7546771E-02  0.1150157E+00
         21   -1    0    0  501  502  0.00000000000E+00  0.00000000000E+00  0.12464982621E+03  0.12464982621E+03  0.00000000000E+00 0.  1.
         21   -1    0    0  502  503 -0.00000000000E+00 -0.00000000000E+00 -0.15388024286E+04  0.15388024286E+04  0.00000000000E+00 0.  1.
          6    1    1    2  501    0  0.99321162475E+02 -0.29625036078E+01  0.33342954269E+02  0.20227264358E+03  0.17300000000E+03 0.  1.
         -6    1    1    2    0  503 -0.99321162475E+02  0.29625036078E+01 -0.14474955567E+04  0.14611796112E+04  0.17300000000E+03 0.  1.
<mgrwt>
<rscale>  2 0.19950556E+03</rscale>
<asrwt>0</asrwt>
<pdfrwt beam="1">  1       21 0.19176897E-01 0.19950556E+03</pdfrwt>
<pdfrwt beam="2">  1       21 0.23673883E+00 0.19950556E+03</pdfrwt>
<totfact> 0.19739644E+03</totfact>
</mgrwt>
</event>
<event>
 4    1  0.4067306E+000  0.2304429E+03  0.7546771E-02  0.1126328E+00
         21   -1    0    0  501  502  0.00000000000E+00  0.00000000000E+00  0.54641067962E+03  0.54641067962E+03  0.00000000000E+00 0. -1.
         21   -1    0    0  502  503 -0.00000000000E+00 -0.00000000000E+00 -0.14373705101E+03  0.14373705101E+03  0.00000000000E+00 0. -1.
          6    1    1    2  501    0  0.14759668555E+03 -0.37284589181E+02  0.39771288867E+03  0.45965145925E+03  0.17300000000E+03 0. -1.
         -6    1    1    2    0  503 -0.14759668555E+03  0.37284589181E+02  0.49607399387E+01  0.23049627138E+03  0.17300000000E+03 0. -1.
<mgrwt>
<rscale>  2 0.23044288E+03</rscale>
<asrwt>0</asrwt>
<pdfrwt beam="1">  1       21 0.84063180E-01 0.23044288E+03</pdfrwt>
<pdfrwt beam="2">  1       21 0.22113393E-01 0.23044288E+03</pdfrwt>
<totfact> 0.22999091E+04</totfact>
</mgrwt>
</event>
<event>
 4    1  0.4067306E+000  0.1911784E+03  0.7546771E-02  0.1157403E+00
         21   -1    0    0  501  502  0.00000000000E+00  0.00000000000E+00  0.33927661398E+03  0.33927661398E+03  0.00000000000E+00 0.  1.
         21   -1    0    0  502  503 -0.00000000000E+00 -0.00000000000E+00 -0.15434789181E+03  0.15434789181E+03  0.00000000000E+00 0. -1.
          6    1    1    2  501    0 -0.25054591873E+02  0.77411003693E+02  0.22811049451E+03  0.29762996115E+03  0.17300000000E+03 0.  1.
         -6    1    1    2    0  503  0.25054591873E+02 -0.77411003693E+02 -0.43181772348E+02  0.19599454464E+03  0.17300000000E+03 0. -1.
<mgrwt>
<rscale>  2 0.19117844E+03</rscale>
<asrwt>0</asrwt>
<pdfrwt beam="1">  1       21 0.52196402E-01 0.19117844E+03</pdfrwt>
<pdfrwt beam="2">  1       21 0.23745830E-01 0.19117844E+03</pdfrwt>
<totfact> 0.58224283E+04</totfact>
</mgrwt>
</event>
<event>
 4    1  0.4067306E+000  0.2012848E+03  0.7546771E-02  0.1148660E+00
         21   -1    0    0  503  502  0.00000000000E+00  0.00000000000E+00  0.41222167241E+03  0.41222167241E+03  0.00000000000E+00 0. -1.
         21   -1    0    0  501  503 -0.00000000000E+00 -0.00000000000E+00 -0.14465044365E+03  0.14465044365E+03  0.00000000000E+00 0. -1.
          6    1    1    2  501    0 -0.96205861356E+02 -0.36482686943E+02 -0.23851638368E+02  0.20269300644E+03  0.17300000000E+03 0. -1.
         -6    1    1    2    0  502  0.96205861356E+02  0.36482686943E+02  0.29142286713E+03  0.35417910962E+03  0.17300000000E+03 0. -1.
<mgrwt>
<rscale>  2 0.20128476E+03</rscale>
<asrwt>0</asrwt>
<pdfrwt beam="1">  1       21 0.63418718E-01 0.20128476E+03</pdfrwt>
<pdfrwt beam="2">  1       21 0.22253915E-01 0.20128476E+03</pdfrwt>
<totfact> 0.43241449E+04</totfact>
</mgrwt>
</event>
<event>
 4    1  0.4067306E+000  0.2010553E+03  0.7546771E-02  0.1148852E+00
         21   -1    0    0  503  502  0.00000000000E+00  0.00000000000E+00  0.24150023474E+03  0.24150023474E+03  0.00000000000E+00 0.  1.
         21   -1    0    0  501  503 -0.00000000000E+00 -0.00000000000E+00 -0.31677849199E+03  0.31677849199E+03  0.00000000000E+00 0. -1.
          6    1    1    2  501    0 -0.81691592678E+02  0.61812090358E+02 -0.22933408228E+03  0.30498749503E+03  0.17300000000E+03 0. -1.
         -6    1    1    2    0  502  0.81691592678E+02 -0.61812090358E+02  0.15405582504E+03  0.25329123170E+03  0.17300000000E+03 0.  1.
<mgrwt>
<rscale>  2 0.20105534E+03</rscale>
<asrwt>0</asrwt>
<pdfrwt beam="1">  1       21 0.37153883E-01 0.20105534E+03</pdfrwt>
<pdfrwt beam="2">  1       21 0.48735152E-01 0.20105534E+03</pdfrwt>
<totfact> 0.27948381E+04</totfact>
</mgrwt>
</event>
<event>
 4    1  0.4067306E+000  0.1946763E+03  0.7546771E-02  0.1154310E+00
         21   -1    0    0  503  502  0.00000000000E+00  0.00000000000E+00  0.16569200011E+03  0.16569200011E+03  0.00000000000E+00 0. -1.
         21   -1    0    0  501  503 -0.00000000000E+00 -0.00000000000E+00 -0.38026401093E+03  0.38026401093E+03  0.00000000000E+00 0. -1.
          6    1    1    2  501    0  0.81911725928E+02  0.35500901325E+02 -0.27960736811E+03  0.34070386722E+03  0.17300000000E+03 0. -1.
         -6    1    1    2    0  502 -0.81911725928E+02 -0.35500901325E+02  0.65035357293E+02  0.20525214381E+03  0.17300000000E+03 0. -1.
<mgrwt>
<rscale>  2 0.19467626E+03</rscale>
<asrwt>0</asrwt>
<pdfrwt beam="1">  1       21 0.25491077E-01 0.19467626E+03</pdfrwt>
<pdfrwt beam="2">  1       21 0.58502155E-01 0.19467626E+03</pdfrwt>
<totfact> 0.39881195E+04</totfact>
</mgrwt>
</event>
<event>
 4    1  0.4067306E+000  0.1997937E+03  0.7546771E-02  0.1149913E+00
         21   -1    0    0  503  502  0.00000000000E+00  0.00000000000E+00  0.17768692480E+03  0.17768692480E+03  0.00000000000E+00 0.  1.
         21   -1    0    0  501  503 -0.00000000000E+00 -0.00000000000E+00 -0.25193855713E+03  0.25193855713E+03  0.00000000000E+00 0.  1.
          6    1    1    2  501    0  0.63300896899E+02 -0.77340251147E+02 -0.10782204887E+03  0.22703108205E+03  0.17300000000E+03 0.  1.
         -6    1    1    2    0  502 -0.63300896899E+02  0.77340251147E+02  0.33570416541E+02  0.20259439988E+03  0.17300000000E+03 0.  1.
<mgrwt>
<rscale>  2 0.19979369E+03</rscale>
<asrwt>0</asrwt>
<pdfrwt beam="1">  1       21 0.27336450E-01 0.19979369E+03</pdfrwt>
<pdfrwt beam="2">  1       21 0.38759778E-01 0.19979369E+03</pdfrwt>
<totfact> 0.81655512E+04</totfact>
</mgrwt>
</event>
<event>
 4    1  0.4067306E+000  0.1734596E+03  0.7546771E-02  0.1174287E+00
         21   -1    0    0  501  502  0.00000000000E+00  0.00000000000E+00  0.93189078726E+03  0.93189078726E+03  0.00000000000E+00 0.  1.
         21   -1    0    0  502  503 -0.00000000000E+00 -0.00000000000E+00 -0.41796280070E+02  0.41796280070E+02  0.00000000000E+00 0.  1.
          6    1    1    2  501    0  0.33185073734E+00 -0.12614683509E+02  0.67726076569E+03  0.69912115196E+03  0.17300000000E+03 0.  1.
         -6    1    1    2    0  503 -0.33185073734E+00  0.12614683509E+02  0.21283374149E+03  0.27456591537E+03  0.17300000000E+03 0.  1.
<mgrwt>
<rscale>  2 0.17345962E+03</rscale>
<asrwt>0</asrwt>
<pdfrwt beam="1">  1       21 0.14336780E+00 0.17345962E+03</pdfrwt>
<pdfrwt beam="2">  1       21 0.64301976E-02 0.17345962E+03</pdfrwt>
<totfact> 0.59519818E+04</totfact>
</mgrwt>
</event>
<event>
 4    1  0.4067306E+000  0.3184711E+03  0.7546771E-02  0.1076355E+00
         21   -1    0    0  501  502  0.00000000000E+00  0.00000000000E+00  0.95436482171E+03  0.95436482171E+03  0.00000000000E+00 0. -1.
         21   -1    0    0  502  503 -0.00000000000E+00 -0.00000000000E+00 -0.37217226199E+03  0.37217226199E+03  0.00000000000E+00 0. -1.
          6    1    1    2  501    0 -0.17853124694E+03  0.19905134496E+03  0.85172510600E+03  0.90931815128E+03  0.17300000000E+03 0. -1.
         -6    1    1    2    0  503  0.17853124694E+03 -0.19905134496E+03 -0.26953254628E+03  0.41721893242E+03  0.17300000000E+03 0. -1.
<mgrwt>
<rscale>  2 0.31847110E+03</rscale>
<asrwt>0</asrwt>
<pdfrwt beam="1">  1       21 0.14682536E+00 0.31847110E+03</pdfrwt>
<pdfrwt beam="2">  1       21 0.57257271E-01 0.31847110E+03</pdfrwt>
<totfact> 0.81596906E+02</totfact>
</mgrwt>
</event>
<event>
 4    1  0.4067306E+000  0.2078689E+03  0.7546771E-02  0.1143265E+00
         21   -1    0    0  503  502  0.00000000000E+00  0.00000000000E+00  0.68102036092E+03  0.68102036092E+03  0.00000000000E+00 0.  1.
         21   -1    0    0  501  503 -0.00000000000E+00 -0.00000000000E+00 -0.76068549335E+02  0.76068549335E+02  0.00000000000E+00 0.  1.
          6    1    1    2  501    0  0.87810091251E+02 -0.74631490910E+02  0.14828770717E+03  0.25534039175E+03  0.17300000000E+03 0.  1.
         -6    1    1    2    0  502 -0.87810091251E+02  0.74631490910E+02  0.45666410442E+03  0.50174851851E+03  0.17300000000E+03 0.  1.
<mgrwt>
<rscale>  2 0.20786888E+03</rscale>
<asrwt>0</asrwt>
<pdfrwt beam="1">  1       21 0.10477236E+00 0.20786888E+03</pdfrwt>
<pdfrwt beam="2">  1       21 0.11702854E-01 0.20786888E+03</pdfrwt>
<totfact> 0.44713299E+04</totfact>
</mgrwt>
</event>
<event>
 4    1  0.4067306E+000  0.2177484E+03  0.7546771E-02  0.1135573E+00
         21   -1    0    0  501  502  0.00000000000E+00  0.00000000000E+00  0.98309054360E+03  0.98309054360E+03  0.00000000000E+00 0. -1.
         21   -1    0    0  502  503 -0.00000000000E+00 -0.00000000000E+00 -0.49097574881E+02  0.49097574881E+02  0.00000000000E+00 0. -1.
          6    1    1    2  501    0 -0.12855421748E+03 -0.30970396351E+02  0.53560514837E+03  0.57817577538E+03  0.17300000000E+03 0. -1.
         -6    1    1    2    0  503  0.12855421748E+03  0.30970396351E+02  0.39838782034E+03  0.45401234309E+03  0.17300000000E+03 0. -1.
<mgrwt>
<rscale>  2 0.21774837E+03</rscale>
<asrwt>0</asrwt>
<pdfrwt beam="1">  1       21 0.15124469E+00 0.21774837E+03</pdfrwt>
<pdfrwt beam="2">  1       21 0.75534738E-02 0.21774837E+03</pdfrwt>
<totfact> 0.38214030E+04</totfact>
</mgrwt>
</event>
<event>
 4    1  0.4067306E+000  0.2076618E+03  0.7546771E-02  0.1143431E+00
         21   -1    0    0  503  502  0.00000000000E+00  0.00000000000E+00  0.66557720323E+03  0.66557720323E+03  0.00000000000E+00 0.  1.
         21   -1    0    0  501  503 -0.00000000000E+00 -0.00000000000E+00 -0.65567494874E+02  0.65567494874E+02  0.00000000000E+00 0.  1.
          6    1    1    2  501    0 -0.10253826345E+03  0.51771717748E+02  0.26022153575E+03  0.33292439667E+03  0.17300000000E+03 0.  1.
         -6    1    1    2    0  502  0.10253826345E+03 -0.51771717748E+02  0.33978817260E+03  0.39822030143E+03  0.17300000000E+03 0.  1.
<mgrwt>
<rscale>  2 0.20766176E+03</rscale>
<asrwt>0</asrwt>
<pdfrwt beam="1">  1       21 0.10239649E+00 0.20766176E+03</pdfrwt>
<pdfrwt beam="2">  1       21 0.10087307E-01 0.20766176E+03</pdfrwt>
<totfact> 0.61548173E+04</totfact>
</mgrwt>
</event>
<event>
 4    1  0.4067306E+000  0.2231082E+03  0.7546771E-02  0.1131587E+00
         21   -1    0    0  501  502  0.00000000000E+00  0.00000000000E+00  0.90781371214E+03  0.90781371214E+03  0.00000000000E+00 0. -1.
         21   -1    0    0  502  503 -0.00000000000E+00 -0.00000000000E+00 -0.30572273355E+03  0.30572273355E+03  0.00000000000E+00 0. -1.
          6    1    1    2  501    0 -0.11790591079E+03 -0.77113248256E+02  0.85071450529E+03  0.87948418199E+03  0.17300000000E+03 0. -1.
         -6    1    1    2    0  503  0.11790591079E+03  0.77113248256E+02 -0.24862352670E+03  0.33405226370E+03  0.17300000000E+03 0. -1.
<mgrwt>
<rscale>  2 0.22310817E+03</rscale>
<asrwt>0</asrwt>
<pdfrwt beam="1">  1       21 0.13966365E+00 0.22310817E+03</pdfrwt>
<pdfrwt beam="2">  1       21 0.47034267E-01 0.22310817E+03</pdfrwt>
<totfact> 0.15140235E+03</totfact>
</mgrwt>
</event>
<event>
 4    1  0.4067306E+000  0.2431118E+03  0.7546771E-02  0.1117737E+00
         21   -1    0    0  501  502  0.00000000000E+00  0.00000000000E+00  0.10786668382E+03  0.10786668382E+03  0.00000000000E+00 0.  1.
         21   -1    0    0  502  503 -0.00000000000E+00 -0.00000000000E+00 -0.12840797398E+04  0.12840797398E+04  0.00000000000E+00 0. -1.
          6    1    1    2  501    0  0.13160598681E+03 -0.10887697212E+03 -0.61143949017E+02  0.25068289396E+03  0.17300000000E+03 0.  1.
         -6    1    1    2    0  503 -0.13160598681E+03  0.10887697212E+03 -0.11150691070E+04  0.11412635296E+04  0.17300000000E+03 0. -1.
<mgrwt>
<rscale>  2 0.24311177E+03</rscale>
<asrwt>0</asrwt>
<pdfrwt beam="1">  1       21 0.16594874E-01 0.24311177E+03</pdfrwt>
<pdfrwt beam="2">  1       21 0.19755074E+00 0.24311177E+03</pdfrwt>
<totfact> 0.43493352E+03</totfact>
</mgrwt>
</event>
<event>
 4    1  0.4067306E+000  0.2137202E+03  0.7546771E-02  0.1138653E+00
         21   -1    0    0  501  502  0.00000000000E+00  0.00000000000E+00  0.58500917006E+03  0.58500917006E+03  0.00000000000E+00 0. -1.
         21   -1    0    0  502  503 -0.00000000000E+00 -0.00000000000E+00 -0.11039996636E+03  0.11039996636E+03  0.00000000000E+00 0. -1.
          6    1    1    2  501    0  0.53840262527E+02 -0.11335153354E+03  0.42544187081E+03  0.47610621657E+03  0.17300000000E+03 0. -1.
         -6    1    1    2    0  503 -0.53840262527E+02  0.11335153354E+03  0.49167332893E+02  0.21930291984E+03  0.17300000000E+03 0. -1.
<mgrwt>
<rscale>  2 0.21372025E+03</rscale>
<asrwt>0</asrwt>
<pdfrwt beam="1">  1       21 0.90001409E-01 0.21372025E+03</pdfrwt>
<pdfrwt beam="2">  1       21 0.16984611E-01 0.21372025E+03</pdfrwt>
<totfact> 0.32452277E+04</totfact>
</mgrwt>
</event>
<event>
 4    1  0.4067306E+000  0.2152218E+03  0.7546771E-02  0.1137496E+00
         21   -1    0    0  503  502  0.00000000000E+00  0.00000000000E+00  0.34465309414E+03  0.34465309414E+03  0.00000000000E+00 0. -1.
         21   -1    0    0  501  503 -0.00000000000E+00 -0.00000000000E+00 -0.19305903210E+03  0.19305903210E+03  0.00000000000E+00 0.  1.
          6    1    1    2  501    0 -0.82109439970E+02  0.98231606252E+02 -0.72404471886E+02  0.22707447269E+03  0.17300000000E+03 0.  1.
         -6    1    1    2    0  502  0.82109439970E+02 -0.98231606252E+02  0.22399853393E+03  0.31063765354E+03  0.17300000000E+03 0. -1.
<mgrwt>
<rscale>  2 0.21522177E+03</rscale>
<asrwt>0</asrwt>
<pdfrwt beam="1">  1       21 0.53023553E-01 0.21522177E+03</pdfrwt>
<pdfrwt beam="2">  1       21 0.29701389E-01 0.21522177E+03</pdfrwt>
<totfact> 0.36187590E+04</totfact>
</mgrwt>
</event>
<event>
 4    1  0.4067306E+000  0.1882072E+03  0.7546771E-02  0.1160088E+00
         21   -1    0    0  503  502  0.00000000000E+00  0.00000000000E+00  0.42887102027E+03  0.42887102027E+03  0.00000000000E+00 0.  1.
         21   -1    0    0  501  503 -0.00000000000E+00 -0.00000000000E+00 -0.88088960747E+02  0.88088960747E+02  0.00000000000E+00 0.  1.
          6    1    1    2  501    0  0.55443188833E+02 -0.49183469537E+02  0.10583035904E+03  0.21592134160E+03  0.17300000000E+03 0.  1.
         -6    1    1    2    0  502 -0.55443188833E+02  0.49183469537E+02  0.23495170048E+03  0.30103863942E+03  0.17300000000E+03 0.  1.
<mgrwt>
<rscale>  2 0.18820723E+03</rscale>
<asrwt>0</asrwt>
<pdfrwt beam="1">  1       21 0.65980156E-01 0.18820723E+03</pdfrwt>
<pdfrwt beam="2">  1       21 0.13552148E-01 0.18820723E+03</pdfrwt>
<totfact> 0.99651954E+04</totfact>
</mgrwt>
</event>
<event>
 4    1  0.4067306E+000  0.1750996E+03  0.7546771E-02  0.1172632E+00
         21   -1    0    0  503  502  0.00000000000E+00  0.00000000000E+00  0.30078880013E+02  0.30078880013E+02  0.00000000000E+00 0. -1.
         21   -1    0    0  501  503 -0.00000000000E+00 -0.00000000000E+00 -0.15157475522E+04  0.15157475522E+04  0.00000000000E+00 0. -1.
          6    1    1    2  501    0  0.19810794700E+02  0.18395688118E+02 -0.11851651537E+04  0.11980301793E+04  0.17300000000E+03 0. -1.
         -6    1    1    2    0  502 -0.19810794700E+02 -0.18395688118E+02 -0.30050351848E+03  0.34779625292E+03  0.17300000000E+03 0. -1.
<mgrwt>
<rscale>  2 0.17509960E+03</rscale>
<asrwt>0</asrwt>
<pdfrwt beam="1">  1       21 0.46275214E-02 0.17509960E+03</pdfrwt>
<pdfrwt beam="2">  1       21 0.23319186E+00 0.17509960E+03</pdfrwt>
<totfact> 0.26031615E+04</totfact>
</mgrwt>
</event>
<event>
 4    1  0.4067306E+000  0.2316692E+03  0.7546771E-02  0.1125470E+00
         21   -1    0    0  503  502  0.00000000000E+00  0.00000000000E+00  0.67026236662E+03  0.67026236662E+03  0.00000000000E+00 0.  1.
         21   -1    0    0  501  503 -0.00000000000E+00 -0.00000000000E+00 -0.11716555192E+03  0.11716555192E+03  0.00000000000E+00 0. -1.
          6    1    1    2  501    0  0.15363513879E+03 -0.11741078595E+02  0.55025741577E+02  0.23811434445E+03  0.17300000000E+03 0. -1.
         -6    1    1    2    0  502 -0.15363513879E+03  0.11741078595E+02  0.49807107312E+03  0.54931357409E+03  0.17300000000E+03 0.  1.
<mgrwt>
<rscale>  2 0.23166918E+03</rscale>
<asrwt>0</asrwt>
<pdfrwt beam="1">  1       21 0.10311728E+00 0.23166918E+03</pdfrwt>
<pdfrwt beam="2">  1       21 0.18025470E-01 0.23166918E+03</pdfrwt>
<totfact> 0.20883128E+04</totfact>
</mgrwt>
</event>
<event>
 4    1  0.4067306E+000  0.2255051E+03  0.7546771E-02  0.1129844E+00
         21   -1    0    0  501  502  0.00000000000E+00  0.00000000000E+00  0.17784629558E+03  0.17784629558E+03  0.00000000000E+00 0. -1.
         21   -1    0    0  502  503 -0.00000000000E+00 -0.00000000000E+00 -0.43543395593E+03  0.43543395593E+03  0.00000000000E+00 0. -1.
          6    1    1    2  501    0 -0.42559834147E+02  0.13824691230E+03  0.50880636565E+02  0.23117393326E+03  0.17300000000E+03 0. -1.
         -6    1    1    2    0  503  0.42559834147E+02 -0.13824691230E+03 -0.30846829692E+03  0.38210631825E+03  0.17300000000E+03 0. -1.
<mgrwt>
<rscale>  2 0.22550510E+03</rscale>
<asrwt>0</asrwt>
<pdfrwt beam="1">  1       21 0.27360969E-01 0.22550510E+03</pdfrwt>
<pdfrwt beam="2">  1       21 0.66989838E-01 0.22550510E+03</pdfrwt>
<totfact> 0.25530630E+04</totfact>
</mgrwt>
</event>
<event>
 4    1  0.4067306E+000  0.1912703E+03  0.7546771E-02  0.1157321E+00
         21   -1    0    0  501  502  0.00000000000E+00  0.00000000000E+00  0.10156302851E+03  0.10156302851E+03  0.00000000000E+00 0.  1.
         21   -1    0    0  502  503 -0.00000000000E+00 -0.00000000000E+00 -0.41546483745E+03  0.41546483745E+03  0.00000000000E+00 0. -1.
          6    1    1    2  501    0 -0.80685729304E+02 -0.12046923908E+02 -0.25122459021E+03  0.31575007524E+03  0.17300000000E+03 0. -1.
         -6    1    1    2    0  503  0.80685729304E+02  0.12046923908E+02 -0.62677218735E+02  0.20127779072E+03  0.17300000000E+03 0.  1.
<mgrwt>
<rscale>  2 0.19127027E+03</rscale>
<asrwt>0</asrwt>
<pdfrwt beam="1">  1       21 0.15625081E-01 0.19127027E+03</pdfrwt>
<pdfrwt beam="2">  1       21 0.63917667E-01 0.19127027E+03</pdfrwt>
<totfact> 0.82362082E+04</totfact>
</mgrwt>
</event>
<event>
 4    1  0.4067306E+000  0.2029536E+03  0.7546771E-02  0.1147271E+00
         21   -1    0    0  503  502  0.00000000000E+00  0.00000000000E+00  0.75027413324E+02  0.75027413324E+02  0.00000000000E+00 0. -1.
         21   -1    0    0  501  503 -0.00000000000E+00 -0.00000000000E+00 -0.14983399411E+04  0.14983399411E+04  0.00000000000E+00 0.  1.
          6    1    1    2  501    0  0.28689032337E+02  0.10216694259E+03 -0.13378454283E+04  0.13531520738E+04  0.17300000000E+03 0.  1.
         -6    1    1    2    0  502 -0.28689032337E+02 -0.10216694259E+03 -0.85467099462E+02  0.22021528064E+03  0.17300000000E+03 0. -1.
<mgrwt>
<rscale>  2 0.20295355E+03</rscale>
<asrwt>0</asrwt>
<pdfrwt beam="1">  1       21 0.11542679E-01 0.20295355E+03</pdfrwt>
<pdfrwt beam="2">  1       21 0.23051385E+00 0.20295355E+03</pdfrwt>
<totfact> 0.54075125E+03</totfact>
</mgrwt>
</event>
<event>
 4    1  0.4067306E+000  0.2235831E+03  0.7546771E-02  0.1131240E+00
         21   -1    0    0  501  502  0.00000000000E+00  0.00000000000E+00  0.16482749747E+03  0.16482749747E+03  0.00000000000E+00 0.  1.
         21   -1    0    0  502  503 -0.00000000000E+00 -0.00000000000E+00 -0.52306627547E+03  0.52306627547E+03  0.00000000000E+00 0.  1.
          6    1    1    2  501    0 -0.67303319787E+02 -0.12462206169E+03  0.43832029627E+02  0.22783907026E+03  0.17300000000E+03 0.  1.
         -6    1    1    2    0  503  0.67303319787E+02  0.12462206169E+03 -0.40207080763E+03  0.46005470268E+03  0.17300000000E+03 0.  1.
<mgrwt>
<rscale>  2 0.22358308E+03</rscale>
<asrwt>0</asrwt>
<pdfrwt beam="1">  1       21 0.25358077E-01 0.22358308E+03</pdfrwt>
<pdfrwt beam="2">  1       21 0.80471734E-01 0.22358308E+03</pdfrwt>
<totfact> 0.19645245E+04</totfact>
</mgrwt>
</event>
<event>
 4    1  0.4067306E+000  0.3308551E+03  0.7546771E-02  0.1070759E+00
         21   -1    0    0  501  502  0.00000000000E+00  0.00000000000E+00  0.76854555993E+03  0.76854555993E+03  0.00000000000E+00 0.  1.
         21   -1    0    0  502  503 -0.00000000000E+00 -0.00000000000E+00 -0.21292501530E+03  0.21292501530E+03  0.00000000000E+00 0. -1.
          6    1    1    2  501    0  0.28188104205E+03  0.88991767125E+01  0.56017370133E+03  0.65058411668E+03  0.17300000000E+03 0.  1.
         -6    1    1    2    0  503 -0.28188104205E+03 -0.88991767125E+01 -0.45531567072E+01  0.33088645854E+03  0.17300000000E+03 0. -1.
<mgrwt>
<rscale>  2 0.33085513E+03</rscale>
<asrwt>0</asrwt>
<pdfrwt beam="1">  1       21 0.11823778E+00 0.33085513E+03</pdfrwt>
<pdfrwt beam="2">  1       21 0.32757695E-01 0.33085513E+03</pdfrwt>
<totfact> 0.45052553E+03</totfact>
</mgrwt>
</event>
<event>
 4    1  0.4067306E+000  0.2187463E+03  0.7546771E-02  0.1134821E+00
         21   -1    0    0  501  502  0.00000000000E+00  0.00000000000E+00  0.44109539092E+03  0.44109539092E+03  0.00000000000E+00 0.  1.
         21   -1    0    0  502  503 -0.00000000000E+00 -0.00000000000E+00 -0.45412239318E+03  0.45412239318E+03  0.00000000000E+00 0. -1.
          6    1    1    2  501    0  0.13318942215E+03 -0.13472184330E+02  0.38399086986E+03  0.44192636271E+03  0.17300000000E+03 0.  1.
         -6    1    1    2    0  503 -0.13318942215E+03  0.13472184330E+02 -0.39701787212E+03  0.45329142139E+03  0.17300000000E+03 0. -1.
<mgrwt>
<rscale>  2 0.21874625E+03</rscale>
<asrwt>0</asrwt>
<pdfrwt beam="1">  1       21 0.67860829E-01 0.21874625E+03</pdfrwt>
<pdfrwt beam="2">  1       21 0.69864984E-01 0.21874625E+03</pdfrwt>
<totfact> 0.36156549E+03</totfact>
</mgrwt>
</event>
<event>
 4    1  0.4067306E+000  0.2020887E+03  0.7546771E-02  0.1147989E+00
         21   -1    0    0  501  502  0.00000000000E+00  0.00000000000E+00  0.35025009367E+03  0.35025009367E+03  0.00000000000E+00 0.  1.
         21   -1    0    0  502  503 -0.00000000000E+00 -0.00000000000E+00 -0.12280141913E+03  0.12280141913E+03  0.00000000000E+00 0. -1.
          6    1    1    2  501    0 -0.55699786210E+02 -0.88365006801E+02  0.16686834810E+03  0.26207801550E+03  0.17300000000E+03 0. -1.
         -6    1    1    2    0  503  0.55699786210E+02  0.88365006801E+02  0.60580326437E+02  0.21097349730E+03  0.17300000000E+03 0. -1.
<mgrwt>
<rscale>  2 0.20208869E+03</rscale>
<asrwt>0</asrwt>
<pdfrwt beam="1">  1       21 0.53884629E-01 0.20208869E+03</pdfrwt>
<pdfrwt beam="2">  1       21 0.18892526E-01 0.20208869E+03</pdfrwt>
<totfact> 0.83264904E+04</totfact>
</mgrwt>
</event>
<event>
 4    1  0.4067306E+000  0.2042293E+03  0.7546771E-02  0.1146219E+00
         21   -1    0    0  503  502  0.00000000000E+00  0.00000000000E+00  0.89514266373E+02  0.89514266373E+02  0.00000000000E+00 0. -1.
         21   -1    0    0  501  503 -0.00000000000E+00 -0.00000000000E+00 -0.49269671601E+03  0.49269671601E+03  0.00000000000E+00 0. -1.
          6    1    1    2  501    0  0.13412540365E+02  0.10770657475E+03 -0.26941106906E+03  0.33807088993E+03  0.17300000000E+03 0. -1.
         -6    1    1    2    0  502 -0.13412540365E+02 -0.10770657475E+03 -0.13377138057E+03  0.24414009245E+03  0.17300000000E+03 0. -1.
<mgrwt>
<rscale>  2 0.20422929E+03</rscale>
<asrwt>0</asrwt>
<pdfrwt beam="1">  1       21 0.13771426E-01 0.20422929E+03</pdfrwt>
<pdfrwt beam="2">  1       21 0.75799493E-01 0.20422929E+03</pdfrwt>
<totfact> 0.70752015E+04</totfact>
</mgrwt>
</event>
<event>
 4    1  0.4067306E+000  0.1870057E+03  0.7546771E-02  0.1161190E+00
         21   -1    0    0  503  502  0.00000000000E+00  0.00000000000E+00  0.49084514966E+02  0.49084514966E+02  0.00000000000E+00 0. -1.
         21   -1    0    0  501  503 -0.00000000000E+00 -0.00000000000E+00 -0.71282222458E+03  0.71282222458E+03  0.00000000000E+00 0.  1.
          6    1    1    2  501    0  0.27419231941E+02 -0.65500373693E+02 -0.34036911034E+03  0.38835839698E+03  0.17300000000E+03 0.  1.
         -6    1    1    2    0  502 -0.27419231941E+02  0.65500373693E+02 -0.32336859928E+03  0.37354834257E+03  0.17300000000E+03 0. -1.
<mgrwt>
<rscale>  2 0.18700565E+03</rscale>
<asrwt>0</asrwt>
<pdfrwt beam="1">  1       21 0.75514641E-02 0.18700565E+03</pdfrwt>
<pdfrwt beam="2">  1       21 0.10966495E+00 0.18700565E+03</pdfrwt>
<totfact> 0.87496969E+04</totfact>
</mgrwt>
</event>
<event>
 4    1  0.4067306E+000  0.2136003E+03  0.7546771E-02  0.1138746E+00
         21   -1    0    0  501  502  0.00000000000E+00  0.00000000000E+00  0.14249965192E+04  0.14249965192E+04  0.00000000000E+00 0. -1.
         21   -1    0    0  502  503 -0.00000000000E+00 -0.00000000000E+00 -0.36034878393E+02  0.36034878393E+02  0.00000000000E+00 0.  1.
          6    1    1    2  501    0 -0.62233869661E+02 -0.10873377899E+03  0.93839071029E+03  0.96239400164E+03  0.17300000000E+03 0. -1.
         -6    1    1    2    0  503  0.62233869661E+02  0.10873377899E+03  0.45057093056E+03  0.49863739601E+03  0.17300000000E+03 0.  1.
<mgrwt>
<rscale>  2 0.21360030E+03</rscale>
<asrwt>0</asrwt>
<pdfrwt beam="1">  1       21 0.21923019E+00 0.21360030E+03</pdfrwt>
<pdfrwt beam="2">  1       21 0.55438285E-02 0.21360030E+03</pdfrwt>
<totfact> 0.22586744E+04</totfact>
</mgrwt>
</event>
<event>
 4    1  0.4067306E+000  0.2048906E+03  0.7546771E-02  0.1145677E+00
         21   -1    0    0  503  502  0.00000000000E+00  0.00000000000E+00  0.10929494541E+03  0.10929494541E+03  0.00000000000E+00 0. -1.
         21   -1    0    0  501  503 -0.00000000000E+00 -0.00000000000E+00 -0.95650179087E+03  0.95650179087E+03  0.00000000000E+00 0.  1.
          6    1    1    2  501    0  0.10829265060E+03  0.17996416792E+02 -0.83584525110E+03  0.86059133913E+03  0.17300000000E+03 0.  1.
         -6    1    1    2    0  502 -0.10829265060E+03 -0.17996416792E+02 -0.11361594361E+02  0.20520539715E+03  0.17300000000E+03 0. -1.
<mgrwt>
<rscale>  2 0.20489063E+03</rscale>
<asrwt>0</asrwt>
<pdfrwt beam="1">  1       21 0.16814608E-01 0.20489063E+03</pdfrwt>
<pdfrwt beam="2">  1       21 0.14715411E+00 0.20489063E+03</pdfrwt>
<totfact> 0.99140410E+03</totfact>
</mgrwt>
</event>
<event>
 4    1  0.4067306E+000  0.2043817E+03  0.7546771E-02  0.1146094E+00
         21   -1    0    0  501  502  0.00000000000E+00  0.00000000000E+00  0.77007194772E+02  0.77007194772E+02  0.00000000000E+00 0. -1.
         21   -1    0    0  502  503 -0.00000000000E+00 -0.00000000000E+00 -0.62229297985E+03  0.62229297985E+03  0.00000000000E+00 0.  1.
          6    1    1    2  501    0 -0.20103205967E+02  0.10695200451E+03 -0.14739262377E+03  0.25198503071E+03  0.17300000000E+03 0.  1.
         -6    1    1    2    0  503  0.20103205967E+02 -0.10695200451E+03 -0.39789316131E+03  0.44731514392E+03  0.17300000000E+03 0. -1.
<mgrwt>
<rscale>  2 0.20438168E+03</rscale>
<asrwt>0</asrwt>
<pdfrwt beam="1">  1       21 0.11847261E-01 0.20438168E+03</pdfrwt>
<pdfrwt beam="2">  1       21 0.95737381E-01 0.20438168E+03</pdfrwt>
<totfact> 0.54301695E+04</totfact>
</mgrwt>
</event>
<event>
 4    1  0.4067306E+000  0.2080866E+03  0.7546771E-02  0.1143090E+00
         21   -1    0    0  503  502  0.00000000000E+00  0.00000000000E+00  0.57516206590E+02  0.57516206590E+02  0.00000000000E+00 0. -1.
         21   -1    0    0  501  503 -0.00000000000E+00 -0.00000000000E+00 -0.10365753328E+04  0.10365753328E+04  0.00000000000E+00 0. -1.
          6    1    1    2  501    0  0.98202005763E+02 -0.61052498625E+02 -0.77574038632E+03  0.80316448409E+03  0.17300000000E+03 0. -1.
         -6    1    1    2    0  502 -0.98202005763E+02  0.61052498625E+02 -0.20331873992E+03  0.29092705533E+03  0.17300000000E+03 0. -1.
<mgrwt>
<rscale>  2 0.20808662E+03</rscale>
<asrwt>0</asrwt>
<pdfrwt beam="1">  1       21 0.88486475E-02 0.20808662E+03</pdfrwt>
<pdfrwt beam="2">  1       21 0.15947312E+00 0.20808662E+03</pdfrwt>
<totfact> 0.25297501E+04</totfact>
</mgrwt>
</event>
<event>
 4    1  0.4067306E+000  0.2599823E+03  0.7546771E-02  0.1107154E+00
         21   -1    0    0  501  502  0.00000000000E+00  0.00000000000E+00  0.79287678874E+03  0.79287678874E+03  0.00000000000E+00 0. -1.
         21   -1    0    0  502  503 -0.00000000000E+00 -0.00000000000E+00 -0.25195214307E+03  0.25195214307E+03  0.00000000000E+00 0.  1.
          6    1    1    2  501    0  0.39392072889E+02  0.19002647211E+03  0.69540462088E+03  0.74241388878E+03  0.17300000000E+03 0. -1.
         -6    1    1    2    0  503 -0.39392072889E+02 -0.19002647211E+03 -0.15447997521E+03  0.30241504303E+03  0.17300000000E+03 0. -1.
<mgrwt>
<rscale>  2 0.25998230E+03</rscale>
<asrwt>0</asrwt>
<pdfrwt beam="1">  1       21 0.12198104E+00 0.25998230E+03</pdfrwt>
<pdfrwt beam="2">  1       21 0.38761868E-01 0.25998230E+03</pdfrwt>
<totfact> 0.30908410E+03</totfact>
</mgrwt>
</event>
<event>
 4    1  0.4067306E+000  0.1880967E+03  0.7546771E-02  0.1160189E+00
         21   -1    0    0  501  502  0.00000000000E+00  0.00000000000E+00  0.44805770831E+02  0.44805770831E+02  0.00000000000E+00 0.  1.
         21   -1    0    0  502  503 -0.00000000000E+00 -0.00000000000E+00 -0.78963886791E+03  0.78963886791E+03  0.00000000000E+00 0. -1.
          6    1    1    2  501    0  0.34513859087E+02 -0.65269973166E+02 -0.37231043601E+03  0.41712760233E+03  0.17300000000E+03 0. -1.
         -6    1    1    2    0  503 -0.34513859087E+02  0.65269973166E+02 -0.37252266108E+03  0.41731703641E+03  0.17300000000E+03 0. -1.
<mgrwt>
<rscale>  2 0.18809672E+03</rscale>
<asrwt>0</asrwt>
<pdfrwt beam="1">  1       21 0.68931960E-02 0.18809672E+03</pdfrwt>
<pdfrwt beam="2">  1       21 0.12148289E+00 0.18809672E+03</pdfrwt>
<totfact> 0.79735016E+04</totfact>
</mgrwt>
</event>
<event>
 4    1  0.4067306E+000  0.1847253E+03  0.7546771E-02  0.1163307E+00
         21   -1    0    0  501  502  0.00000000000E+00  0.00000000000E+00  0.70086336584E+03  0.70086336584E+03  0.00000000000E+00 0. -1.
         21   -1    0    0  502  503 -0.00000000000E+00 -0.00000000000E+00 -0.49363852778E+02  0.49363852778E+02  0.00000000000E+00 0. -1.
          6    1    1    2  501    0  0.24765835766E+02  0.59842114253E+02  0.36965139533E+03  0.41323792097E+03  0.17300000000E+03 0. -1.
         -6    1    1    2    0  503 -0.24765835766E+02 -0.59842114253E+02  0.28184811773E+03  0.33698929765E+03  0.17300000000E+03 0. -1.
<mgrwt>
<rscale>  2 0.18472527E+03</rscale>
<asrwt>0</asrwt>
<pdfrwt beam="1">  1       21 0.10782513E+00 0.18472527E+03</pdfrwt>
<pdfrwt beam="2">  1       21 0.75944394E-02 0.18472527E+03</pdfrwt>
<totfact> 0.90339150E+04</totfact>
</mgrwt>
</event>
<event>
 4    1  0.4067306E+000  0.1855672E+03  0.7546771E-02  0.1162521E+00
         21   -1    0    0  503  502  0.00000000000E+00  0.00000000000E+00  0.33146031367E+03  0.33146031367E+03  0.00000000000E+00 0. -1.
         21   -1    0    0  501  503 -0.00000000000E+00 -0.00000000000E+00 -0.17710035363E+03  0.17710035363E+03  0.00000000000E+00 0. -1.
          6    1    1    2  501    0  0.65268054811E+02  0.15692558650E+02 -0.86310108158E+02  0.20465729927E+03  0.17300000000E+03 0. -1.
         -6    1    1    2    0  502 -0.65268054811E+02 -0.15692558650E+02  0.24067006819E+03  0.30390336803E+03  0.17300000000E+03 0. -1.
<mgrwt>
<rscale>  2 0.18556717E+03</rscale>
<asrwt>0</asrwt>
<pdfrwt beam="1">  1       21 0.50993894E-01 0.18556717E+03</pdfrwt>
<pdfrwt beam="2">  1       21 0.27246208E-01 0.18556717E+03</pdfrwt>
<totfact> 0.47124580E+04</totfact>
</mgrwt>
</event>
<event>
 4    1  0.4067306E+000  0.1971615E+03  0.7546771E-02  0.1152156E+00
         21   -1    0    0  501  502  0.00000000000E+00  0.00000000000E+00  0.24613853823E+03  0.24613853823E+03  0.00000000000E+00 0. -1.
         21   -1    0    0  502  503 -0.00000000000E+00 -0.00000000000E+00 -0.19982385441E+03  0.19982385441E+03  0.00000000000E+00 0.  1.
          6    1    1    2  501    0 -0.54465286904E+01  0.94414041918E+02  0.12525584725E+03  0.23358446707E+03  0.17300000000E+03 0. -1.
         -6    1    1    2    0  503  0.54465286904E+01 -0.94414041918E+02 -0.78941163433E+02  0.21237792557E+03  0.17300000000E+03 0.  1.
<mgrwt>
<rscale>  2 0.19716155E+03</rscale>
<asrwt>0</asrwt>
<pdfrwt beam="1">  1       21 0.37867467E-01 0.19716155E+03</pdfrwt>
<pdfrwt beam="2">  1       21 0.30742132E-01 0.19716155E+03</pdfrwt>
<totfact> 0.68194001E+04</totfact>
</mgrwt>
</event>
<event>
 4    1  0.4067306E+000  0.2454494E+03  0.7546771E-02  0.1116215E+00
         21   -1    0    0  501  502  0.00000000000E+00  0.00000000000E+00  0.10332030830E+04  0.10332030830E+04  0.00000000000E+00 0. -1.
         21   -1    0    0  502  503 -0.00000000000E+00 -0.00000000000E+00 -0.58903379204E+02  0.58903379204E+02  0.00000000000E+00 0. -1.
          6    1    1    2  501    0  0.82161228281E+02 -0.15351194837E+03  0.54198687780E+03  0.59497492504E+03  0.17300000000E+03 0. -1.
         -6    1    1    2    0  503 -0.82161228281E+02  0.15351194837E+03  0.43231282604E+03  0.49713153721E+03  0.17300000000E+03 0. -1.
<mgrwt>
<rscale>  2 0.24544935E+03</rscale>
<asrwt>0</asrwt>
<pdfrwt beam="1">  1       21 0.15895431E+00 0.24544935E+03</pdfrwt>
<pdfrwt beam="2">  1       21 0.90620591E-02 0.24544935E+03</pdfrwt>
<totfact> 0.23940184E+04</totfact>
</mgrwt>
</event>
<event>
 4    1  0.4067306E+000  0.1780763E+03  0.7546771E-02  0.1169678E+00
         21   -1    0    0  501  502  0.00000000000E+00  0.00000000000E+00  0.11642054949E+04  0.11642054949E+04  0.00000000000E+00 0.  1.
         21   -1    0    0  502  503 -0.00000000000E+00 -0.00000000000E+00 -0.65476504904E+02  0.65476504904E+02  0.00000000000E+00 0.  1.
          6    1    1    2  501    0 -0.29448639907E+02  0.30247795707E+02  0.10192239600E+04  0.10346635357E+04  0.17300000000E+03 0.  1.
         -6    1    1    2    0  503  0.29448639907E+02 -0.30247795707E+02  0.79505030012E+02  0.19501846409E+03  0.17300000000E+03 0.  1.
<mgrwt>
<rscale>  2 0.17807625E+03</rscale>
<asrwt>0</asrwt>
<pdfrwt beam="1">  1       21 0.17910852E+00 0.17807625E+03</pdfrwt>
<pdfrwt beam="2">  1       21 0.10073309E-01 0.17807625E+03</pdfrwt>
<totfact> 0.14947855E+04</totfact>
</mgrwt>
</event>
<event>
 4    1  0.4067306E+000  0.2298150E+03  0.7546771E-02  0.1126770E+00
         21   -1    0    0  503  502  0.00000000000E+00  0.00000000000E+00  0.46322904933E+03  0.46322904933E+03  0.00000000000E+00 0.  1.
         21   -1    0    0  501  503 -0.00000000000E+00 -0.00000000000E+00 -0.11634868061E+03  0.11634868061E+03  0.00000000000E+00 0. -1.
          6    1    1    2  501    0  0.61930259453E+02  0.13802378029E+03  0.21448417787E+03  0.31435391443E+03  0.17300000000E+03 0. -1.
         -6    1    1    2    0  502 -0.61930259453E+02 -0.13802378029E+03  0.13239619085E+03  0.26522381551E+03  0.17300000000E+03 0. -1.
<mgrwt>
<rscale>  2 0.22981497E+03</rscale>
<asrwt>0</asrwt>
<pdfrwt beam="1">  1       21 0.71266007E-01 0.22981497E+03</pdfrwt>
<pdfrwt beam="2">  1       21 0.17899797E-01 0.22981497E+03</pdfrwt>
<totfact> 0.49642325E+04</totfact>
</mgrwt>
</event>
<event>
 4    1  0.4067306E+000  0.1737806E+03  0.7546771E-02  0.1173962E+00
         21   -1    0    0  501  502  0.00000000000E+00  0.00000000000E+00  0.15137539709E+03  0.15137539709E+03  0.00000000000E+00 0. -1.
         21   -1    0    0  502  503 -0.00000000000E+00 -0.00000000000E+00 -0.20721758166E+03  0.20721758166E+03  0.00000000000E+00 0. -1.
          6    1    1    2  501    0  0.16390552425E+02 -0.14287361224E+01  0.66763007246E+01  0.17390878209E+03  0.17300000000E+03 0. -1.
         -6    1    1    2    0  503 -0.16390552425E+02  0.14287361224E+01 -0.62518485292E+02  0.18468419667E+03  0.17300000000E+03 0. -1.
<mgrwt>
<rscale>  2 0.17378058E+03</rscale>
<asrwt>0</asrwt>
<pdfrwt beam="1">  1       21 0.23288523E-01 0.17378058E+03</pdfrwt>
<pdfrwt beam="2">  1       21 0.31879628E-01 0.17378058E+03</pdfrwt>
<totfact> 0.16498477E+05</totfact>
</mgrwt>
</event>
<event>
 4    1  0.4067306E+000  0.1765433E+03  0.7546771E-02  0.1171191E+00
         21   -1    0    0  503  502  0.00000000000E+00  0.00000000000E+00  0.34902492188E+03  0.34902492188E+03  0.00000000000E+00 0.  1.
         21   -1    0    0  501  503 -0.00000000000E+00 -0.00000000000E+00 -0.48348903575E+03  0.48348903575E+03  0.00000000000E+00 0.  1.
          6    1    1    2  501    0  0.98094024517E+01  0.33797899573E+02 -0.44308773826E+03  0.47696359000E+03  0.17300000000E+03 0.  1.
         -6    1    1    2    0  502 -0.98094024517E+01 -0.33797899573E+02  0.30862362439E+03  0.35555036763E+03  0.17300000000E+03 0.  1.
<mgrwt>
<rscale>  2 0.17654326E+03</rscale>
<asrwt>0</asrwt>
<pdfrwt beam="1">  1       21 0.53696142E-01 0.17654326E+03</pdfrwt>
<pdfrwt beam="2">  1       21 0.74382928E-01 0.17654326E+03</pdfrwt>
<totfact> 0.53820617E+03</totfact>
</mgrwt>
</event>
<event>
 4    1  0.4067306E+000  0.2005930E+03  0.7546771E-02  0.1149240E+00
         21   -1    0    0  501  502  0.00000000000E+00  0.00000000000E+00  0.12976006894E+04  0.12976006894E+04  0.00000000000E+00 0. -1.
         21   -1    0    0  502  503 -0.00000000000E+00 -0.00000000000E+00 -0.31075552587E+02  0.31075552587E+02  0.00000000000E+00 0. -1.
          6    1    1    2  501    0 -0.63671816784E+01  0.10133117451E+03  0.60256264123E+03  0.63507423545E+03  0.17300000000E+03 0. -1.
         -6    1    1    2    0  503  0.63671816784E+01 -0.10133117451E+03  0.66396249562E+03  0.69360200657E+03  0.17300000000E+03 0. -1.
<mgrwt>
<rscale>  2 0.20059299E+03</rscale>
<asrwt>0</asrwt>
<pdfrwt beam="1">  1       21 0.19963083E+00 0.20059299E+03</pdfrwt>
<pdfrwt beam="2">  1       21 0.47808553E-02 0.20059299E+03</pdfrwt>
<totfact> 0.38966349E+04</totfact>
</mgrwt>
</event>
<event>
 4    1  0.4067306E+000  0.1738964E+03  0.7546771E-02  0.1173844E+00
         21   -1    0    0  503  502  0.00000000000E+00  0.00000000000E+00  0.64786389405E+02  0.64786389405E+02  0.00000000000E+00 0. -1.
         21   -1    0    0  501  503 -0.00000000000E+00 -0.00000000000E+00 -0.90490731630E+03  0.90490731630E+03  0.00000000000E+00 0. -1.
          6    1    1    2  501    0 -0.11697955953E+02 -0.13194878729E+02 -0.75743374255E+03  0.77713951216E+03  0.17300000000E+03 0. -1.
         -6    1    1    2    0  502  0.11697955953E+02  0.13194878729E+02 -0.82687184340E+02  0.19255419355E+03  0.17300000000E+03 0. -1.
<mgrwt>
<rscale>  2 0.17389637E+03</rscale>
<asrwt>0</asrwt>
<pdfrwt beam="1">  1       21 0.99671364E-02 0.17389637E+03</pdfrwt>
<pdfrwt beam="2">  1       21 0.13921652E+00 0.17389637E+03</pdfrwt>
<totfact> 0.29977303E+04</totfact>
</mgrwt>
</event>
<event>
 4    1  0.4067306E+000  0.1785396E+03  0.7546771E-02  0.1169224E+00
         21   -1    0    0  501  502  0.00000000000E+00  0.00000000000E+00  0.12005274815E+03  0.12005274815E+03  0.00000000000E+00 0. -1.
         21   -1    0    0  502  503 -0.00000000000E+00 -0.00000000000E+00 -0.65321909688E+03  0.65321909688E+03  0.00000000000E+00 0. -1.
          6    1    1    2  501    0  0.13433810569E+02 -0.42034873556E+02  0.31282320454E+02  0.18125943130E+03  0.17300000000E+03 0. -1.
         -6    1    1    2    0  503 -0.13433810569E+02  0.42034873556E+02 -0.56444866918E+03  0.59201241373E+03  0.17300000000E+03 0. -1.
<mgrwt>
<rscale>  2 0.17853963E+03</rscale>
<asrwt>0</asrwt>
<pdfrwt beam="1">  1       21 0.18469654E-01 0.17853963E+03</pdfrwt>
<pdfrwt beam="2">  1       21 0.10049524E+00 0.17853963E+03</pdfrwt>
<totfact> 0.21907041E+04</totfact>
</mgrwt>
</event>
<event>
 4    1  0.4067306E+000  0.2626685E+03  0.7546771E-02  0.1105550E+00
         21   -1    0    0  501  502  0.00000000000E+00  0.00000000000E+00  0.78021023621E+02  0.78021023621E+02  0.00000000000E+00 0.  1.
         21   -1    0    0  502  503 -0.00000000000E+00 -0.00000000000E+00 -0.16732750752E+04  0.16732750752E+04  0.00000000000E+00 0. -1.
          6    1    1    2  501    0  0.19603459751E+03 -0.25222858265E+02 -0.19634965777E+03  0.32794503214E+03  0.17300000000E+03 0.  1.
         -6    1    1    2    0  503 -0.19603459751E+03  0.25222858265E+02 -0.13989043938E+04  0.14233510667E+04  0.17300000000E+03 0. -1.
<mgrwt>
<rscale>  2 0.26266853E+03</rscale>
<asrwt>0</asrwt>
<pdfrwt beam="1">  1       21 0.12003234E-01 0.26266853E+03</pdfrwt>
<pdfrwt beam="2">  1       21 0.25742694E+00 0.26266853E+03</pdfrwt>
<totfact> 0.33006362E+03</totfact>
</mgrwt>
</event>
<event>
 4    1  0.4067306E+000  0.1783140E+03  0.7546771E-02  0.1169445E+00
         21   -1    0    0  501  502  0.00000000000E+00  0.00000000000E+00  0.40657163334E+02  0.40657163334E+02  0.00000000000E+00 0.  1.
         21   -1    0    0  502  503 -0.00000000000E+00 -0.00000000000E+00 -0.10003573385E+04  0.10003573385E+04  0.00000000000E+00 0.  1.
          6    1    1    2  501    0  0.23458402034E+02 -0.36284945991E+02 -0.72300573720E+03  0.74466985300E+03  0.17300000000E+03 0.  1.
         -6    1    1    2    0  503 -0.23458402034E+02  0.36284945991E+02 -0.23669443796E+03  0.29634464883E+03  0.17300000000E+03 0.  1.
<mgrwt>
<rscale>  2 0.17831403E+03</rscale>
<asrwt>0</asrwt>
<pdfrwt beam="1">  1       21 0.62549485E-02 0.17831403E+03</pdfrwt>
<pdfrwt beam="2">  1       21 0.15390112E+00 0.17831403E+03</pdfrwt>
<totfact> 0.51699410E+04</totfact>
</mgrwt>
</event>
<event>
 4    1  0.4067306E+000  0.3261666E+03  0.7546771E-02  0.1072846E+00
         21   -1    0    0  501  502  0.00000000000E+00  0.00000000000E+00  0.69208045444E+03  0.69208045444E+03  0.00000000000E+00 0.  1.
         21   -1    0    0  502  503 -0.00000000000E+00 -0.00000000000E+00 -0.18240255347E+03  0.18240255347E+03  0.00000000000E+00 0.  1.
          6    1    1    2  501    0  0.27341285443E+03 -0.41243553777E+02  0.81443949841E+02  0.33618110693E+03  0.17300000000E+03 0.  1.
         -6    1    1    2    0  503 -0.27341285443E+03  0.41243553777E+02  0.42823395113E+03  0.53830190098E+03  0.17300000000E+03 0.  1.
<mgrwt>
<rscale>  2 0.32616655E+03</rscale>
<asrwt>0</asrwt>
<pdfrwt beam="1">  1       21 0.10647391E+00 0.32616655E+03</pdfrwt>
<pdfrwt beam="2">  1       21 0.28061932E-01 0.32616655E+03</pdfrwt>
<totfact> 0.79391679E+03</totfact>
</mgrwt>
</event>
<event>
 4    1  0.4067306E+000  0.1763075E+03  0.7546771E-02  0.1171425E+00
         21   -1    0    0  503  502  0.00000000000E+00  0.00000000000E+00  0.71013289286E+02  0.71013289286E+02  0.00000000000E+00 0.  1.
         21   -1    0    0  501  503 -0.00000000000E+00 -0.00000000000E+00 -0.70222959035E+03  0.70222959035E+03  0.00000000000E+00 0.  1.
          6    1    1    2  501    0 -0.33844076139E+02 -0.31485147741E+01 -0.55288888907E+03  0.58031927273E+03  0.17300000000E+03 0.  1.
         -6    1    1    2    0  502  0.33844076139E+02  0.31485147741E+01 -0.78327411993E+02  0.19292360691E+03  0.17300000000E+03 0.  1.
<mgrwt>
<rscale>  2 0.17630750E+03</rscale>
<asrwt>0</asrwt>
<pdfrwt beam="1">  1       21 0.10925122E-01 0.17630750E+03</pdfrwt>
<pdfrwt beam="2">  1       21 0.10803532E+00 0.17630750E+03</pdfrwt>
<totfact> 0.47724633E+04</totfact>
</mgrwt>
</event>
<event>
 4    1  0.4067306E+000  0.2367833E+03  0.7546771E-02  0.1121954E+00
         21   -1    0    0  503  502  0.00000000000E+00  0.00000000000E+00  0.11529765365E+04  0.11529765365E+04  0.00000000000E+00 0. -1.
         21   -1    0    0  501  503 -0.00000000000E+00 -0.00000000000E+00 -0.17908391157E+03  0.17908391157E+03  0.00000000000E+00 0.  1.
          6    1    1    2  501    0  0.33655685590E+02 -0.15812846634E+03  0.10554043839E+04  0.10816398341E+04  0.17300000000E+03 0. -1.
         -6    1    1    2    0  502 -0.33655685590E+02  0.15812846634E+03 -0.81511759032E+02  0.25042061397E+03  0.17300000000E+03 0.  1.
<mgrwt>
<rscale>  2 0.23678327E+03</rscale>
<asrwt>0</asrwt>
<pdfrwt beam="1">  1       21 0.17738100E+00 0.23678327E+03</pdfrwt>
<pdfrwt beam="2">  1       21 0.27551372E-01 0.23678327E+03</pdfrwt>
<totfact> 0.22900760E+03</totfact>
</mgrwt>
</event>
<event>
 4    1  0.4067306E+000  0.2795048E+03  0.7546771E-02  0.1095960E+00
         21   -1    0    0  501  502  0.00000000000E+00  0.00000000000E+00  0.16372273394E+03  0.16372273394E+03  0.00000000000E+00 0. -1.
         21   -1    0    0  502  503 -0.00000000000E+00 -0.00000000000E+00 -0.49200274237E+03  0.49200274237E+03  0.00000000000E+00 0. -1.
          6    1    1    2  501    0 -0.15042040646E+02  0.21901526139E+03 -0.10720553382E+03  0.29935927277E+03  0.17300000000E+03 0. -1.
         -6    1    1    2    0  503  0.15042040646E+02 -0.21901526139E+03 -0.22107447460E+03  0.35636620354E+03  0.17300000000E+03 0. -1.
<mgrwt>
<rscale>  2 0.27950483E+03</rscale>
<asrwt>0</asrwt>
<pdfrwt beam="1">  1       21 0.25188113E-01 0.27950483E+03</pdfrwt>
<pdfrwt beam="2">  1       21 0.75692730E-01 0.27950483E+03</pdfrwt>
<totfact> 0.22253354E+04</totfact>
</mgrwt>
</event>
<event>
 4    1  0.4067306E+000  0.2110967E+03  0.7546771E-02  0.1140700E+00
         21   -1    0    0  501  502  0.00000000000E+00  0.00000000000E+00  0.70069588294E+02  0.70069588294E+02  0.00000000000E+00 0.  1.
         21   -1    0    0  502  503 -0.00000000000E+00 -0.00000000000E+00 -0.64509689626E+03  0.64509689626E+03  0.00000000000E+00 0.  1.
          6    1    1    2  501    0  0.11578136904E+03 -0.35035631050E+02 -0.24496948667E+03  0.32337574160E+03  0.17300000000E+03 0.  1.
         -6    1    1    2    0  503 -0.11578136904E+03  0.35035631050E+02 -0.33005782130E+03  0.39179074295E+03  0.17300000000E+03 0.  1.
<mgrwt>
<rscale>  2 0.21109671E+03</rscale>
<asrwt>0</asrwt>
<pdfrwt beam="1">  1       21 0.10779937E-01 0.21109671E+03</pdfrwt>
<pdfrwt beam="2">  1       21 0.99245673E-01 0.21109671E+03</pdfrwt>
<totfact> 0.58842987E+04</totfact>
</mgrwt>
</event>
<event>
 4    1  0.4067306E+000  0.2119106E+03  0.7546771E-02  0.1140062E+00
         21   -1    0    0  503  502  0.00000000000E+00  0.00000000000E+00  0.44773999251E+02  0.44773999251E+02  0.00000000000E+00 0. -1.
         21   -1    0    0  501  503 -0.00000000000E+00 -0.00000000000E+00 -0.10030639026E+04  0.10030639026E+04  0.00000000000E+00 0.  1.
          6    1    1    2  501    0 -0.77713892770E+02  0.94539250285E+02 -0.47358193730E+03  0.51883135055E+03  0.17300000000E+03 0. -1.
         -6    1    1    2    0  502  0.77713892770E+02 -0.94539250285E+02 -0.48470796610E+03  0.52900655135E+03  0.17300000000E+03 0.  1.
<mgrwt>
<rscale>  2 0.21191064E+03</rscale>
<asrwt>0</asrwt>
<pdfrwt beam="1">  1       21 0.68883074E-02 0.21191064E+03</pdfrwt>
<pdfrwt beam="2">  1       21 0.15431753E+00 0.21191064E+03</pdfrwt>
<totfact> 0.42645633E+04</totfact>
</mgrwt>
</event>
<event>
 4    1  0.4067306E+000  0.2406530E+03  0.7546771E-02  0.1119359E+00
         21   -1    0    0  503  502  0.00000000000E+00  0.00000000000E+00  0.42204529872E+03  0.42204529872E+03  0.00000000000E+00 0. -1.
         21   -1    0    0  501  503 -0.00000000000E+00 -0.00000000000E+00 -0.20155509742E+03  0.20155509742E+03  0.00000000000E+00 0. -1.
          6    1    1    2  501    0  0.11882824097E+03 -0.11774853781E+03 -0.65910709544E+02  0.24951571222E+03  0.17300000000E+03 0. -1.
         -6    1    1    2    0  502 -0.11882824097E+03  0.11774853781E+03  0.28640091084E+03  0.37408468392E+03  0.17300000000E+03 0. -1.
<mgrwt>
<rscale>  2 0.24065301E+03</rscale>
<asrwt>0</asrwt>
<pdfrwt beam="1">  1       21 0.64930046E-01 0.24065301E+03</pdfrwt>
<pdfrwt beam="2">  1       21 0.31008476E-01 0.24065301E+03</pdfrwt>
<totfact> 0.21253207E+04</totfact>
</mgrwt>
</event>
<event>
 4    1  0.4067306E+000  0.2499387E+03  0.7546771E-02  0.1113344E+00
         21   -1    0    0  503  502  0.00000000000E+00  0.00000000000E+00  0.18598695615E+03  0.18598695615E+03  0.00000000000E+00 0.  1.
         21   -1    0    0  501  503 -0.00000000000E+00 -0.00000000000E+00 -0.74809235689E+03  0.74809235689E+03  0.00000000000E+00 0. -1.
          6    1    1    2  501    0 -0.16743772030E+03  0.67118978012E+02 -0.62773886876E+03  0.67566665949E+03  0.17300000000E+03 0. -1.
         -6    1    1    2    0  502  0.16743772030E+03 -0.67118978012E+02  0.65633468020E+02  0.25841265355E+03  0.17300000000E+03 0.  1.
<mgrwt>
<rscale>  2 0.24993869E+03</rscale>
<asrwt>0</asrwt>
<pdfrwt beam="1">  1       21 0.28613378E-01 0.24993869E+03</pdfrwt>
<pdfrwt beam="2">  1       21 0.11509113E+00 0.24993869E+03</pdfrwt>
<totfact> 0.65696502E+03</totfact>
</mgrwt>
</event>
<event>
 4    1  0.4067306E+000  0.1835186E+03  0.7546771E-02  0.1164441E+00
         21   -1    0    0  503  502  0.00000000000E+00  0.00000000000E+00  0.24586902149E+03  0.24586902149E+03  0.00000000000E+00 0.  1.
         21   -1    0    0  501  503 -0.00000000000E+00 -0.00000000000E+00 -0.40509681855E+03  0.40509681855E+03  0.00000000000E+00 0.  1.
          6    1    1    2  501    0 -0.26338460061E+02  0.55284367446E+02 -0.34440965619E+03  0.39025259389E+03  0.17300000000E+03 0.  1.
         -6    1    1    2    0  502  0.26338460061E+02 -0.55284367446E+02  0.18518185913E+03  0.26071324614E+03  0.17300000000E+03 0.  1.
<mgrwt>
<rscale>  2 0.18351860E+03</rscale>
<asrwt>0</asrwt>
<pdfrwt beam="1">  1       21 0.37826004E-01 0.18351860E+03</pdfrwt>
<pdfrwt beam="2">  1       21 0.62322587E-01 0.18351860E+03</pdfrwt>
<totfact> 0.16185505E+04</totfact>
</mgrwt>
</event>
<event>
 4    1  0.4067306E+000  0.2141521E+03  0.7546771E-02  0.1138320E+00
         21   -1    0    0  503  502  0.00000000000E+00  0.00000000000E+00  0.11391906717E+04  0.11391906717E+04  0.00000000000E+00 0.  1.
         21   -1    0    0  501  503 -0.00000000000E+00 -0.00000000000E+00 -0.11783869600E+03  0.11783869600E+03  0.00000000000E+00 0. -1.
          6    1    1    2  501    0 -0.77309043978E+02 -0.99776946349E+02  0.70049136294E+00  0.21415325819E+03  0.17300000000E+03 0.  1.
         -6    1    1    2    0  502  0.77309043978E+02  0.99776946349E+02  0.10206514843E+04  0.10428761095E+04  0.17300000000E+03 0.  1.
<mgrwt>
<rscale>  2 0.21415211E+03</rscale>
<asrwt>0</asrwt>
<pdfrwt beam="1">  1       21 0.17526010E+00 0.21415211E+03</pdfrwt>
<pdfrwt beam="2">  1       21 0.18129031E-01 0.21415211E+03</pdfrwt>
<totfact> 0.53354237E+03</totfact>
</mgrwt>
</event>
<event>
 4    1  0.4067306E+000  0.1734391E+03  0.7546771E-02  0.1174308E+00
         21   -1    0    0  501  502  0.00000000000E+00  0.00000000000E+00  0.15143199653E+03  0.15143199653E+03  0.00000000000E+00 0.  1.
         21   -1    0    0  502  503 -0.00000000000E+00 -0.00000000000E+00 -0.45447011948E+03  0.45447011948E+03  0.00000000000E+00 0.  1.
          6    1    1    2  501    0  0.12317052473E+02  0.65110435665E+00  0.75776953076E+02  0.18927038949E+03  0.17300000000E+03 0.  1.
         -6    1    1    2    0  503 -0.12317052473E+02 -0.65110435665E+00 -0.37881507603E+03  0.41663172652E+03  0.17300000000E+03 0.  1.
<mgrwt>
<rscale>  2 0.17343914E+03</rscale>
<asrwt>0</asrwt>
<pdfrwt beam="1">  1       21 0.23297230E-01 0.17343914E+03</pdfrwt>
<pdfrwt beam="2">  1       21 0.69918480E-01 0.17343914E+03</pdfrwt>
<totfact> 0.32516479E+04</totfact>
</mgrwt>
</event>
<event>
 4    1  0.4067306E+000  0.1980546E+03  0.7546771E-02  0.1151391E+00
         21   -1    0    0  503  502  0.00000000000E+00  0.00000000000E+00  0.10269355174E+04  0.10269355174E+04  0.00000000000E+00 0. -1.
         21   -1    0    0  501  503 -0.00000000000E+00 -0.00000000000E+00 -0.38462524610E+02  0.38462524610E+02  0.00000000000E+00 0. -1.
          6    1    1    2  501    0 -0.27532693653E+02  0.92404480365E+02  0.44995834041E+03  0.49161788547E+03  0.17300000000E+03 0. -1.
         -6    1    1    2    0  502  0.27532693653E+02 -0.92404480365E+02  0.53851465241E+03  0.57378015657E+03  0.17300000000E+03 0. -1.
<mgrwt>
<rscale>  2 0.19805463E+03</rscale>
<asrwt>0</asrwt>
<pdfrwt beam="1">  1       21 0.15799006E+00 0.19805463E+03</pdfrwt>
<pdfrwt beam="2">  1       21 0.59173123E-02 0.19805463E+03</pdfrwt>
<totfact> 0.52417114E+04</totfact>
</mgrwt>
</event>
<event>
 4    1  0.4067306E+000  0.2040331E+03  0.7546771E-02  0.1146380E+00
         21   -1    0    0  503  502  0.00000000000E+00  0.00000000000E+00  0.19353321053E+03  0.19353321053E+03  0.00000000000E+00 0. -1.
         21   -1    0    0  501  503 -0.00000000000E+00 -0.00000000000E+00 -0.38048738653E+03  0.38048738653E+03  0.00000000000E+00 0. -1.
          6    1    1    2  501    0 -0.94715784626E+02 -0.52243798392E+02 -0.28270061947E+03  0.34863897455E+03  0.17300000000E+03 0. -1.
         -6    1    1    2    0  502  0.94715784626E+02  0.52243798392E+02  0.95746443466E+02  0.22538162251E+03  0.17300000000E+03 0. -1.
<mgrwt>
<rscale>  2 0.20403307E+03</rscale>
<asrwt>0</asrwt>
<pdfrwt beam="1">  1       21 0.29774340E-01 0.20403307E+03</pdfrwt>
<pdfrwt beam="2">  1       21 0.58536521E-01 0.20403307E+03</pdfrwt>
<totfact> 0.29358328E+04</totfact>
</mgrwt>
</event>
<event>
 4    1  0.4067306E+000  0.2373381E+03  0.7546771E-02  0.1121579E+00
         21   -1    0    0  503  502  0.00000000000E+00  0.00000000000E+00  0.36195701355E+03  0.36195701355E+03  0.00000000000E+00 0. -1.
         21   -1    0    0  501  503 -0.00000000000E+00 -0.00000000000E+00 -0.18328482152E+03  0.18328482152E+03  0.00000000000E+00 0. -1.
          6    1    1    2  501    0 -0.10586755279E+03  0.12325758033E+03 -0.16570922202E+02  0.23791587863E+03  0.17300000000E+03 0. -1.
         -6    1    1    2    0  502  0.10586755279E+03 -0.12325758033E+03  0.19524311424E+03  0.30732595644E+03  0.17300000000E+03 0. -1.
<mgrwt>
<rscale>  2 0.23733809E+03</rscale>
<asrwt>0</asrwt>
<pdfrwt beam="1">  1       21 0.55685694E-01 0.23733809E+03</pdfrwt>
<pdfrwt beam="2">  1       21 0.28197665E-01 0.23733809E+03</pdfrwt>
<totfact> 0.35717654E+04</totfact>
</mgrwt>
</event>
<event>
 4    1  0.4067306E+000  0.1830672E+03  0.7546771E-02  0.1164867E+00
         21   -1    0    0  501  502  0.00000000000E+00  0.00000000000E+00  0.15506242654E+03  0.15506242654E+03  0.00000000000E+00 0.  1.
         21   -1    0    0  502  503 -0.00000000000E+00 -0.00000000000E+00 -0.50701735784E+03  0.50701735784E+03  0.00000000000E+00 0.  1.
          6    1    1    2  501    0 -0.46657480929E+02  0.37519109082E+02  0.74767097618E+02  0.19774661302E+03  0.17300000000E+03 0.  1.
         -6    1    1    2    0  503  0.46657480929E+02 -0.37519109082E+02 -0.42672202891E+03  0.46433317137E+03  0.17300000000E+03 0.  1.
<mgrwt>
<rscale>  2 0.18306721E+03</rscale>
<asrwt>0</asrwt>
<pdfrwt beam="1">  1       21 0.23855758E-01 0.18306721E+03</pdfrwt>
<pdfrwt beam="2">  1       21 0.78002672E-01 0.18306721E+03</pdfrwt>
<totfact> 0.24245982E+04</totfact>
</mgrwt>
</event>
<event>
 4    1  0.4067306E+000  0.2881457E+03  0.7546771E-02  0.1091321E+00
         21   -1    0    0  501  502  0.00000000000E+00  0.00000000000E+00  0.40047101622E+03  0.40047101622E+03  0.00000000000E+00 0.  1.
         21   -1    0    0  502  503 -0.00000000000E+00 -0.00000000000E+00 -0.33915576877E+03  0.33915576877E+03  0.00000000000E+00 0.  1.
          6    1    1    2  501    0  0.11446168055E+03  0.19999373854E+03  0.26122088871E+03  0.38892714545E+03  0.17300000000E+03 0.  1.
         -6    1    1    2    0  503 -0.11446168055E+03 -0.19999373854E+03 -0.19990564126E+03  0.35069963954E+03  0.17300000000E+03 0.  1.
<mgrwt>
<rscale>  2 0.28814575E+03</rscale>
<asrwt>0</asrwt>
<pdfrwt beam="1">  1       21 0.61610925E-01 0.28814575E+03</pdfrwt>
<pdfrwt beam="2">  1       21 0.52177811E-01 0.28814575E+03</pdfrwt>
<totfact> 0.80571766E+03</totfact>
</mgrwt>
</event>
<event>
 4    1  0.4067306E+000  0.3936238E+03  0.7546771E-02  0.1046010E+00
         21   -1    0    0  503  502  0.00000000000E+00  0.00000000000E+00  0.32449770240E+03  0.32449770240E+03  0.00000000000E+00 0.  1.
         21   -1    0    0  501  503 -0.00000000000E+00 -0.00000000000E+00 -0.71618420540E+03  0.71618420540E+03  0.00000000000E+00 0. -1.
          6    1    1    2  501    0  0.34369855774E+03  0.82957927835E+02 -0.49625003114E+03  0.63340651227E+03  0.17300000000E+03 0. -1.
         -6    1    1    2    0  502 -0.34369855774E+03 -0.82957927835E+02  0.10456352814E+03  0.40727539552E+03  0.17300000000E+03 0.  1.
<mgrwt>
<rscale>  2 0.39362383E+03</rscale>
<asrwt>0</asrwt>
<pdfrwt beam="1">  1       21 0.49922724E-01 0.39362383E+03</pdfrwt>
<pdfrwt beam="2">  1       21 0.11018218E+00 0.39362383E+03</pdfrwt>
<totfact> 0.21948708E+03</totfact>
</mgrwt>
</event>
<event>
 4    1  0.4067306E+000  0.1845319E+03  0.7546771E-02  0.1163488E+00
         21   -1    0    0  503  502  0.00000000000E+00  0.00000000000E+00  0.17900351420E+03  0.17900351420E+03  0.00000000000E+00 0. -1.
         21   -1    0    0  501  503 -0.00000000000E+00 -0.00000000000E+00 -0.22470445075E+03  0.22470445075E+03  0.00000000000E+00 0.  1.
          6    1    1    2  501    0  0.29722839513E+01 -0.64141941971E+02  0.56212599921E+02  0.19290380914E+03  0.17300000000E+03 0. -1.
         -6    1    1    2    0  502 -0.29722839513E+01  0.64141941971E+02 -0.10191353646E+03  0.21080415581E+03  0.17300000000E+03 0.  1.
<mgrwt>
<rscale>  2 0.18453190E+03</rscale>
<asrwt>0</asrwt>
<pdfrwt beam="1">  1       21 0.27539002E-01 0.18453190E+03</pdfrwt>
<pdfrwt beam="2">  1       21 0.34569915E-01 0.18453190E+03</pdfrwt>
<totfact> 0.10176620E+05</totfact>
</mgrwt>
</event>
<event>
 4    1  0.4067306E+000  0.1828606E+03  0.7546771E-02  0.1165063E+00
         21   -1    0    0  503  502  0.00000000000E+00  0.00000000000E+00  0.28568402510E+03  0.28568402510E+03  0.00000000000E+00 0. -1.
         21   -1    0    0  501  503 -0.00000000000E+00 -0.00000000000E+00 -0.27911786707E+03  0.27911786707E+03  0.00000000000E+00 0. -1.
          6    1    1    2  501    0  0.52954132518E+02  0.26549192553E+02 -0.21190933411E+03  0.27989920625E+03  0.17300000000E+03 0. -1.
         -6    1    1    2    0  502 -0.52954132518E+02 -0.26549192553E+02  0.21847549214E+03  0.28490268591E+03  0.17300000000E+03 0. -1.
<mgrwt>
<rscale>  2 0.18286060E+03</rscale>
<asrwt>0</asrwt>
<pdfrwt beam="1">  1       21 0.43951388E-01 0.18286060E+03</pdfrwt>
<pdfrwt beam="2">  1       21 0.42941210E-01 0.18286060E+03</pdfrwt>
<totfact> 0.26079570E+04</totfact>
</mgrwt>
</event>
<event>
 4    1  0.4067306E+000  0.1754611E+03  0.7546771E-02  0.1172270E+00
         21   -1    0    0  501  502  0.00000000000E+00  0.00000000000E+00  0.87459610941E+03  0.87459610941E+03  0.00000000000E+00 0.  1.
         21   -1    0    0  502  503 -0.00000000000E+00 -0.00000000000E+00 -0.71631845844E+02  0.71631845844E+02  0.00000000000E+00 0.  1.
          6    1    1    2  501    0  0.27852909239E+02  0.90442787297E+01  0.73888427756E+03  0.75943173437E+03  0.17300000000E+03 0.  1.
         -6    1    1    2    0  503 -0.27852909239E+02 -0.90442787297E+01  0.64079985998E+02  0.18679622088E+03  0.17300000000E+03 0.  1.
<mgrwt>
<rscale>  2 0.17546106E+03</rscale>
<asrwt>0</asrwt>
<pdfrwt beam="1">  1       21 0.13455324E+00 0.17546106E+03</pdfrwt>
<pdfrwt beam="2">  1       21 0.11020285E-01 0.17546106E+03</pdfrwt>
<totfact> 0.27352081E+04</totfact>
</mgrwt>
</event>
<event>
 4    1  0.4067306E+000  0.3510779E+03  0.7546771E-02  0.1062173E+00
         21   -1    0    0  503  502  0.00000000000E+00  0.00000000000E+00  0.13602500013E+03  0.13602500013E+03  0.00000000000E+00 0.  1.
         21   -1    0    0  501  503 -0.00000000000E+00 -0.00000000000E+00 -0.11424378310E+04  0.11424378310E+04  0.00000000000E+00 0. -1.
          6    1    1    2  501    0  0.30301614235E+03 -0.38831898655E+02 -0.79393328088E+03  0.86809317090E+03  0.17300000000E+03 0.  1.
         -6    1    1    2    0  502 -0.30301614235E+03  0.38831898655E+02 -0.21247954999E+03  0.41036966024E+03  0.17300000000E+03 0. -1.
<mgrwt>
<rscale>  2 0.35107791E+03</rscale>
<asrwt>0</asrwt>
<pdfrwt beam="1">  1       21 0.20926923E-01 0.35107791E+03</pdfrwt>
<pdfrwt beam="2">  1       21 0.17575967E+00 0.35107791E+03</pdfrwt>
<totfact> 0.37067053E+03</totfact>
</mgrwt>
</event>
<event>
 4    1  0.4067306E+000  0.1746044E+03  0.7546771E-02  0.1173130E+00
         21   -1    0    0  503  502  0.00000000000E+00  0.00000000000E+00  0.75502106300E+03  0.75502106300E+03  0.00000000000E+00 0.  1.
         21   -1    0    0  501  503 -0.00000000000E+00 -0.00000000000E+00 -0.28670305202E+03  0.28670305202E+03  0.00000000000E+00 0.  1.
          6    1    1    2  501    0  0.23574451430E+02  0.13918780765E+01 -0.24863328721E+03  0.30381771442E+03  0.17300000000E+03 0.  1.
         -6    1    1    2    0  502 -0.23574451430E+02 -0.13918780765E+01  0.71695129819E+03  0.73790640061E+03  0.17300000000E+03 0.  1.
<mgrwt>
<rscale>  2 0.17460439E+03</rscale>
<asrwt>0</asrwt>
<pdfrwt beam="1">  1       21 0.11615709E+00 0.17460439E+03</pdfrwt>
<pdfrwt beam="2">  1       21 0.44108162E-01 0.17460439E+03</pdfrwt>
<totfact> 0.28712557E+03</totfact>
</mgrwt>
</event>
<event>
 4    1  0.4067306E+000  0.1875233E+03  0.7546771E-02  0.1160714E+00
         21   -1    0    0  503  502  0.00000000000E+00  0.00000000000E+00  0.72565354208E+02  0.72565354208E+02  0.00000000000E+00 0.  1.
         21   -1    0    0  501  503 -0.00000000000E+00 -0.00000000000E+00 -0.58514792766E+03  0.58514792766E+03  0.00000000000E+00 0.  1.
          6    1    1    2  501    0  0.61690277789E+02  0.37819048939E+02 -0.39261339356E+03  0.43509797476E+03  0.17300000000E+03 0.  1.
         -6    1    1    2    0  502 -0.61690277789E+02 -0.37819048939E+02 -0.11996917989E+03  0.22261530711E+03  0.17300000000E+03 0.  1.
<mgrwt>
<rscale>  2 0.18752325E+03</rscale>
<asrwt>0</asrwt>
<pdfrwt beam="1">  1       21 0.11163901E-01 0.18752325E+03</pdfrwt>
<pdfrwt beam="2">  1       21 0.90022756E-01 0.18752325E+03</pdfrwt>
<totfact> 0.70249561E+04</totfact>
</mgrwt>
</event>
<event>
 4    1  0.4067306E+000  0.1816822E+03  0.7546771E-02  0.1166185E+00
         21   -1    0    0  501  502  0.00000000000E+00  0.00000000000E+00  0.46578816438E+03  0.46578816438E+03  0.00000000000E+00 0.  1.
         21   -1    0    0  502  503 -0.00000000000E+00 -0.00000000000E+00 -0.71381089259E+02  0.71381089259E+02  0.00000000000E+00 0. -1.
          6    1    1    2  501    0  0.41007766554E+02 -0.37386813560E+02  0.22002541850E+03  0.28534119144E+03  0.17300000000E+03 0. -1.
         -6    1    1    2    0  503 -0.41007766554E+02  0.37386813560E+02  0.17438165662E+03  0.25182806220E+03  0.17300000000E+03 0. -1.
<mgrwt>
<rscale>  2 0.18168217E+03</rscale>
<asrwt>0</asrwt>
<pdfrwt beam="1">  1       21 0.71659716E-01 0.18168217E+03</pdfrwt>
<pdfrwt beam="2">  1       21 0.10981706E-01 0.18168217E+03</pdfrwt>
<totfact> 0.12141853E+05</totfact>
</mgrwt>
</event>
<event>
 4    1  0.4067306E+000  0.1938851E+03  0.7546771E-02  0.1155003E+00
         21   -1    0    0  501  502  0.00000000000E+00  0.00000000000E+00  0.51258067695E+03  0.51258067695E+03  0.00000000000E+00 0. -1.
         21   -1    0    0  502  503 -0.00000000000E+00 -0.00000000000E+00 -0.95937135064E+02  0.95937135064E+02  0.00000000000E+00 0.  1.
          6    1    1    2  501    0  0.87458936935E+02  0.36560566354E+01  0.35599431568E+03  0.40536820941E+03  0.17300000000E+03 0. -1.
         -6    1    1    2    0  503 -0.87458936935E+02 -0.36560566354E+01  0.60649226204E+02  0.20314960261E+03  0.17300000000E+03 0.  1.
<mgrwt>
<rscale>  2 0.19388510E+03</rscale>
<asrwt>0</asrwt>
<pdfrwt beam="1">  1       21 0.78858564E-01 0.19388510E+03</pdfrwt>
<pdfrwt beam="2">  1       21 0.14759560E-01 0.19388510E+03</pdfrwt>
<totfact> 0.57363939E+04</totfact>
</mgrwt>
</event>
<event>
 4    1  0.4067306E+000  0.2067397E+03  0.7546771E-02  0.1144174E+00
         21   -1    0    0  503  502  0.00000000000E+00  0.00000000000E+00  0.35651230627E+03  0.35651230627E+03  0.00000000000E+00 0. -1.
         21   -1    0    0  501  503 -0.00000000000E+00 -0.00000000000E+00 -0.34476842514E+03  0.34476842514E+03  0.00000000000E+00 0. -1.
          6    1    1    2  501    0 -0.44609083896E+02 -0.10403041567E+03 -0.27731594511E+03  0.34589800687E+03  0.17300000000E+03 0. -1.
         -6    1    1    2    0  502  0.44609083896E+02  0.10403041567E+03  0.28905982624E+03  0.35538272453E+03  0.17300000000E+03 0. -1.
<mgrwt>
<rscale>  2 0.20673969E+03</rscale>
<asrwt>0</asrwt>
<pdfrwt beam="1">  1       21 0.54848048E-01 0.20673969E+03</pdfrwt>
<pdfrwt beam="2">  1       21 0.53041296E-01 0.20673969E+03</pdfrwt>
<totfact> 0.10463932E+04</totfact>
</mgrwt>
</event>
<event>
 4    1  0.4067306E+000  0.2540606E+03  0.7546771E-02  0.1110765E+00
         21   -1    0    0  503  502  0.00000000000E+00  0.00000000000E+00  0.70501176200E+02  0.70501176200E+02  0.00000000000E+00 0. -1.
         21   -1    0    0  501  503 -0.00000000000E+00 -0.00000000000E+00 -0.12664147281E+04  0.12664147281E+04  0.00000000000E+00 0. -1.
          6    1    1    2  501    0  0.18571537899E+03 -0.11295577554E+02 -0.94980947576E+03  0.98320131830E+03  0.17300000000E+03 0. -1.
         -6    1    1    2    0  502 -0.18571537899E+03  0.11295577554E+02 -0.24610407619E+03  0.35371458604E+03  0.17300000000E+03 0. -1.
<mgrwt>
<rscale>  2 0.25406061E+03</rscale>
<asrwt>0</asrwt>
<pdfrwt beam="1">  1       21 0.10846335E-01 0.25406061E+03</pdfrwt>
<pdfrwt beam="2">  1       21 0.19483303E+00 0.25406061E+03</pdfrwt>
<totfact> 0.97342147E+03</totfact>
</mgrwt>
</event>
<event>
 4    1  0.4067306E+000  0.1764855E+03  0.7546771E-02  0.1171248E+00
         21   -1    0    0  503  502  0.00000000000E+00  0.00000000000E+00  0.42549808805E+03  0.42549808805E+03  0.00000000000E+00 0. -1.
         21   -1    0    0  501  503 -0.00000000000E+00 -0.00000000000E+00 -0.19281782025E+03  0.19281782025E+03  0.00000000000E+00 0. -1.
          6    1    1    2  501    0  0.33565965932E+02  0.95637278897E+01 -0.12716150341E+03  0.21752514087E+03  0.17300000000E+03 0. -1.
         -6    1    1    2    0  502 -0.33565965932E+02 -0.95637278897E+01  0.35984177121E+03  0.40079076744E+03  0.17300000000E+03 0. -1.
<mgrwt>
<rscale>  2 0.17648552E+03</rscale>
<asrwt>0</asrwt>
<pdfrwt beam="1">  1       21 0.65461244E-01 0.17648552E+03</pdfrwt>
<pdfrwt beam="2">  1       21 0.29664280E-01 0.17648552E+03</pdfrwt>
<totfact> 0.23597831E+04</totfact>
</mgrwt>
</event>
<event>
 4    1  0.4067306E+000  0.2237536E+03  0.7546771E-02  0.1131115E+00
         21   -1    0    0  501  502  0.00000000000E+00  0.00000000000E+00  0.79378817860E+03  0.79378817860E+03  0.00000000000E+00 0.  1.
         21   -1    0    0  502  503 -0.00000000000E+00 -0.00000000000E+00 -0.72241862228E+02  0.72241862228E+02  0.00000000000E+00 0.  1.
          6    1    1    2  501    0 -0.13397628335E+03 -0.46765849946E+02  0.51504740823E+03  0.56155099675E+03  0.17300000000E+03 0.  1.
         -6    1    1    2    0  503  0.13397628335E+03  0.46765849946E+02  0.20649890813E+03  0.30447904408E+03  0.17300000000E+03 0.  1.
<mgrwt>
<rscale>  2 0.22375364E+03</rscale>
<asrwt>0</asrwt>
<pdfrwt beam="1">  1       21 0.12212125E+00 0.22375364E+03</pdfrwt>
<pdfrwt beam="2">  1       21 0.11114133E-01 0.22375364E+03</pdfrwt>
<totfact> 0.33433518E+04</totfact>
</mgrwt>
</event>
<event>
 4    1  0.4067306E+000  0.2207745E+03  0.7546771E-02  0.1133307E+00
         21   -1    0    0  501  502  0.00000000000E+00  0.00000000000E+00  0.24726200510E+03  0.24726200510E+03  0.00000000000E+00 0. -1.
         21   -1    0    0  502  503 -0.00000000000E+00 -0.00000000000E+00 -0.19809183730E+03  0.19809183730E+03  0.00000000000E+00 0. -1.
          6    1    1    2  501    0 -0.42629086406E+01 -0.13709191149E+03  0.90231976256E+01  0.22095878050E+03  0.17300000000E+03 0. -1.
         -6    1    1    2    0  503  0.42629086406E+01  0.13709191149E+03  0.40146970176E+02  0.22439506189E+03  0.17300000000E+03 0. -1.
<mgrwt>
<rscale>  2 0.22077447E+03</rscale>
<asrwt>0</asrwt>
<pdfrwt beam="1">  1       21 0.38040309E-01 0.22077447E+03</pdfrwt>
<pdfrwt beam="2">  1       21 0.30475667E-01 0.22077447E+03</pdfrwt>
<totfact> 0.68031647E+04</totfact>
</mgrwt>
</event>
<event>
 4    1  0.4067306E+000  0.2470307E+03  0.7546771E-02  0.1115196E+00
         21   -1    0    0  503  502  0.00000000000E+00  0.00000000000E+00  0.41095545435E+03  0.41095545435E+03  0.00000000000E+00 0. -1.
         21   -1    0    0  501  503 -0.00000000000E+00 -0.00000000000E+00 -0.15454027880E+03  0.15454027880E+03  0.00000000000E+00 0.  1.
          6    1    1    2  501    0  0.13589904060E+03 -0.11236812086E+03  0.18413782270E+03  0.30810855484E+03  0.17300000000E+03 0. -1.
         -6    1    1    2    0  502 -0.13589904060E+03  0.11236812086E+03  0.72277352852E+02  0.25738717830E+03  0.17300000000E+03 0.  1.
<mgrwt>
<rscale>  2 0.24703065E+03</rscale>
<asrwt>0</asrwt>
<pdfrwt beam="1">  1       21 0.63223916E-01 0.24703065E+03</pdfrwt>
<pdfrwt beam="2">  1       21 0.23775428E-01 0.24703065E+03</pdfrwt>
<totfact> 0.37579603E+04</totfact>
</mgrwt>
</event>
<event>
 4    1  0.4067306E+000  0.1864615E+03  0.7546771E-02  0.1161692E+00
         21   -1    0    0  503  502  0.00000000000E+00  0.00000000000E+00  0.18778616333E+04  0.18778616333E+04  0.00000000000E+00 0.  1.
         21   -1    0    0  501  503 -0.00000000000E+00 -0.00000000000E+00 -0.25029876478E+02  0.25029876478E+02  0.00000000000E+00 0.  1.
          6    1    1    2  501    0  0.69375533063E+02  0.50911694985E+01  0.14118391743E+04  0.14240989216E+04  0.17300000000E+03 0.  1.
         -6    1    1    2    0  502 -0.69375533063E+02 -0.50911694985E+01  0.44099258253E+03  0.47879258812E+03  0.17300000000E+03 0.  1.
<mgrwt>
<rscale>  2 0.18646148E+03</rscale>
<asrwt>0</asrwt>
<pdfrwt beam="1">  1       21 0.28890168E+00 0.18646148E+03</pdfrwt>
<pdfrwt beam="2">  1       21 0.38507517E-02 0.18646148E+03</pdfrwt>
<totfact> 0.16617928E+04</totfact>
</mgrwt>
</event>
<event>
 4    1  0.4067306E+000  0.3093363E+03  0.7546771E-02  0.1080664E+00
         21   -1    0    0  503  502  0.00000000000E+00  0.00000000000E+00  0.10642658404E+04  0.10642658404E+04  0.00000000000E+00 0.  1.
         21   -1    0    0  501  503 -0.00000000000E+00 -0.00000000000E+00 -0.90990097141E+02  0.90990097141E+02  0.00000000000E+00 0.  1.
          6    1    1    2  501    0  0.58522376944E+02 -0.24966995156E+03  0.42372649503E+03  0.52462662523E+03  0.17300000000E+03 0.  1.
         -6    1    1    2    0  502 -0.58522376944E+02  0.24966995156E+03  0.54954924826E+03  0.63062931234E+03  0.17300000000E+03 0.  1.
<mgrwt>
<rscale>  2 0.30933631E+03</rscale>
<asrwt>0</asrwt>
<pdfrwt beam="1">  1       21 0.16373320E+00 0.30933631E+03</pdfrwt>
<pdfrwt beam="2">  1       21 0.13998477E-01 0.30933631E+03</pdfrwt>
<totfact> 0.97775325E+03</totfact>
</mgrwt>
</event>
<event>
 4    1  0.4067306E+000  0.1924831E+03  0.7546771E-02  0.1156241E+00
         21   -1    0    0  501  502  0.00000000000E+00  0.00000000000E+00  0.56541957644E+03  0.56541957644E+03  0.00000000000E+00 0.  1.
         21   -1    0    0  502  503 -0.00000000000E+00 -0.00000000000E+00 -0.10861065990E+03  0.10861065990E+03  0.00000000000E+00 0. -1.
          6    1    1    2  501    0  0.83721143061E+02  0.10559966220E+02  0.44066729363E+03  0.48087150712E+03  0.17300000000E+03 0.  1.
         -6    1    1    2    0  503 -0.83721143061E+02 -0.10559966220E+02  0.16141622911E+02  0.19315872922E+03  0.17300000000E+03 0. -1.
<mgrwt>
<rscale>  2 0.19248310E+03</rscale>
<asrwt>0</asrwt>
<pdfrwt beam="1">  1       21 0.86987626E-01 0.19248310E+03</pdfrwt>
<pdfrwt beam="2">  1       21 0.16709333E-01 0.19248310E+03</pdfrwt>
<totfact> 0.36599635E+04</totfact>
</mgrwt>
</event>
<event>
 4    1  0.4067306E+000  0.1901948E+03  0.7546771E-02  0.1158286E+00
         21   -1    0    0  501  502  0.00000000000E+00  0.00000000000E+00  0.12188049998E+03  0.12188049998E+03  0.00000000000E+00 0. -1.
         21   -1    0    0  502  503 -0.00000000000E+00 -0.00000000000E+00 -0.34172435053E+03  0.34172435053E+03  0.00000000000E+00 0.  1.
          6    1    1    2  501    0 -0.15674685898E+01 -0.79010246068E+02 -0.19396910688E+03  0.27165803939E+03  0.17300000000E+03 0.  1.
         -6    1    1    2    0  503  0.15674685898E+01  0.79010246068E+02 -0.25874743667E+02  0.19194681113E+03  0.17300000000E+03 0. -1.
<mgrwt>
<rscale>  2 0.19019484E+03</rscale>
<asrwt>0</asrwt>
<pdfrwt beam="1">  1       21 0.18750846E-01 0.19019484E+03</pdfrwt>
<pdfrwt beam="2">  1       21 0.52572976E-01 0.19019484E+03</pdfrwt>
<totfact> 0.89382013E+04</totfact>
</mgrwt>
</event>
<event>
 4    1  0.4067306E+000  0.2070120E+03  0.7546771E-02  0.1143954E+00
         21   -1    0    0  503  502  0.00000000000E+00  0.00000000000E+00  0.67817404146E+03  0.67817404146E+03  0.00000000000E+00 0.  1.
         21   -1    0    0  501  503 -0.00000000000E+00 -0.00000000000E+00 -0.63364274953E+02  0.63364274953E+02  0.00000000000E+00 0. -1.
          6    1    1    2  501    0 -0.69570716384E+02 -0.89915927938E+02  0.32683787423E+03  0.38688106015E+03  0.17300000000E+03 0.  1.
         -6    1    1    2    0  502  0.69570716384E+02  0.89915927938E+02  0.28797189228E+03  0.35465725626E+03  0.17300000000E+03 0.  1.
<mgrwt>
<rscale>  2 0.20701198E+03</rscale>
<asrwt>0</asrwt>
<pdfrwt beam="1">  1       21 0.10433446E+00 0.20701198E+03</pdfrwt>
<pdfrwt beam="2">  1       21 0.97483505E-02 0.20701198E+03</pdfrwt>
<totfact> 0.62526718E+04</totfact>
</mgrwt>
</event>
<event>
 4    1  0.4067306E+000  0.3472119E+03  0.7546771E-02  0.1063765E+00
         21   -1    0    0  501  502  0.00000000000E+00  0.00000000000E+00  0.70410673871E+03  0.70410673871E+03  0.00000000000E+00 0. -1.
         21   -1    0    0  502  503 -0.00000000000E+00 -0.00000000000E+00 -0.17183987485E+03  0.17183987485E+03  0.00000000000E+00 0. -1.
          6    1    1    2  501    0 -0.23750415658E+03  0.18498339315E+03  0.29247078861E+03  0.45397713855E+03  0.17300000000E+03 0. -1.
         -6    1    1    2    0  503  0.23750415658E+03 -0.18498339315E+03  0.23979607524E+03  0.42196947501E+03  0.17300000000E+03 0. -1.
<mgrwt>
<rscale>  2 0.34721187E+03</rscale>
<asrwt>0</asrwt>
<pdfrwt beam="1">  1       21 0.10832411E+00 0.34721187E+03</pdfrwt>
<pdfrwt beam="2">  1       21 0.26436904E-01 0.34721187E+03</pdfrwt>
<totfact> 0.84745155E+03</totfact>
</mgrwt>
</event>
<event>
 4    1  0.4067306E+000  0.1828302E+03  0.7546771E-02  0.1165092E+00
         21   -1    0    0  503  502  0.00000000000E+00  0.00000000000E+00  0.40439270555E+03  0.40439270555E+03  0.00000000000E+00 0.  1.
         21   -1    0    0  501  503 -0.00000000000E+00 -0.00000000000E+00 -0.46914837708E+03  0.46914837708E+03  0.00000000000E+00 0.  1.
          6    1    1    2  501    0  0.52348612082E+02 -0.27523062848E+02 -0.42880803743E+03  0.46615794442E+03  0.17300000000E+03 0.  1.
         -6    1    1    2    0  502 -0.52348612082E+02  0.27523062848E+02  0.36405236591E+03  0.40738313821E+03  0.17300000000E+03 0.  1.
<mgrwt>
<rscale>  2 0.18283024E+03</rscale>
<asrwt>0</asrwt>
<pdfrwt beam="1">  1       21 0.62214263E-01 0.18283024E+03</pdfrwt>
<pdfrwt beam="2">  1       21 0.72176673E-01 0.18283024E+03</pdfrwt>
<totfact> 0.41834000E+03</totfact>
</mgrwt>
</event>
<event>
 4    1  0.4067306E+000  0.2339227E+03  0.7546771E-02  0.1123909E+00
         21   -1    0    0  503  502  0.00000000000E+00  0.00000000000E+00  0.67551638675E+03  0.67551638675E+03  0.00000000000E+00 0. -1.
         21   -1    0    0  501  503 -0.00000000000E+00 -0.00000000000E+00 -0.82487574107E+02  0.82487574107E+02  0.00000000000E+00 0.  1.
          6    1    1    2  501    0 -0.66777243400E+02 -0.14258895598E+03  0.34733513596E+03  0.41876187419E+03  0.17300000000E+03 0. -1.
         -6    1    1    2    0  502  0.66777243400E+02  0.14258895598E+03  0.24569367668E+03  0.33924208667E+03  0.17300000000E+03 0.  1.
<mgrwt>
<rscale>  2 0.23392266E+03</rscale>
<asrwt>0</asrwt>
<pdfrwt beam="1">  1       21 0.10392559E+00 0.23392266E+03</pdfrwt>
<pdfrwt beam="2">  1       21 0.12690396E-01 0.23392266E+03</pdfrwt>
<totfact> 0.38915586E+04</totfact>
</mgrwt>
</event>
<event>
 4    1  0.4067306E+000  0.1819140E+03  0.7546771E-02  0.1165963E+00
         21   -1    0    0  503  502  0.00000000000E+00  0.00000000000E+00  0.27233276376E+02  0.27233276376E+02  0.00000000000E+00 0.  1.
         21   -1    0    0  501  503 -0.00000000000E+00 -0.00000000000E+00 -0.12155490173E+04  0.12155490173E+04  0.00000000000E+00 0.  1.
          6    1    1    2  501    0 -0.25106920672E+02 -0.50332227683E+02 -0.60532528938E+03  0.63206913908E+03  0.17300000000E+03 0. -1.
         -6    1    1    2    0  502  0.25106920672E+02  0.50332227683E+02 -0.58299045154E+03  0.61071315460E+03  0.17300000000E+03 0. -1.
<mgrwt>
<rscale>  2 0.18191396E+03</rscale>
<asrwt>0</asrwt>
<pdfrwt beam="1">  1       21 0.41897348E-02 0.18191396E+03</pdfrwt>
<pdfrwt beam="2">  1       21 0.18700754E+00 0.18191396E+03</pdfrwt>
<totfact> 0.59569763E+04</totfact>
</mgrwt>
</event>
<event>
 4    1  0.4067306E+000  0.1785353E+03  0.7546771E-02  0.1169228E+00
         21   -1    0    0  501  502  0.00000000000E+00  0.00000000000E+00  0.70639809196E+02  0.70639809196E+02  0.00000000000E+00 0. -1.
         21   -1    0    0  502  503 -0.00000000000E+00 -0.00000000000E+00 -0.95816197870E+03  0.95816197870E+03  0.00000000000E+00 0.  1.
          6    1    1    2  501    0 -0.27654538598E+02  0.34366642969E+02 -0.69601514155E+02  0.19162257285E+03  0.17300000000E+03 0. -1.
         -6    1    1    2    0  503  0.27654538598E+02 -0.34366642969E+02 -0.81792065535E+03  0.83717921504E+03  0.17300000000E+03 0.  1.
<mgrwt>
<rscale>  2 0.17853526E+03</rscale>
<asrwt>0</asrwt>
<pdfrwt beam="1">  1       21 0.10867663E-01 0.17853526E+03</pdfrwt>
<pdfrwt beam="2">  1       21 0.14740953E+00 0.17853526E+03</pdfrwt>
<totfact> 0.22115916E+04</totfact>
</mgrwt>
</event>
<event>
 4    1  0.4067306E+000  0.2131687E+03  0.7546771E-02  0.1139081E+00
         21   -1    0    0  501  502  0.00000000000E+00  0.00000000000E+00  0.67528118912E+03  0.67528118912E+03  0.00000000000E+00 0. -1.
         21   -1    0    0  502  503 -0.00000000000E+00 -0.00000000000E+00 -0.24369537008E+03  0.24369537008E+03  0.00000000000E+00 0. -1.
          6    1    1    2  501    0  0.19477216062E+02 -0.12301430106E+03  0.60672785719E+03  0.64308597629E+03  0.17300000000E+03 0. -1.
         -6    1    1    2    0  503 -0.19477216062E+02  0.12301430106E+03 -0.17514203816E+03  0.27589058291E+03  0.17300000000E+03 0. -1.
<mgrwt>
<rscale>  2 0.21316867E+03</rscale>
<asrwt>0</asrwt>
<pdfrwt beam="1">  1       21 0.10388941E+00 0.21316867E+03</pdfrwt>
<pdfrwt beam="2">  1       21 0.37491596E-01 0.21316867E+03</pdfrwt>
<totfact> 0.50612390E+03</totfact>
</mgrwt>
</event>
<event>
 4    1  0.4067306E+000  0.2105594E+03  0.7546771E-02  0.1141124E+00
         21   -1    0    0  501  502  0.00000000000E+00  0.00000000000E+00  0.33569158206E+03  0.33569158206E+03  0.00000000000E+00 0. -1.
         21   -1    0    0  502  503 -0.00000000000E+00 -0.00000000000E+00 -0.16825038005E+03  0.16825038005E+03  0.00000000000E+00 0. -1.
          6    1    1    2  501    0 -0.11431044757E+03  0.36597571440E+02  0.20056303568E+03  0.29079338359E+03  0.17300000000E+03 0. -1.
         -6    1    1    2    0  503  0.11431044757E+03 -0.36597571440E+02 -0.33121833660E+02  0.21314857852E+03  0.17300000000E+03 0. -1.
<mgrwt>
<rscale>  2 0.21055940E+03</rscale>
<asrwt>0</asrwt>
<pdfrwt beam="1">  1       21 0.51644859E-01 0.21055940E+03</pdfrwt>
<pdfrwt beam="2">  1       21 0.25884674E-01 0.21055940E+03</pdfrwt>
<totfact> 0.50033900E+04</totfact>
</mgrwt>
</event>
<event>
 4    1  0.4067306E+000  0.2241604E+03  0.7546771E-02  0.1130819E+00
         21   -1    0    0  503  502  0.00000000000E+00  0.00000000000E+00  0.69240581640E+02  0.69240581640E+02  0.00000000000E+00 0. -1.
         21   -1    0    0  501  503 -0.00000000000E+00 -0.00000000000E+00 -0.13936534424E+04  0.13936534424E+04  0.00000000000E+00 0. -1.
          6    1    1    2  501    0  0.10370781639E+03  0.97793518931E+02 -0.11685888286E+04  0.11898940011E+04  0.17300000000E+03 0. -1.
         -6    1    1    2    0  502 -0.10370781639E+03 -0.97793518931E+02 -0.15582403216E+03  0.27300002294E+03  0.17300000000E+03 0. -1.
<mgrwt>
<rscale>  2 0.22416040E+03</rscale>
<asrwt>0</asrwt>
<pdfrwt beam="1">  1       21 0.10652396E-01 0.22416040E+03</pdfrwt>
<pdfrwt beam="2">  1       21 0.21440824E+00 0.22416040E+03</pdfrwt>
<totfact> 0.76916957E+03</totfact>
</mgrwt>
</event>
<event>
 4    1  0.4067306E+000  0.2422253E+03  0.7546771E-02  0.1118319E+00
         21   -1    0    0  503  502  0.00000000000E+00  0.00000000000E+00  0.76040937422E+03  0.76040937422E+03  0.00000000000E+00 0.  1.
         21   -1    0    0  501  503 -0.00000000000E+00 -0.00000000000E+00 -0.82097633101E+02  0.82097633101E+02  0.00000000000E+00 0.  1.
          6    1    1    2  501    0 -0.12723099004E+03  0.11205520870E+03  0.23584572430E+03  0.33807735845E+03  0.17300000000E+03 0.  1.
         -6    1    1    2    0  502  0.12723099004E+03 -0.11205520870E+03  0.44246601682E+03  0.50442964887E+03  0.17300000000E+03 0.  1.
<mgrwt>
<rscale>  2 0.24222530E+03</rscale>
<asrwt>0</asrwt>
<pdfrwt beam="1">  1       21 0.11698605E+00 0.24222530E+03</pdfrwt>
<pdfrwt beam="2">  1       21 0.12630406E-01 0.24222530E+03</pdfrwt>
<totfact> 0.29297313E+04</totfact>
</mgrwt>
</event>
<event>
 4    1  0.4067306E+000  0.1836113E+03  0.7546771E-02  0.1164353E+00
         21   -1    0    0  503  502  0.00000000000E+00  0.00000000000E+00  0.85364421702E+03  0.85364421702E+03  0.00000000000E+00 0.  1.
         21   -1    0    0  501  503 -0.00000000000E+00 -0.00000000000E+00 -0.83317717545E+02  0.83317717545E+02  0.00000000000E+00 0. -1.
          6    1    1    2  501    0  0.58312669979E+02  0.19588897790E+02  0.45395520051E+02  0.18913975161E+03  0.17300000000E+03 0. -1.
         -6    1    1    2    0  502 -0.58312669979E+02 -0.19588897790E+02  0.72493097942E+03  0.74782218296E+03  0.17300000000E+03 0.  1.
<mgrwt>
<rscale>  2 0.18361125E+03</rscale>
<asrwt>0</asrwt>
<pdfrwt beam="1">  1       21 0.13132987E+00 0.18361125E+03</pdfrwt>
<pdfrwt beam="2">  1       21 0.12818111E-01 0.18361125E+03</pdfrwt>
<totfact> 0.22090327E+04</totfact>
</mgrwt>
</event>
<event>
 4    1  0.4067306E+000  0.1853736E+03  0.7546771E-02  0.1162701E+00
         21   -1    0    0  501  502  0.00000000000E+00  0.00000000000E+00  0.29546964738E+03  0.29546964738E+03  0.00000000000E+00 0.  1.
         21   -1    0    0  502  503 -0.00000000000E+00 -0.00000000000E+00 -0.11806312916E+03  0.11806312916E+03  0.00000000000E+00 0.  1.
          6    1    1    2  501    0  0.43457099974E+02 -0.50456515140E+02  0.11396461633E+03  0.21760356898E+03  0.17300000000E+03 0.  1.
         -6    1    1    2    0  503 -0.43457099974E+02  0.50456515140E+02  0.63441901898E+02  0.19592920756E+03  0.17300000000E+03 0.  1.
<mgrwt>
<rscale>  2 0.18537362E+03</rscale>
<asrwt>0</asrwt>
<pdfrwt beam="1">  1       21 0.45456869E-01 0.18537362E+03</pdfrwt>
<pdfrwt beam="2">  1       21 0.18163558E-01 0.18537362E+03</pdfrwt>
<totfact> 0.12846598E+05</totfact>
</mgrwt>
</event>
<event>
 4    1  0.4067306E+000  0.2084146E+03  0.7546771E-02  0.1142828E+00
         21   -1    0    0  501  502  0.00000000000E+00  0.00000000000E+00  0.90844772424E+03  0.90844772424E+03  0.00000000000E+00 0. -1.
         21   -1    0    0  502  503 -0.00000000000E+00 -0.00000000000E+00 -0.48487554870E+02  0.48487554870E+02  0.00000000000E+00 0.  1.
          6    1    1    2  501    0  0.92109396890E+02 -0.70876562548E+02  0.48636791257E+03  0.52914116689E+03  0.17300000000E+03 0. -1.
         -6    1    1    2    0  503 -0.92109396890E+02  0.70876562548E+02  0.37359225680E+03  0.42779411223E+03  0.17300000000E+03 0.  1.
<mgrwt>
<rscale>  2 0.20841456E+03</rscale>
<asrwt>0</asrwt>
<pdfrwt beam="1">  1       21 0.13976118E+00 0.20841456E+03</pdfrwt>
<pdfrwt beam="2">  1       21 0.74596245E-02 0.20841456E+03</pdfrwt>
<totfact> 0.48278209E+04</totfact>
</mgrwt>
</event>
<event>
 4    1  0.4067306E+000  0.2534543E+03  0.7546771E-02  0.1111141E+00
         21   -1    0    0  503  502  0.00000000000E+00  0.00000000000E+00  0.35883218628E+03  0.35883218628E+03  0.00000000000E+00 0. -1.
         21   -1    0    0  501  503 -0.00000000000E+00 -0.00000000000E+00 -0.20251009602E+03  0.20251009602E+03  0.00000000000E+00 0.  1.
          6    1    1    2  501    0  0.98681486610E+02 -0.15675478115E+03 -0.17424474117E+02  0.25405257234E+03  0.17300000000E+03 0.  1.
         -6    1    1    2    0  502 -0.98681486610E+02  0.15675478115E+03  0.17374656439E+03  0.30728970996E+03  0.17300000000E+03 0. -1.
<mgrwt>
<rscale>  2 0.25345433E+03</rscale>
<asrwt>0</asrwt>
<pdfrwt beam="1">  1       21 0.55204952E-01 0.25345433E+03</pdfrwt>
<pdfrwt beam="2">  1       21 0.31155400E-01 0.25345433E+03</pdfrwt>
<totfact> 0.29716974E+04</totfact>
</mgrwt>
</event>
<event>
 4    1  0.4067306E+000  0.1984835E+03  0.7546771E-02  0.1151025E+00
         21   -1    0    0  501  502  0.00000000000E+00  0.00000000000E+00  0.71542146327E+03  0.71542146327E+03  0.00000000000E+00 0.  1.
         21   -1    0    0  502  503 -0.00000000000E+00 -0.00000000000E+00 -0.72092142065E+02  0.72092142065E+02  0.00000000000E+00 0.  1.
          6    1    1    2  501    0 -0.89378108336E+02 -0.38448272784E+02  0.51301823050E+03  0.55007583183E+03  0.17300000000E+03 0.  1.
         -6    1    1    2    0  503  0.89378108336E+02  0.38448272784E+02  0.13031109071E+03  0.23743777351E+03  0.17300000000E+03 0.  1.
<mgrwt>
<rscale>  2 0.19848354E+03</rscale>
<asrwt>0</asrwt>
<pdfrwt beam="1">  1       21 0.11006484E+00 0.19848354E+03</pdfrwt>
<pdfrwt beam="2">  1       21 0.11091099E-01 0.19848354E+03</pdfrwt>
<totfact> 0.43906973E+04</totfact>
</mgrwt>
</event>
<event>
 4    1  0.4067306E+000  0.3102621E+03  0.7546771E-02  0.1080220E+00
         21   -1    0    0  503  502  0.00000000000E+00  0.00000000000E+00  0.54123057204E+03  0.54123057204E+03  0.00000000000E+00 0.  1.
         21   -1    0    0  501  503 -0.00000000000E+00 -0.00000000000E+00 -0.19884168836E+03  0.19884168836E+03  0.00000000000E+00 0.  1.
          6    1    1    2  501    0 -0.14493333852E+03 -0.21290345243E+03  0.50988943554E+02  0.31442395748E+03  0.17300000000E+03 0.  1.
         -6    1    1    2    0  502  0.14493333852E+03  0.21290345243E+03  0.29139994012E+03  0.42564830292E+03  0.17300000000E+03 0.  1.
<mgrwt>
<rscale>  2 0.31026207E+03</rscale>
<asrwt>0</asrwt>
<pdfrwt beam="1">  1       21 0.83266241E-01 0.31026207E+03</pdfrwt>
<pdfrwt beam="2">  1       21 0.30591029E-01 0.31026207E+03</pdfrwt>
<totfact> 0.12092829E+04</totfact>
</mgrwt>
</event>
<event>
 4    1  0.4067306E+000  0.1820909E+03  0.7546771E-02  0.1165795E+00
         21   -1    0    0  503  502  0.00000000000E+00  0.00000000000E+00  0.29984204734E+03  0.29984204734E+03  0.00000000000E+00 0. -1.
         21   -1    0    0  501  503 -0.00000000000E+00 -0.00000000000E+00 -0.16504346812E+03  0.16504346812E+03  0.00000000000E+00 0. -1.
          6    1    1    2  501    0  0.53808747102E+02 -0.18240262289E+02 -0.66125566111E+02  0.19372578281E+03  0.17300000000E+03 0. -1.
         -6    1    1    2    0  502 -0.53808747102E+02  0.18240262289E+02  0.20092414533E+03  0.27115973265E+03  0.17300000000E+03 0. -1.
<mgrwt>
<rscale>  2 0.18209088E+03</rscale>
<asrwt>0</asrwt>
<pdfrwt beam="1">  1       21 0.46129546E-01 0.18209088E+03</pdfrwt>
<pdfrwt beam="2">  1       21 0.25391303E-01 0.18209088E+03</pdfrwt>
<totfact> 0.66513989E+04</totfact>
</mgrwt>
</event>
<event>
 4    1  0.4067306E+000  0.3217748E+03  0.7546771E-02  0.1074835E+00
         21   -1    0    0  503  502  0.00000000000E+00  0.00000000000E+00  0.46873533449E+03  0.46873533449E+03  0.00000000000E+00 0. -1.
         21   -1    0    0  501  503 -0.00000000000E+00 -0.00000000000E+00 -0.26976303576E+03  0.26976303576E+03  0.00000000000E+00 0.  1.
          6    1    1    2  501    0 -0.23736831623E+03  0.13140132468E+03 -0.57681170580E+02  0.32690387443E+03  0.17300000000E+03 0.  1.
         -6    1    1    2    0  502  0.23736831623E+03 -0.13140132468E+03  0.25665346931E+03  0.41159449582E+03  0.17300000000E+03 0. -1.
<mgrwt>
<rscale>  2 0.32177481E+03</rscale>
<asrwt>0</asrwt>
<pdfrwt beam="1">  1       21 0.72113129E-01 0.32177481E+03</pdfrwt>
<pdfrwt beam="2">  1       21 0.41502005E-01 0.32177481E+03</pdfrwt>
<totfact> 0.90321276E+03</totfact>
</mgrwt>
</event>
<event>
 4    1  0.4067306E+000  0.3164944E+03  0.7546771E-02  0.1077274E+00
         21   -1    0    0  501  502  0.00000000000E+00  0.00000000000E+00  0.84405786140E+03  0.84405786140E+03  0.00000000000E+00 0. -1.
         21   -1    0    0  502  503 -0.00000000000E+00 -0.00000000000E+00 -0.18009194156E+03  0.18009194156E+03  0.00000000000E+00 0.  1.
          6    1    1    2  501    0 -0.26306781057E+03 -0.32172049084E+02  0.63102333385E+03  0.70594557974E+03  0.17300000000E+03 0. -1.
         -6    1    1    2    0  503  0.26306781057E+03  0.32172049084E+02  0.32942585997E+02  0.31820422321E+03  0.17300000000E+03 0.  1.
<mgrwt>
<rscale>  2 0.31649441E+03</rscale>
<asrwt>0</asrwt>
<pdfrwt beam="1">  1       21 0.12985505E+00 0.31649441E+03</pdfrwt>
<pdfrwt beam="2">  1       21 0.27706453E-01 0.31649441E+03</pdfrwt>
<totfact> 0.49769941E+03</totfact>
</mgrwt>
</event>
<event>
 4    1  0.4067306E+000  0.1767085E+03  0.7546771E-02  0.1171027E+00
         21   -1    0    0  503  502  0.00000000000E+00  0.00000000000E+00  0.55318946302E+02  0.55318946302E+02  0.00000000000E+00 0.  1.
         21   -1    0    0  501  503 -0.00000000000E+00 -0.00000000000E+00 -0.58225690858E+03  0.58225690858E+03  0.00000000000E+00 0.  1.
          6    1    1    2  501    0 -0.28725254859E+02 -0.21719657952E+02 -0.31918693729E+03  0.36483720307E+03  0.17300000000E+03 0.  1.
         -6    1    1    2    0  502  0.28725254859E+02  0.21719657952E+02 -0.20775102498E+03  0.27273865181E+03  0.17300000000E+03 0.  1.
<mgrwt>
<rscale>  2 0.17670847E+03</rscale>
<asrwt>0</asrwt>
<pdfrwt beam="1">  1       21 0.85106073E-02 0.17670847E+03</pdfrwt>
<pdfrwt beam="2">  1       21 0.89577984E-01 0.17670847E+03</pdfrwt>
<totfact> 0.11512032E+05</totfact>
</mgrwt>
</event>
<event>
 4    1  0.4067306E+000  0.1749521E+03  0.7546771E-02  0.1172780E+00
         21   -1    0    0  501  502  0.00000000000E+00  0.00000000000E+00  0.30089067565E+02  0.30089067565E+02  0.00000000000E+00 0.  1.
         21   -1    0    0  502  503 -0.00000000000E+00 -0.00000000000E+00 -0.11235624046E+04  0.11235624046E+04  0.00000000000E+00 0.  1.
          6    1    1    2  501    0 -0.26013080170E+02  0.15955672692E+01 -0.36930558484E+03  0.40865002284E+03  0.17300000000E+03 0.  1.
         -6    1    1    2    0  503  0.26013080170E+02 -0.15955672692E+01 -0.72416775224E+03  0.74500144937E+03  0.17300000000E+03 0.  1.
<mgrwt>
<rscale>  2 0.17495207E+03</rscale>
<asrwt>0</asrwt>
<pdfrwt beam="1">  1       21 0.46290876E-02 0.17495207E+03</pdfrwt>
<pdfrwt beam="2">  1       21 0.17285574E+00 0.17495207E+03</pdfrwt>
<totfact> 0.63099957E+04</totfact>
</mgrwt>
</event>
<event>
 4    1  0.4067306E+000  0.2553400E+03  0.7546771E-02  0.1109976E+00
         21   -1    0    0  503  502  0.00000000000E+00  0.00000000000E+00  0.32094744104E+03  0.32094744104E+03  0.00000000000E+00 0.  1.
         21   -1    0    0  501  503 -0.00000000000E+00 -0.00000000000E+00 -0.22100504855E+03  0.22100504855E+03  0.00000000000E+00 0.  1.
          6    1    1    2  501    0  0.17485404610E+03 -0.68524461362E+02  0.12700545190E+03  0.28518226462E+03  0.17300000000E+03 0.  1.
         -6    1    1    2    0  502 -0.17485404610E+03  0.68524461362E+02 -0.27063059409E+02  0.25677022496E+03  0.17300000000E+03 0.  1.
<mgrwt>
<rscale>  2 0.25534005E+03</rscale>
<asrwt>0</asrwt>
<pdfrwt beam="1">  1       21 0.49376529E-01 0.25534005E+03</pdfrwt>
<pdfrwt beam="2">  1       21 0.34000777E-01 0.25534005E+03</pdfrwt>
<totfact> 0.31613833E+04</totfact>
</mgrwt>
</event>
<event>
 4    1  0.4067306E+000  0.2772660E+03  0.7546771E-02  0.1097192E+00
         21   -1    0    0  501  502  0.00000000000E+00  0.00000000000E+00  0.97113138649E+03  0.97113138649E+03  0.00000000000E+00 0. -1.
         21   -1    0    0  502  503 -0.00000000000E+00 -0.00000000000E+00 -0.92054529245E+02  0.92054529245E+02  0.00000000000E+00 0. -1.
          6    1    1    2  501    0 -0.10892394825E+03  0.18730461546E+03  0.63848211643E+03  0.69608609990E+03  0.17300000000E+03 0. -1.
         -6    1    1    2    0  503  0.10892394825E+03 -0.18730461546E+03  0.24059474081E+03  0.36709981583E+03  0.17300000000E+03 0. -1.
<mgrwt>
<rscale>  2 0.27726602E+03</rscale>
<asrwt>0</asrwt>
<pdfrwt beam="1">  1       21 0.14940482E+00 0.27726602E+03</pdfrwt>
<pdfrwt beam="2">  1       21 0.14162236E-01 0.27726602E+03</pdfrwt>
<totfact> 0.12476557E+04</totfact>
</mgrwt>
</event>
<event>
 4    1  0.4067306E+000  0.2605442E+03  0.7546771E-02  0.1106817E+00
         21   -1    0    0  501  502  0.00000000000E+00  0.00000000000E+00  0.89468116895E+03  0.89468116895E+03  0.00000000000E+00 0. -1.
         21   -1    0    0  502  503 -0.00000000000E+00 -0.00000000000E+00 -0.76745279551E+02  0.76745279551E+02  0.00000000000E+00 0. -1.
          6    1    1    2  501    0 -0.12077429488E+03 -0.15286541209E+03  0.35722275000E+03  0.44214404625E+03  0.17300000000E+03 0. -1.
         -6    1    1    2    0  503  0.12077429488E+03  0.15286541209E+03  0.46071313939E+03  0.52928240225E+03  0.17300000000E+03 0. -1.
<mgrwt>
<rscale>  2 0.26054417E+03</rscale>
<asrwt>0</asrwt>
<pdfrwt beam="1">  1       21 0.13764325E+00 0.26054417E+03</pdfrwt>
<pdfrwt beam="2">  1       21 0.11806967E-01 0.26054417E+03</pdfrwt>
<totfact> 0.21718582E+04</totfact>
</mgrwt>
</event>
<event>
 4    1  0.4067306E+000  0.2064498E+03  0.7546771E-02  0.1144409E+00
         21   -1    0    0  501  502  0.00000000000E+00  0.00000000000E+00  0.31466396580E+03  0.31466396580E+03  0.00000000000E+00 0. -1.
         21   -1    0    0  502  503 -0.00000000000E+00 -0.00000000000E+00 -0.88363852430E+03  0.88363852430E+03  0.00000000000E+00 0. -1.
          6    1    1    2  501    0  0.55883823121E+02  0.97823998721E+02  0.26683353368E+03  0.33737467467E+03  0.17300000000E+03 0. -1.
         -6    1    1    2    0  503 -0.55883823121E+02 -0.97823998721E+02 -0.83580809219E+03  0.86092781543E+03  0.17300000000E+03 0. -1.
<mgrwt>
<rscale>  2 0.20644984E+03</rscale>
<asrwt>0</asrwt>
<pdfrwt beam="1">  1       21 0.48409842E-01 0.20644984E+03</pdfrwt>
<pdfrwt beam="2">  1       21 0.13594439E+00 0.20644984E+03</pdfrwt>
<totfact> 0.15521335E+03</totfact>
</mgrwt>
</event>
<event>
 4    1  0.4067306E+000  0.2248451E+03  0.7546771E-02  0.1130322E+00
         21   -1    0    0  503  502  0.00000000000E+00  0.00000000000E+00  0.17144781918E+03  0.17144781918E+03  0.00000000000E+00 0.  1.
         21   -1    0    0  501  503 -0.00000000000E+00 -0.00000000000E+00 -0.31360292620E+03  0.31360292620E+03  0.00000000000E+00 0. -1.
          6    1    1    2  501    0  0.57693274767E+02  0.13152108643E+03 -0.11807312586E+02  0.22515488615E+03  0.17300000000E+03 0.  1.
         -6    1    1    2    0  502 -0.57693274767E+02 -0.13152108643E+03 -0.13034779443E+03  0.25989585922E+03  0.17300000000E+03 0.  1.
<mgrwt>
<rscale>  2 0.22484508E+03</rscale>
<asrwt>0</asrwt>
<pdfrwt beam="1">  1       21 0.26376588E-01 0.22484508E+03</pdfrwt>
<pdfrwt beam="2">  1       21 0.48246603E-01 0.22484508E+03</pdfrwt>
<totfact> 0.55279950E+04</totfact>
</mgrwt>
</event>
<event>
 4    1  0.4067306E+000  0.2031081E+03  0.7546771E-02  0.1147143E+00
         21   -1    0    0  501  502  0.00000000000E+00  0.00000000000E+00  0.12417675097E+03  0.12417675097E+03  0.00000000000E+00 0.  1.
         21   -1    0    0  502  503 -0.00000000000E+00 -0.00000000000E+00 -0.48558980700E+03  0.48558980700E+03  0.00000000000E+00 0.  1.
          6    1    1    2  501    0  0.43554841902E+02 -0.97092077519E+02 -0.93576151456E+01  0.20332353708E+03  0.17300000000E+03 0.  1.
         -6    1    1    2    0  503 -0.43554841902E+02  0.97092077519E+02 -0.35205544088E+03  0.40644302088E+03  0.17300000000E+03 0.  1.
<mgrwt>
<rscale>  2 0.20310809E+03</rscale>
<asrwt>0</asrwt>
<pdfrwt beam="1">  1       21 0.19104116E-01 0.20310809E+03</pdfrwt>
<pdfrwt beam="2">  1       21 0.74706123E-01 0.20310809E+03</pdfrwt>
<totfact> 0.40104853E+04</totfact>
</mgrwt>
</event>
<event>
 4    1  0.4067306E+000  0.3456353E+03  0.7546771E-02  0.1064421E+00
         21   -1    0    0  501  502  0.00000000000E+00  0.00000000000E+00  0.13084597696E+04  0.13084597696E+04  0.00000000000E+00 0. -1.
         21   -1    0    0  502  503 -0.00000000000E+00 -0.00000000000E+00 -0.12453392108E+03  0.12453392108E+03  0.00000000000E+00 0. -1.
          6    1    1    2  501    0 -0.63642606654E+01 -0.29915593780E+03  0.96209288606E+03  0.10222947228E+04  0.17300000000E+03 0. -1.
         -6    1    1    2    0  503  0.63642606654E+01  0.29915593780E+03  0.22183296243E+03  0.41069896780E+03  0.17300000000E+03 0. -1.
<mgrwt>
<rscale>  2 0.34563533E+03</rscale>
<asrwt>0</asrwt>
<pdfrwt beam="1">  1       21 0.20130149E+00 0.34563533E+03</pdfrwt>
<pdfrwt beam="2">  1       21 0.19159066E-01 0.34563533E+03</pdfrwt>
<totfact> 0.29435020E+03</totfact>
</mgrwt>
</event>
<event>
 4    1  0.4067306E+000  0.1862393E+03  0.7546771E-02  0.1161898E+00
         21   -1    0    0  501  502  0.00000000000E+00  0.00000000000E+00  0.34530111008E+03  0.34530111008E+03  0.00000000000E+00 0.  1.
         21   -1    0    0  502  503 -0.00000000000E+00 -0.00000000000E+00 -0.15637366972E+03  0.15637366972E+03  0.00000000000E+00 0.  1.
          6    1    1    2  501    0  0.64712612144E+02  0.23840209919E+02  0.24447122894E+03  0.30732923642E+03  0.17300000000E+03 0.  1.
         -6    1    1    2    0  503 -0.64712612144E+02 -0.23840209919E+02 -0.55543788580E+02  0.19434554337E+03  0.17300000000E+03 0.  1.
<mgrwt>
<rscale>  2 0.18623930E+03</rscale>
<asrwt>0</asrwt>
<pdfrwt beam="1">  1       21 0.53123247E-01 0.18623930E+03</pdfrwt>
<pdfrwt beam="2">  1       21 0.24057488E-01 0.18623930E+03</pdfrwt>
<totfact> 0.54858836E+04</totfact>
</mgrwt>
</event>
<event>
 4    1  0.4067306E+000  0.2231955E+03  0.7546771E-02  0.1131523E+00
         21   -1    0    0  503  502  0.00000000000E+00  0.00000000000E+00  0.50964031040E+02  0.50964031040E+02  0.00000000000E+00 0. -1.
         21   -1    0    0  501  503 -0.00000000000E+00 -0.00000000000E+00 -0.99405516737E+03  0.99405516737E+03  0.00000000000E+00 0. -1.
          6    1    1    2  501    0  0.28443274144E+02  0.13812388231E+03 -0.40407066906E+03  0.46161600092E+03  0.17300000000E+03 0. -1.
         -6    1    1    2    0  502 -0.28443274144E+02 -0.13812388231E+03 -0.53902046727E+03  0.58340319749E+03  0.17300000000E+03 0. -1.
<mgrwt>
<rscale>  2 0.22319549E+03</rscale>
<asrwt>0</asrwt>
<pdfrwt beam="1">  1       21 0.78406207E-02 0.22319549E+03</pdfrwt>
<pdfrwt beam="2">  1       21 0.15293155E+00 0.22319549E+03</pdfrwt>
<totfact> 0.34663880E+04</totfact>
</mgrwt>
</event>
<event>
 4    1  0.4067306E+000  0.1887146E+03  0.7546771E-02  0.1159626E+00
         21   -1    0    0  503  502  0.00000000000E+00  0.00000000000E+00  0.89249371026E+03  0.89249371026E+03  0.00000000000E+00 0.  1.
         21   -1    0    0  501  503 -0.00000000000E+00 -0.00000000000E+00 -0.88402649098E+02  0.88402649098E+02  0.00000000000E+00 0.  1.
          6    1    1    2  501    0  0.38381120623E+02  0.64892847868E+02  0.38775385630E+02  0.19265700780E+03  0.17300000000E+03 0.  1.
         -6    1    1    2    0  502 -0.38381120623E+02 -0.64892847868E+02  0.76531567553E+03  0.78823935155E+03  0.17300000000E+03 0.  1.
<mgrwt>
<rscale>  2 0.18871458E+03</rscale>
<asrwt>0</asrwt>
<pdfrwt beam="1">  1       21 0.13730672E+00 0.18871458E+03</pdfrwt>
<pdfrwt beam="2">  1       21 0.13600408E-01 0.18871458E+03</pdfrwt>
<totfact> 0.17673728E+04</totfact>
</mgrwt>
</event>
<event>
 4    1  0.4067306E+000  0.1791640E+03  0.7546771E-02  0.1168615E+00
         21   -1    0    0  501  502  0.00000000000E+00  0.00000000000E+00  0.73689983923E+02  0.73689983923E+02  0.00000000000E+00 0.  1.
         21   -1    0    0  502  503 -0.00000000000E+00 -0.00000000000E+00 -0.68858123145E+03  0.68858123145E+03  0.00000000000E+00 0.  1.
          6    1    1    2  501    0 -0.47205879397E+01 -0.46351377850E+02 -0.76429819524E+02  0.19478514187E+03  0.17300000000E+03 0.  1.
         -6    1    1    2    0  503  0.47205879397E+01  0.46351377850E+02 -0.53846142800E+03  0.56748607351E+03  0.17300000000E+03 0.  1.
<mgrwt>
<rscale>  2 0.17916399E+03</rscale>
<asrwt>0</asrwt>
<pdfrwt beam="1">  1       21 0.11336921E-01 0.17916399E+03</pdfrwt>
<pdfrwt beam="2">  1       21 0.10593557E+00 0.17916399E+03</pdfrwt>
<totfact> 0.46776136E+04</totfact>
</mgrwt>
</event>
<event>
 4    1  0.4067306E+000  0.1895496E+03  0.7546771E-02  0.1158868E+00
         21   -1    0    0  501  502  0.00000000000E+00  0.00000000000E+00  0.44005189887E+03  0.44005189887E+03  0.00000000000E+00 0. -1.
         21   -1    0    0  502  503 -0.00000000000E+00 -0.00000000000E+00 -0.22549197567E+03  0.22549197567E+03  0.00000000000E+00 0.  1.
          6    1    1    2  501    0  0.32832747030E+02 -0.70157281406E+02  0.37306351270E+03  0.41845599282E+03  0.17300000000E+03 0. -1.
         -6    1    1    2    0  503 -0.32832747030E+02  0.70157281406E+02 -0.15850358950E+03  0.24708788173E+03  0.17300000000E+03 0.  1.
<mgrwt>
<rscale>  2 0.18954955E+03</rscale>
<asrwt>0</asrwt>
<pdfrwt beam="1">  1       21 0.67700292E-01 0.18954955E+03</pdfrwt>
<pdfrwt beam="2">  1       21 0.34691073E-01 0.18954955E+03</pdfrwt>
<totfact> 0.16002055E+04</totfact>
</mgrwt>
</event>
<event>
 4    1  0.4067306E+000  0.2105911E+03  0.7546771E-02  0.1141099E+00
         21   -1    0    0  501  502  0.00000000000E+00  0.00000000000E+00  0.39012677607E+03  0.39012677607E+03  0.00000000000E+00 0. -1.
         21   -1    0    0  502  503 -0.00000000000E+00 -0.00000000000E+00 -0.67503046456E+03  0.67503046456E+03  0.00000000000E+00 0.  1.
          6    1    1    2  501    0  0.86019754068E+01 -0.11977323355E+03  0.34321680163E+03  0.40267405476E+03  0.17300000000E+03 0. -1.
         -6    1    1    2    0  503 -0.86019754068E+01  0.11977323355E+03 -0.62812049012E+03  0.66248318587E+03  0.17300000000E+03 0.  1.
<mgrwt>
<rscale>  2 0.21059112E+03</rscale>
<asrwt>0</asrwt>
<pdfrwt beam="1">  1       21 0.60019504E-01 0.21059112E+03</pdfrwt>
<pdfrwt beam="2">  1       21 0.10385084E+00 0.21059112E+03</pdfrwt>
<totfact> 0.19113319E+03</totfact>
</mgrwt>
</event>
<event>
 4    1  0.4067306E+000  0.2054185E+03  0.7546771E-02  0.1145246E+00
         21   -1    0    0  503  502  0.00000000000E+00  0.00000000000E+00  0.19119898118E+03  0.19119898118E+03  0.00000000000E+00 0. -1.
         21   -1    0    0  501  503 -0.00000000000E+00 -0.00000000000E+00 -0.22089272242E+03  0.22089272242E+03  0.00000000000E+00 0. -1.
          6    1    1    2  501    0 -0.74961950222E+02 -0.81538154736E+02 -0.21002808860E+02  0.20648942500E+03  0.17300000000E+03 0. -1.
         -6    1    1    2    0  502  0.74961950222E+02  0.81538154736E+02 -0.86909323868E+01  0.20560227860E+03  0.17300000000E+03 0. -1.
<mgrwt>
<rscale>  2 0.20541851E+03</rscale>
<asrwt>0</asrwt>
<pdfrwt beam="1">  1       21 0.29415228E-01 0.20541851E+03</pdfrwt>
<pdfrwt beam="2">  1       21 0.33983496E-01 0.20541851E+03</pdfrwt>
<totfact> 0.91888879E+04</totfact>
</mgrwt>
</event>
<event>
 4    1  0.4067306E+000  0.2303477E+03  0.7546771E-02  0.1126395E+00
         21   -1    0    0  501  502  0.00000000000E+00  0.00000000000E+00  0.87608726421E+03  0.87608726421E+03  0.00000000000E+00 0.  1.
         21   -1    0    0  502  503 -0.00000000000E+00 -0.00000000000E+00 -0.60810650372E+02  0.60810650372E+02  0.00000000000E+00 0. -1.
          6    1    1    2  501    0 -0.11218521561E+03 -0.10269142695E+03  0.43742388547E+03  0.49436798779E+03  0.17300000000E+03 0. -1.
         -6    1    1    2    0  503  0.11218521561E+03  0.10269142695E+03  0.37785272837E+03  0.44252992680E+03  0.17300000000E+03 0.  1.
<mgrwt>
<rscale>  2 0.23034768E+03</rscale>
<asrwt>0</asrwt>
<pdfrwt beam="1">  1       21 0.13478265E+00 0.23034768E+03</pdfrwt>
<pdfrwt beam="2">  1       21 0.93554853E-02 0.23034768E+03</pdfrwt>
<totfact> 0.35245008E+04</totfact>
</mgrwt>
</event>
<event>
 4    1  0.4067306E+000  0.2113317E+03  0.7546771E-02  0.1140516E+00
         21   -1    0    0  503  502  0.00000000000E+00  0.00000000000E+00  0.32019266228E+02  0.32019266228E+02  0.00000000000E+00 0.  1.
         21   -1    0    0  501  503 -0.00000000000E+00 -0.00000000000E+00 -0.15939244881E+04  0.15939244881E+04  0.00000000000E+00 0.  1.
          6    1    1    2  501    0 -0.71428089272E+01 -0.12116542291E+03 -0.49362106028E+03  0.53695701000E+03  0.17300000000E+03 0.  1.
         -6    1    1    2    0  502  0.71428089272E+01  0.12116542291E+03 -0.10682841616E+04  0.10889867443E+04  0.17300000000E+03 0.  1.
<mgrwt>
<rscale>  2 0.21133168E+03</rscale>
<asrwt>0</asrwt>
<pdfrwt beam="1">  1       21 0.49260411E-02 0.21133168E+03</pdfrwt>
<pdfrwt beam="2">  1       21 0.24521915E+00 0.21133168E+03</pdfrwt>
<totfact> 0.19267491E+04</totfact>
</mgrwt>
</event>
<event>
 4    1  0.4067306E+000  0.2123508E+03  0.7546771E-02  0.1139718E+00
         21   -1    0    0  501  502  0.00000000000E+00  0.00000000000E+00  0.54322826344E+03  0.54322826344E+03  0.00000000000E+00 0. -1.
         21   -1    0    0  502  503 -0.00000000000E+00 -0.00000000000E+00 -0.15509838961E+03  0.15509838961E+03  0.00000000000E+00 0.  1.
          6    1    1    2  501    0  0.19406298232E+02  0.12160278736E+03  0.43211078517E+03  0.48146918174E+03  0.17300000000E+03 0. -1.
         -6    1    1    2    0  503 -0.19406298232E+02 -0.12160278736E+03 -0.43980911335E+02  0.21685747132E+03  0.17300000000E+03 0.  1.
<mgrwt>
<rscale>  2 0.21235075E+03</rscale>
<asrwt>0</asrwt>
<pdfrwt beam="1">  1       21 0.83573578E-01 0.21235075E+03</pdfrwt>
<pdfrwt beam="2">  1       21 0.23861291E-01 0.21235075E+03</pdfrwt>
<totfact> 0.20374547E+04</totfact>
</mgrwt>
</event>
<event>
 4    1  0.4067306E+000  0.2150640E+03  0.7546771E-02  0.1137617E+00
         21   -1    0    0  503  502  0.00000000000E+00  0.00000000000E+00  0.42629652398E+03  0.42629652398E+03  0.00000000000E+00 0.  1.
         21   -1    0    0  501  503 -0.00000000000E+00 -0.00000000000E+00 -0.30872322414E+03  0.30872322414E+03  0.00000000000E+00 0.  1.
          6    1    1    2  501    0 -0.12044922790E+03  0.42608696031E+02 -0.23718032522E+03  0.32016718156E+03  0.17300000000E+03 0.  1.
         -6    1    1    2    0  502  0.12044922790E+03 -0.42608696031E+02  0.35475362506E+03  0.41485256655E+03  0.17300000000E+03 0.  1.
<mgrwt>
<rscale>  2 0.21506398E+03</rscale>
<asrwt>0</asrwt>
<pdfrwt beam="1">  1       21 0.65584080E-01 0.21506398E+03</pdfrwt>
<pdfrwt beam="2">  1       21 0.47495881E-01 0.21506398E+03</pdfrwt>
<totfact> 0.89232119E+03</totfact>
</mgrwt>
</event>
<event>
 4    1  0.4067306E+000  0.1918079E+03  0.7546771E-02  0.1156841E+00
         21   -1    0    0  503  502  0.00000000000E+00  0.00000000000E+00  0.55075026949E+02  0.55075026949E+02  0.00000000000E+00 0. -1.
         21   -1    0    0  501  503 -0.00000000000E+00 -0.00000000000E+00 -0.10147071286E+04  0.10147071286E+04  0.00000000000E+00 0.  1.
          6    1    1    2  501    0 -0.22612041895E+01 -0.82801885407E+02 -0.79247776811E+03  0.81535960056E+03  0.17300000000E+03 0.  1.
         -6    1    1    2    0  502  0.22612041895E+01  0.82801885407E+02 -0.16715433356E+03  0.25442255502E+03  0.17300000000E+03 0. -1.
<mgrwt>
<rscale>  2 0.19180789E+03</rscale>
<asrwt>0</asrwt>
<pdfrwt beam="1">  1       21 0.84730816E-02 0.19180789E+03</pdfrwt>
<pdfrwt beam="2">  1       21 0.15610878E+00 0.19180789E+03</pdfrwt>
<totfact> 0.29209586E+04</totfact>
</mgrwt>
</event>
<event>
 4    1  0.4067306E+000  0.1814996E+03  0.7546771E-02  0.1166360E+00
         21   -1    0    0  503  502  0.00000000000E+00  0.00000000000E+00  0.12018972079E+04  0.12018972079E+04  0.00000000000E+00 0.  1.
         21   -1    0    0  501  503 -0.00000000000E+00 -0.00000000000E+00 -0.33987641088E+02  0.33987641088E+02  0.00000000000E+00 0.  1.
          6    1    1    2  501    0 -0.51168444514E+02 -0.19871757277E+02  0.31207624040E+03  0.36101755674E+03  0.17300000000E+03 0.  1.
         -6    1    1    2    0  502  0.51168444514E+02  0.19871757277E+02  0.85583332646E+03  0.87486729229E+03  0.17300000000E+03 0.  1.
<mgrwt>
<rscale>  2 0.18149958E+03</rscale>
<asrwt>0</asrwt>
<pdfrwt beam="1">  1       21 0.18490723E+00 0.18149958E+03</pdfrwt>
<pdfrwt beam="2">  1       21 0.52288688E-02 0.18149958E+03</pdfrwt>
<totfact> 0.42337727E+04</totfact>
</mgrwt>
</event>
<event>
 4    1  0.4067306E+000  0.3154815E+03  0.7546771E-02  0.1077748E+00
         21   -1    0    0  501  502  0.00000000000E+00  0.00000000000E+00  0.54600873679E+02  0.54600873679E+02  0.00000000000E+00 0.  1.
         21   -1    0    0  502  503 -0.00000000000E+00 -0.00000000000E+00 -0.19631748400E+04  0.19631748400E+04  0.00000000000E+00 0. -1.
          6    1    1    2  501    0 -0.25751486905E+03 -0.57320543388E+02 -0.12240293147E+04  0.12640317700E+04  0.17300000000E+03 0.  1.
         -6    1    1    2    0  503  0.25751486905E+03  0.57320543388E+02 -0.68454465161E+03  0.75374394361E+03  0.17300000000E+03 0. -1.
<mgrwt>
<rscale>  2 0.31548146E+03</rscale>
<asrwt>0</asrwt>
<pdfrwt beam="1">  1       21 0.84001343E-02 0.31548146E+03</pdfrwt>
<pdfrwt beam="2">  1       21 0.30202690E+00 0.31548146E+03</pdfrwt>
<totfact> 0.32659735E+03</totfact>
</mgrwt>
</event>
<event>
 4    1  0.4067306E+000  0.1759275E+03  0.7546771E-02  0.1171804E+00
         21   -1    0    0  501  502  0.00000000000E+00  0.00000000000E+00  0.57834768813E+03  0.57834768813E+03  0.00000000000E+00 0.  1.
         21   -1    0    0  502  503 -0.00000000000E+00 -0.00000000000E+00 -0.88910191108E+02  0.88910191108E+02  0.00000000000E+00 0.  1.
          6    1    1    2  501    0 -0.22438805878E+02 -0.22759176246E+02  0.45522156670E+03  0.48803396900E+03  0.17300000000E+03 0.  1.
         -6    1    1    2    0  503  0.22438805878E+02  0.22759176246E+02  0.34215930325E+02  0.17922391024E+03  0.17300000000E+03 0.  1.
<mgrwt>
<rscale>  2 0.17592749E+03</rscale>
<asrwt>0</asrwt>
<pdfrwt beam="1">  1       21 0.88976565E-01 0.17592749E+03</pdfrwt>
<pdfrwt beam="2">  1       21 0.13678491E-01 0.17592749E+03</pdfrwt>
<totfact> 0.50438413E+04</totfact>
</mgrwt>
</event>
<event>
 4    1  0.4067306E+000  0.1843589E+03  0.7546771E-02  0.1163650E+00
         21   -1    0    0  503  502  0.00000000000E+00  0.00000000000E+00  0.31805062683E+02  0.31805062683E+02  0.00000000000E+00 0. -1.
         21   -1    0    0  501  503 -0.00000000000E+00 -0.00000000000E+00 -0.11482095598E+04  0.11482095598E+04  0.00000000000E+00 0. -1.
          6    1    1    2  501    0 -0.53733882325E+02 -0.34232751258E+02 -0.71351820367E+03  0.73695077064E+03  0.17300000000E+03 0. -1.
         -6    1    1    2    0  502  0.53733882325E+02  0.34232751258E+02 -0.40288629344E+03  0.44306385185E+03  0.17300000000E+03 0. -1.
<mgrwt>
<rscale>  2 0.18435892E+03</rscale>
<asrwt>0</asrwt>
<pdfrwt beam="1">  1       21 0.48930870E-02 0.18435892E+03</pdfrwt>
<pdfrwt beam="2">  1       21 0.17664761E+00 0.18435892E+03</pdfrwt>
<totfact> 0.53791753E+04</totfact>
</mgrwt>
</event>
<event>
 4    1  0.4067306E+000  0.1952780E+03  0.7546771E-02  0.1153785E+00
         21   -1    0    0  501  502  0.00000000000E+00  0.00000000000E+00  0.12132106397E+03  0.12132106397E+03  0.00000000000E+00 0. -1.
         21   -1    0    0  502  503 -0.00000000000E+00 -0.00000000000E+00 -0.31572739888E+03  0.31572739888E+03  0.00000000000E+00 0.  1.
          6    1    1    2  501    0 -0.53464295661E+02 -0.73116727881E+02 -0.82606867864E+02  0.21203155762E+03  0.17300000000E+03 0.  1.
         -6    1    1    2    0  503  0.53464295661E+02  0.73116727881E+02 -0.11179946704E+03  0.22501690523E+03  0.17300000000E+03 0. -1.
<mgrwt>
<rscale>  2 0.19527797E+03</rscale>
<asrwt>0</asrwt>
<pdfrwt beam="1">  1       21 0.18664779E-01 0.19527797E+03</pdfrwt>
<pdfrwt beam="2">  1       21 0.48573446E-01 0.19527797E+03</pdfrwt>
<totfact> 0.10613515E+05</totfact>
</mgrwt>
</event>
<event>
 4    1  0.4067306E+000  0.2383033E+03  0.7546771E-02  0.1120928E+00
         21   -1    0    0  501  502  0.00000000000E+00  0.00000000000E+00  0.47352190299E+02  0.47352190299E+02  0.00000000000E+00 0.  1.
         21   -1    0    0  502  503 -0.00000000000E+00 -0.00000000000E+00 -0.13780282762E+04  0.13780282762E+04  0.00000000000E+00 0.  1.
          6    1    1    2  501    0 -0.13364577179E+03  0.94859303878E+02 -0.40865682990E+03  0.47306329859E+03  0.17300000000E+03 0.  1.
         -6    1    1    2    0  503  0.13364577179E+03 -0.94859303878E+02 -0.92201925596E+03  0.95231716787E+03  0.17300000000E+03 0.  1.
<mgrwt>
<rscale>  2 0.23830334E+03</rscale>
<asrwt>0</asrwt>
<pdfrwt beam="1">  1       21 0.72849534E-02 0.23830334E+03</pdfrwt>
<pdfrwt beam="2">  1       21 0.21200432E+00 0.23830334E+03</pdfrwt>
<totfact> 0.15377401E+04</totfact>
</mgrwt>
</event>
<event>
 4    1  0.4067306E+000  0.1757206E+03  0.7546771E-02  0.1172010E+00
         21   -1    0    0  503  502  0.00000000000E+00  0.00000000000E+00  0.35683308679E+02  0.35683308679E+02  0.00000000000E+00 0. -1.
         21   -1    0    0  501  503 -0.00000000000E+00 -0.00000000000E+00 -0.10392939659E+04  0.10392939659E+04  0.00000000000E+00 0. -1.
          6    1    1    2  501    0 -0.19104785777E+02 -0.24160736202E+02 -0.72170944275E+03  0.74279354721E+03  0.17300000000E+03 0.  1.
         -6    1    1    2    0  502  0.19104785777E+02  0.24160736202E+02 -0.28190121448E+03  0.33218372738E+03  0.17300000000E+03 0.  1.
<mgrwt>
<rscale>  2 0.17572061E+03</rscale>
<asrwt>0</asrwt>
<pdfrwt beam="1">  1       21 0.54897398E-02 0.17572061E+03</pdfrwt>
<pdfrwt beam="2">  1       21 0.15989138E+00 0.17572061E+03</pdfrwt>
<totfact> 0.58423913E+04</totfact>
</mgrwt>
</event>
<event>
 4    1  0.4067306E+000  0.2000942E+03  0.7546771E-02  0.1149660E+00
         21   -1    0    0  501  502  0.00000000000E+00  0.00000000000E+00  0.68622863617E+02  0.68622863617E+02  0.00000000000E+00 0.  1.
         21   -1    0    0  502  503 -0.00000000000E+00 -0.00000000000E+00 -0.67999798263E+03  0.67999798263E+03  0.00000000000E+00 0.  1.
          6    1    1    2  501    0  0.39021017960E+02 -0.92660951210E+02 -0.44673335170E+03  0.48949808911E+03  0.17300000000E+03 0.  1.
         -6    1    1    2    0  503 -0.39021017960E+02  0.92660951210E+02 -0.16464176731E+03  0.25912275714E+03  0.17300000000E+03 0.  1.
<mgrwt>
<rscale>  2 0.20009421E+03</rscale>
<asrwt>0</asrwt>
<pdfrwt beam="1">  1       21 0.10557363E-01 0.20009421E+03</pdfrwt>
<pdfrwt beam="2">  1       21 0.10461508E+00 0.20009421E+03</pdfrwt>
<totfact> 0.54130760E+04</totfact>
</mgrwt>
</event>
<event>
 4    1  0.4067306E+000  0.1815854E+03  0.7546771E-02  0.1166277E+00
         21   -1    0    0  503  502  0.00000000000E+00  0.00000000000E+00  0.18855974196E+03  0.18855974196E+03  0.00000000000E+00 0.  1.
         21   -1    0    0  501  503 -0.00000000000E+00 -0.00000000000E+00 -0.26691644564E+03  0.26691644564E+03  0.00000000000E+00 0.  1.
          6    1    1    2  501    0  0.55111514382E+02  0.26426456171E+01 -0.17291602774E+03  0.25074531948E+03  0.17300000000E+03 0.  1.
         -6    1    1    2    0  502 -0.55111514382E+02 -0.26426456171E+01  0.94559324066E+02  0.20473086812E+03  0.17300000000E+03 0.  1.
<mgrwt>
<rscale>  2 0.18158541E+03</rscale>
<asrwt>0</asrwt>
<pdfrwt beam="1">  1       21 0.29009191E-01 0.18158541E+03</pdfrwt>
<pdfrwt beam="2">  1       21 0.41064068E-01 0.18158541E+03</pdfrwt>
<totfact> 0.65286623E+04</totfact>
</mgrwt>
</event>
<event>
 4    1  0.4067306E+000  0.1877409E+03  0.7546771E-02  0.1160515E+00
         21   -1    0    0  503  502  0.00000000000E+00  0.00000000000E+00  0.53295752846E+02  0.53295752846E+02  0.00000000000E+00 0. -1.
         21   -1    0    0  501  503 -0.00000000000E+00 -0.00000000000E+00 -0.66891831538E+03  0.66891831538E+03  0.00000000000E+00 0. -1.
          6    1    1    2  501    0 -0.69900699101E+02  0.20773280396E+02 -0.34624593612E+03  0.39386912191E+03  0.17300000000E+03 0. -1.
         -6    1    1    2    0  502  0.69900699101E+02 -0.20773280396E+02 -0.26937662641E+03  0.32834494631E+03  0.17300000000E+03 0. -1.
<mgrwt>
<rscale>  2 0.18774088E+03</rscale>
<asrwt>0</asrwt>
<pdfrwt beam="1">  1       21 0.81993463E-02 0.18774088E+03</pdfrwt>
<pdfrwt beam="2">  1       21 0.10291051E+00 0.18774088E+03</pdfrwt>
<totfact> 0.88326381E+04</totfact>
</mgrwt>
</event>
<event>
 4    1  0.4067306E+000  0.1833468E+03  0.7546771E-02  0.1164603E+00
         21   -1    0    0  501  502  0.00000000000E+00  0.00000000000E+00  0.83507261165E+02  0.83507261165E+02  0.00000000000E+00 0.  1.
         21   -1    0    0  502  503 -0.00000000000E+00 -0.00000000000E+00 -0.40803398405E+03  0.40803398405E+03  0.00000000000E+00 0.  1.
          6    1    1    2  501    0  0.47869543438E+02 -0.37357109183E+02 -0.13377709046E+03  0.22696333785E+03  0.17300000000E+03 0.  1.
         -6    1    1    2    0  503 -0.47869543438E+02  0.37357109183E+02 -0.19074963242E+03  0.26457790736E+03  0.17300000000E+03 0.  1.
<mgrwt>
<rscale>  2 0.18334679E+03</rscale>
<asrwt>0</asrwt>
<pdfrwt beam="1">  1       21 0.12847271E-01 0.18334679E+03</pdfrwt>
<pdfrwt beam="2">  1       21 0.62774458E-01 0.18334679E+03</pdfrwt>
<totfact> 0.12245928E+05</totfact>
</mgrwt>
</event>
<event>
 4    1  0.4067306E+000  0.2501896E+03  0.7546771E-02  0.1113185E+00
         21   -1    0    0  501  502  0.00000000000E+00  0.00000000000E+00  0.56026344403E+02  0.56026344403E+02  0.00000000000E+00 0. -1.
         21   -1    0    0  502  503 -0.00000000000E+00 -0.00000000000E+00 -0.15584328797E+04  0.15584328797E+04  0.00000000000E+00 0.  1.
          6    1    1    2  501    0 -0.17720409631E+02 -0.17986616427E+03 -0.32169899966E+03  0.40753539276E+03  0.17300000000E+03 0. -1.
         -6    1    1    2    0  503  0.17720409631E+02  0.17986616427E+03 -0.11807075356E+04  0.12069238313E+04  0.17300000000E+03 0.  1.
<mgrwt>
<rscale>  2 0.25018963E+03</rscale>
<asrwt>0</asrwt>
<pdfrwt beam="1">  1       21 0.86194388E-02 0.25018963E+03</pdfrwt>
<pdfrwt beam="2">  1       21 0.23975887E+00 0.25018963E+03</pdfrwt>
<totfact> 0.76662431E+03</totfact>
</mgrwt>
</event>
<event>
 4    1  0.4067306E+000  0.1864195E+03  0.7546771E-02  0.1161731E+00
         21   -1    0    0  503  502  0.00000000000E+00  0.00000000000E+00  0.27329316573E+03  0.27329316573E+03  0.00000000000E+00 0.  1.
         21   -1    0    0  501  503 -0.00000000000E+00 -0.00000000000E+00 -0.57621170706E+03  0.57621170706E+03  0.00000000000E+00 0. -1.
          6    1    1    2  501    0 -0.68912046249E+02 -0.86237463397E+01 -0.52642581462E+03  0.55845893082E+03  0.17300000000E+03 0. -1.
         -6    1    1    2    0  502  0.68912046249E+02  0.86237463397E+01  0.22350727329E+03  0.29104594196E+03  0.17300000000E+03 0.  1.
<mgrwt>
<rscale>  2 0.18641952E+03</rscale>
<asrwt>0</asrwt>
<pdfrwt beam="1">  1       21 0.42045103E-01 0.18641952E+03</pdfrwt>
<pdfrwt beam="2">  1       21 0.88647954E-01 0.18641952E+03</pdfrwt>
<totfact> 0.59517373E+03</totfact>
</mgrwt>
</event>
<event>
 4    1  0.4067306E+000  0.2061012E+03  0.7546771E-02  0.1144691E+00
         21   -1    0    0  503  502  0.00000000000E+00  0.00000000000E+00  0.15317866070E+03  0.15317866070E+03  0.00000000000E+00 0.  1.
         21   -1    0    0  501  503 -0.00000000000E+00 -0.00000000000E+00 -0.29931825784E+03  0.29931825784E+03  0.00000000000E+00 0.  1.
          6    1    1    2  501    0  0.22443482340E+02  0.10974966272E+03 -0.13442192759E+03  0.24606290452E+03  0.17300000000E+03 0.  1.
         -6    1    1    2    0  502 -0.22443482340E+02 -0.10974966272E+03 -0.11717669550E+02  0.20643401402E+03  0.17300000000E+03 0.  1.
<mgrwt>
<rscale>  2 0.20610118E+03</rscale>
<asrwt>0</asrwt>
<pdfrwt beam="1">  1       21 0.23565948E-01 0.20610118E+03</pdfrwt>
<pdfrwt beam="2">  1       21 0.46048962E-01 0.20610118E+03</pdfrwt>
<totfact> 0.76150865E+04</totfact>
</mgrwt>
</event>
<event>
 4    1  0.4067306E+000  0.3164975E+03  0.7546771E-02  0.1077273E+00
         21   -1    0    0  501  502  0.00000000000E+00  0.00000000000E+00  0.14109999511E+04  0.14109999511E+04  0.00000000000E+00 0. -1.
         21   -1    0    0  502  503 -0.00000000000E+00 -0.00000000000E+00 -0.14267969543E+03  0.14267969543E+03  0.00000000000E+00 0.  1.
          6    1    1    2  501    0  0.13010350865E+03  0.23089982921E+03  0.11848038264E+04  0.12263485480E+04  0.17300000000E+03 0. -1.
         -6    1    1    2    0  503 -0.13010350865E+03 -0.23089982921E+03  0.83516429222E+02  0.32733109850E+03  0.17300000000E+03 0.  1.
<mgrwt>
<rscale>  2 0.31649748E+03</rscale>
<asrwt>0</asrwt>
<pdfrwt beam="1">  1       21 0.21707691E+00 0.31649748E+03</pdfrwt>
<pdfrwt beam="2">  1       21 0.21950723E-01 0.31649748E+03</pdfrwt>
<totfact> 0.18315296E+03</totfact>
</mgrwt>
</event>
<event>
 4    1  0.4067306E+000  0.2347773E+03  0.7546771E-02  0.1123322E+00
         21   -1    0    0  501  502  0.00000000000E+00  0.00000000000E+00  0.17332403342E+03  0.17332403342E+03  0.00000000000E+00 0.  1.
         21   -1    0    0  502  503 -0.00000000000E+00 -0.00000000000E+00 -0.13161145301E+04  0.13161145301E+04  0.00000000000E+00 0. -1.
          6    1    1    2  501    0  0.14810798711E+03 -0.57056239695E+02  0.77137249494E+02  0.24712455482E+03  0.17300000000E+03 0.  1.
         -6    1    1    2    0  503 -0.14810798711E+03  0.57056239695E+02 -0.12199277462E+04  0.12423140087E+04  0.17300000000E+03 0. -1.
<mgrwt>
<rscale>  2 0.23477732E+03</rscale>
<asrwt>0</asrwt>
<pdfrwt beam="1">  1       21 0.26665236E-01 0.23477732E+03</pdfrwt>
<pdfrwt beam="2">  1       21 0.20247916E+00 0.23477732E+03</pdfrwt>
<totfact> 0.16623808E+03</totfact>
</mgrwt>
</event>
<event>
 4    1  0.4067306E+000  0.2312240E+03  0.7546771E-02  0.1125781E+00
         21   -1    0    0  501  502  0.00000000000E+00  0.00000000000E+00  0.23757177861E+03  0.23757177861E+03  0.00000000000E+00 0. -1.
         21   -1    0    0  502  503 -0.00000000000E+00 -0.00000000000E+00 -0.61844077208E+03  0.61844077208E+03  0.00000000000E+00 0.  1.
          6    1    1    2  501    0 -0.24902349792E+02  0.15137842683E+03  0.15092770116E+03  0.27612266497E+03  0.17300000000E+03 0. -1.
         -6    1    1    2    0  503  0.24902349792E+02 -0.15137842683E+03 -0.53179669463E+03  0.57988988571E+03  0.17300000000E+03 0.  1.
<mgrwt>
<rscale>  2 0.23122404E+03</rscale>
<asrwt>0</asrwt>
<pdfrwt beam="1">  1       21 0.36549505E-01 0.23122404E+03</pdfrwt>
<pdfrwt beam="2">  1       21 0.95144732E-01 0.23122404E+03</pdfrwt>
<totfact> 0.64829985E+03</totfact>
</mgrwt>
</event>
<event>
 4    1  0.4067306E+000  0.1838259E+03  0.7546771E-02  0.1164151E+00
         21   -1    0    0  503  502  0.00000000000E+00  0.00000000000E+00  0.22901687483E+03  0.22901687483E+03  0.00000000000E+00 0. -1.
         21   -1    0    0  501  503 -0.00000000000E+00 -0.00000000000E+00 -0.14786926847E+03  0.14786926847E+03  0.00000000000E+00 0.  1.
          6    1    1    2  501    0  0.62079394409E+02  0.30210994514E+01  0.31849827456E+02  0.18656470663E+03  0.17300000000E+03 0. -1.
         -6    1    1    2    0  502 -0.62079394409E+02 -0.30210994514E+01  0.49297778907E+02  0.19032143667E+03  0.17300000000E+03 0. -1.
<mgrwt>
<rscale>  2 0.18382595E+03</rscale>
<asrwt>0</asrwt>
<pdfrwt beam="1">  1       21 0.35233365E-01 0.18382595E+03</pdfrwt>
<pdfrwt beam="2">  1       21 0.22749118E-01 0.18382595E+03</pdfrwt>
<totfact> 0.14113707E+05</totfact>
</mgrwt>
</event>
<event>
 4    1  0.4067306E+000  0.2454241E+03  0.7546771E-02  0.1116231E+00
         21   -1    0    0  503  502  0.00000000000E+00  0.00000000000E+00  0.17877467381E+03  0.17877467381E+03  0.00000000000E+00 0. -1.
         21   -1    0    0  501  503 -0.00000000000E+00 -0.00000000000E+00 -0.40699238237E+03  0.40699238237E+03  0.00000000000E+00 0. -1.
          6    1    1    2  501    0  0.16161885298E+03 -0.64678816298E+02 -0.23563538264E+03  0.34023085761E+03  0.17300000000E+03 0. -1.
         -6    1    1    2    0  502 -0.16161885298E+03  0.64678816298E+02  0.74176740812E+01  0.24553619856E+03  0.17300000000E+03 0. -1.
<mgrwt>
<rscale>  2 0.24542413E+03</rscale>
<asrwt>0</asrwt>
<pdfrwt beam="1">  1       21 0.27503796E-01 0.24542413E+03</pdfrwt>
<pdfrwt beam="2">  1       21 0.62614212E-01 0.24542413E+03</pdfrwt>
<totfact> 0.29016229E+04</totfact>
</mgrwt>
</event>
<event>
 4    1  0.4067306E+000  0.1873459E+03  0.7546771E-02  0.1160877E+00
         21   -1    0    0  503  502  0.00000000000E+00  0.00000000000E+00  0.10867528990E+04  0.10867528990E+04  0.00000000000E+00 0.  1.
         21   -1    0    0  501  503 -0.00000000000E+00 -0.00000000000E+00 -0.33163039791E+02  0.33163039791E+02  0.00000000000E+00 0.  1.
          6    1    1    2  501    0  0.25599290627E+02 -0.67187475956E+02  0.43628747943E+03  0.47481074684E+03  0.17300000000E+03 0.  1.
         -6    1    1    2    0  502 -0.25599290627E+02  0.67187475956E+02  0.61730237982E+03  0.64510519200E+03  0.17300000000E+03 0.  1.
<mgrwt>
<rscale>  2 0.18734588E+03</rscale>
<asrwt>0</asrwt>
<pdfrwt beam="1">  1       21 0.16719273E+00 0.18734588E+03</pdfrwt>
<pdfrwt beam="2">  1       21 0.51020070E-02 0.18734588E+03</pdfrwt>
<totfact> 0.58232273E+04</totfact>
</mgrwt>
</event>
<event>
 4    1  0.4067306E+000  0.2198831E+03  0.7546771E-02  0.1133970E+00
         21   -1    0    0  503  502  0.00000000000E+00  0.00000000000E+00  0.11530630592E+03  0.11530630592E+03  0.00000000000E+00 0.  1.
         21   -1    0    0  501  503 -0.00000000000E+00 -0.00000000000E+00 -0.44217452691E+03  0.44217452691E+03  0.00000000000E+00 0.  1.
          6    1    1    2  501    0  0.87700526517E+02  0.10357691534E+03 -0.22682511426E+03  0.31590851872E+03  0.17300000000E+03 0.  1.
         -6    1    1    2    0  502 -0.87700526517E+02 -0.10357691534E+03 -0.10004310673E+03  0.24157231412E+03  0.17300000000E+03 0.  1.
<mgrwt>
<rscale>  2 0.21988306E+03</rscale>
<asrwt>0</asrwt>
<pdfrwt beam="1">  1       21 0.17739432E-01 0.21988306E+03</pdfrwt>
<pdfrwt beam="2">  1       21 0.68026849E-01 0.21988306E+03</pdfrwt>
<totfact> 0.56192460E+04</totfact>
</mgrwt>
</event>
<event>
 4    1  0.4067306E+000  0.3639168E+03  0.7546771E-02  0.1057044E+00
         21   -1    0    0  501  502  0.00000000000E+00  0.00000000000E+00  0.18116046825E+03  0.18116046825E+03  0.00000000000E+00 0. -1.
         21   -1    0    0  502  503 -0.00000000000E+00 -0.00000000000E+00 -0.91811843992E+03  0.91811843992E+03  0.00000000000E+00 0.  1.
          6    1    1    2  501    0 -0.30642053534E+03  0.92805509311E+02 -0.12037066923E+03  0.38330732454E+03  0.17300000000E+03 0. -1.
         -6    1    1    2    0  503  0.30642053534E+03 -0.92805509311E+02 -0.61658730244E+03  0.71597158363E+03  0.17300000000E+03 0.  1.
<mgrwt>
<rscale>  2 0.36391676E+03</rscale>
<asrwt>0</asrwt>
<pdfrwt beam="1">  1       21 0.27870842E-01 0.36391676E+03</pdfrwt>
<pdfrwt beam="2">  1       21 0.14124899E+00 0.36391676E+03</pdfrwt>
<totfact> 0.38636042E+03</totfact>
</mgrwt>
</event>
<event>
 4    1  0.4067306E+000  0.1730296E+03  0.7546771E-02  0.1174725E+00
         21   -1    0    0  503  502  0.00000000000E+00  0.00000000000E+00  0.16757663107E+03  0.16757663107E+03  0.00000000000E+00 0.  1.
         21   -1    0    0  501  503 -0.00000000000E+00 -0.00000000000E+00 -0.18908811253E+03  0.18908811253E+03  0.00000000000E+00 0.  1.
          6    1    1    2  501    0  0.26368769563E+01  0.18178243028E+01 -0.52634986515E+02  0.18085823014E+03  0.17300000000E+03 0. -1.
         -6    1    1    2    0  502 -0.26368769563E+01 -0.18178243028E+01  0.31123505056E+02  0.17580651345E+03  0.17300000000E+03 0. -1.
<mgrwt>
<rscale>  2 0.17302964E+03</rscale>
<asrwt>0</asrwt>
<pdfrwt beam="1">  1       21 0.25781020E-01 0.17302964E+03</pdfrwt>
<pdfrwt beam="2">  1       21 0.29090479E-01 0.17302964E+03</pdfrwt>
<totfact> 0.16257864E+05</totfact>
</mgrwt>
</event>
<event>
 4    1  0.4067306E+000  0.2214735E+03  0.7546771E-02  0.1132789E+00
         21   -1    0    0  503  502  0.00000000000E+00  0.00000000000E+00  0.67635154193E+02  0.67635154193E+02  0.00000000000E+00 0. -1.
         21   -1    0    0  501  503 -0.00000000000E+00 -0.00000000000E+00 -0.23357563247E+04  0.23357563247E+04  0.00000000000E+00 0. -1.
          6    1    1    2  501    0 -0.10431528911E+03  0.90773535520E+02 -0.21319116438E+04  0.21433846531E+04  0.17300000000E+03 0. -1.
         -6    1    1    2    0  502  0.10431528911E+03 -0.90773535520E+02 -0.13620952676E+03  0.26000682582E+03  0.17300000000E+03 0. -1.
<mgrwt>
<rscale>  2 0.22147351E+03</rscale>
<asrwt>0</asrwt>
<pdfrwt beam="1">  1       21 0.10405409E-01 0.22147351E+03</pdfrwt>
<pdfrwt beam="2">  1       21 0.35934710E+00 0.22147351E+03</pdfrwt>
<totfact> 0.11190539E+03</totfact>
</mgrwt>
</event>
<event>
 4    1  0.4067306E+000  0.2037361E+03  0.7546771E-02  0.1146625E+00
         21   -1    0    0  503  502  0.00000000000E+00  0.00000000000E+00  0.20513908507E+03  0.20513908507E+03  0.00000000000E+00 0. -1.
         21   -1    0    0  501  503 -0.00000000000E+00 -0.00000000000E+00 -0.34233421854E+03  0.34233421854E+03  0.00000000000E+00 0. -1.
          6    1    1    2  501    0  0.89640928278E+02 -0.59530596095E+02 -0.24364619874E+03  0.31760330297E+03  0.17300000000E+03 0. -1.
         -6    1    1    2    0  502 -0.89640928278E+02  0.59530596095E+02  0.10645106527E+03  0.22987000063E+03  0.17300000000E+03 0. -1.
<mgrwt>
<rscale>  2 0.20373607E+03</rscale>
<asrwt>0</asrwt>
<pdfrwt beam="1">  1       21 0.31559859E-01 0.20373607E+03</pdfrwt>
<pdfrwt beam="2">  1       21 0.52666803E-01 0.20373607E+03</pdfrwt>
<totfact> 0.32787370E+04</totfact>
</mgrwt>
</event>
<event>
 4    1  0.4067306E+000  0.2004600E+03  0.7546771E-02  0.1149351E+00
         21   -1    0    0  501  502  0.00000000000E+00  0.00000000000E+00  0.56376409002E+03  0.56376409002E+03  0.00000000000E+00 0.  1.
         21   -1    0    0  502  503 -0.00000000000E+00 -0.00000000000E+00 -0.81064445877E+02  0.81064445877E+02  0.00000000000E+00 0.  1.
          6    1    1    2  501    0  0.10051822866E+03 -0.12300225835E+02  0.35337157661E+03  0.40627045303E+03  0.17300000000E+03 0.  1.
         -6    1    1    2    0  503 -0.10051822866E+03  0.12300225835E+02  0.12932806753E+03  0.23855808286E+03  0.17300000000E+03 0.  1.
<mgrwt>
<rscale>  2 0.20046000E+03</rscale>
<asrwt>0</asrwt>
<pdfrwt beam="1">  1       21 0.86732934E-01 0.20046000E+03</pdfrwt>
<pdfrwt beam="2">  1       21 0.12471454E-01 0.20046000E+03</pdfrwt>
<totfact> 0.62424802E+04</totfact>
</mgrwt>
</event>
<event>
 4    1  0.4067306E+000  0.2720032E+03  0.7546771E-02  0.1100139E+00
         21   -1    0    0  501  502  0.00000000000E+00  0.00000000000E+00  0.40419156976E+03  0.40419156976E+03  0.00000000000E+00 0.  1.
         21   -1    0    0  502  503 -0.00000000000E+00 -0.00000000000E+00 -0.36793790431E+03  0.36793790431E+03  0.00000000000E+00 0.  1.
          6    1    1    2  501    0 -0.18650129092E+03 -0.96301582746E+02  0.29179960787E+03  0.39891444886E+03  0.17300000000E+03 0.  1.
         -6    1    1    2    0  503  0.18650129092E+03  0.96301582746E+02 -0.25554594243E+03  0.37321502521E+03  0.17300000000E+03 0.  1.
<mgrwt>
<rscale>  2 0.27200317E+03</rscale>
<asrwt>0</asrwt>
<pdfrwt beam="1">  1       21 0.62183318E-01 0.27200317E+03</pdfrwt>
<pdfrwt beam="2">  1       21 0.56605832E-01 0.27200317E+03</pdfrwt>
<totfact> 0.66931589E+03</totfact>
</mgrwt>
</event>
<event>
 4    1  0.4067306E+000  0.3095463E+03  0.7546771E-02  0.1080564E+00
         21   -1    0    0  503  502  0.00000000000E+00  0.00000000000E+00  0.88736455092E+03  0.88736455092E+03  0.00000000000E+00 0. -1.
         21   -1    0    0  501  503 -0.00000000000E+00 -0.00000000000E+00 -0.10812387464E+03  0.10812387464E+03  0.00000000000E+00 0.  1.
          6    1    1    2  501    0  0.13569086713E+03  0.21789423305E+03  0.40768552977E+03  0.51188514278E+03  0.17300000000E+03 0.  1.
         -6    1    1    2    0  502 -0.13569086713E+03 -0.21789423305E+03  0.37155514650E+03  0.48360328278E+03  0.17300000000E+03 0. -1.
<mgrwt>
<rscale>  2 0.30954629E+03</rscale>
<asrwt>0</asrwt>
<pdfrwt beam="1">  1       21 0.13651762E+00 0.30954629E+03</pdfrwt>
<pdfrwt beam="2">  1       21 0.16634443E-01 0.30954629E+03</pdfrwt>
<totfact> 0.11585609E+04</totfact>
</mgrwt>
</event>
<event>
 4    1  0.4067306E+000  0.1985966E+03  0.7546771E-02  0.1150929E+00
         21   -1    0    0  503  502  0.00000000000E+00  0.00000000000E+00  0.11307603093E+04  0.11307603093E+04  0.00000000000E+00 0. -1.
         21   -1    0    0  501  503 -0.00000000000E+00 -0.00000000000E+00 -0.75733930183E+02  0.75733930183E+02  0.00000000000E+00 0. -1.
          6    1    1    2  501    0  0.65297423815E+02 -0.72441977975E+02  0.84447150777E+02  0.21580527103E+03  0.17300000000E+03 0. -1.
         -6    1    1    2    0  502 -0.65297423815E+02  0.72441977975E+02  0.97057922832E+03  0.99068896844E+03  0.17300000000E+03 0. -1.
<mgrwt>
<rscale>  2 0.19859656E+03</rscale>
<asrwt>0</asrwt>
<pdfrwt beam="1">  1       21 0.17396311E+00 0.19859656E+03</pdfrwt>
<pdfrwt beam="2">  1       21 0.11651375E-01 0.19859656E+03</pdfrwt>
<totfact> 0.12327983E+04</totfact>
</mgrwt>
</event>
<event>
 4    1  0.4067306E+000  0.2038495E+03  0.7546771E-02  0.1146531E+00
         21   -1    0    0  501  502  0.00000000000E+00  0.00000000000E+00  0.39229639741E+03  0.39229639741E+03  0.00000000000E+00 0. -1.
         21   -1    0    0  502  503 -0.00000000000E+00 -0.00000000000E+00 -0.13179971521E+03  0.13179971521E+03  0.00000000000E+00 0. -1.
          6    1    1    2  501    0  0.64182212966E+02 -0.86638768438E+02  0.24635252593E+03  0.31975646935E+03  0.17300000000E+03 0. -1.
         -6    1    1    2    0  503 -0.64182212966E+02  0.86638768438E+02  0.14144156271E+02  0.20433964328E+03  0.17300000000E+03 0. -1.
<mgrwt>
<rscale>  2 0.20384953E+03</rscale>
<asrwt>0</asrwt>
<pdfrwt beam="1">  1       21 0.60353291E-01 0.20384953E+03</pdfrwt>
<pdfrwt beam="2">  1       21 0.20276879E-01 0.20384953E+03</pdfrwt>
<totfact> 0.57259487E+04</totfact>
</mgrwt>
</event>
<event>
 4    1  0.4067306E+000  0.1838437E+03  0.7546771E-02  0.1164134E+00
         21   -1    0    0  501  502  0.00000000000E+00  0.00000000000E+00  0.31507571407E+03  0.31507571407E+03  0.00000000000E+00 0.  1.
         21   -1    0    0  502  503 -0.00000000000E+00 -0.00000000000E+00 -0.38860918080E+03  0.38860918080E+03  0.00000000000E+00 0.  1.
          6    1    1    2  501    0 -0.55901324432E+02  0.27286548954E+02  0.26260168047E+03  0.32055913091E+03  0.17300000000E+03 0.  1.
         -6    1    1    2    0  503  0.55901324432E+02 -0.27286548954E+02 -0.33613514720E+03  0.38312576396E+03  0.17300000000E+03 0.  1.
<mgrwt>
<rscale>  2 0.18384372E+03</rscale>
<asrwt>0</asrwt>
<pdfrwt beam="1">  1       21 0.48473187E-01 0.18384372E+03</pdfrwt>
<pdfrwt beam="2">  1       21 0.59786028E-01 0.18384372E+03</pdfrwt>
<totfact> 0.10676393E+04</totfact>
</mgrwt>
</event>
<event>
 4    1  0.4067306E+000  0.2412781E+03  0.7546771E-02  0.1118944E+00
         21   -1    0    0  501  502  0.00000000000E+00  0.00000000000E+00  0.76005906097E+02  0.76005906097E+02  0.00000000000E+00 0.  1.
         21   -1    0    0  502  503 -0.00000000000E+00 -0.00000000000E+00 -0.91802156932E+03  0.91802156932E+03  0.00000000000E+00 0.  1.
          6    1    1    2  501    0  0.12551558210E+03 -0.11194623759E+03 -0.21870774676E+03  0.32565042600E+03  0.17300000000E+03 0.  1.
         -6    1    1    2    0  503 -0.12551558210E+03  0.11194623759E+03 -0.62330791646E+03  0.66837704941E+03  0.17300000000E+03 0.  1.
<mgrwt>
<rscale>  2 0.24127810E+03</rscale>
<asrwt>0</asrwt>
<pdfrwt beam="1">  1       21 0.11693216E-01 0.24127810E+03</pdfrwt>
<pdfrwt beam="2">  1       21 0.14123409E+00 0.24127810E+03</pdfrwt>
<totfact> 0.20872689E+04</totfact>
</mgrwt>
</event>
<event>
 4    1  0.4067306E+000  0.2289187E+03  0.7546771E-02  0.1127403E+00
         21   -1    0    0  501  502  0.00000000000E+00  0.00000000000E+00  0.20528295708E+03  0.20528295708E+03  0.00000000000E+00 0. -1.
         21   -1    0    0  502  503 -0.00000000000E+00 -0.00000000000E+00 -0.33215664326E+03  0.33215664326E+03  0.00000000000E+00 0.  1.
          6    1    1    2  501    0  0.14411705259E+03  0.41292179136E+02  0.65844928766E+02  0.23820017538E+03  0.17300000000E+03 0. -1.
         -6    1    1    2    0  503 -0.14411705259E+03 -0.41292179136E+02 -0.19271861495E+03  0.29923942497E+03  0.17300000000E+03 0.  1.
<mgrwt>
<rscale>  2 0.22891869E+03</rscale>
<asrwt>0</asrwt>
<pdfrwt beam="1">  1       21 0.31581994E-01 0.22891869E+03</pdfrwt>
<pdfrwt beam="2">  1       21 0.51101022E-01 0.22891869E+03</pdfrwt>
<totfact> 0.34449443E+04</totfact>
</mgrwt>
</event>
<event>
 4    1  0.4067306E+000  0.2570646E+03  0.7546771E-02  0.1108920E+00
         21   -1    0    0  501  502  0.00000000000E+00  0.00000000000E+00  0.15505236448E+03  0.15505236448E+03  0.00000000000E+00 0. -1.
         21   -1    0    0  502  503 -0.00000000000E+00 -0.00000000000E+00 -0.44012849850E+03  0.44012849850E+03  0.00000000000E+00 0.  1.
          6    1    1    2  501    0 -0.37011821206E+02 -0.18650284989E+03 -0.19549159984E+03  0.32295379473E+03  0.17300000000E+03 0.  1.
         -6    1    1    2    0  503  0.37011821206E+02  0.18650284989E+03 -0.89584534180E+02  0.27222706825E+03  0.17300000000E+03 0. -1.
<mgrwt>
<rscale>  2 0.25706456E+03</rscale>
<asrwt>0</asrwt>
<pdfrwt beam="1">  1       21 0.23854210E-01 0.25706456E+03</pdfrwt>
<pdfrwt beam="2">  1       21 0.67712076E-01 0.25706456E+03</pdfrwt>
<totfact> 0.31988355E+04</totfact>
</mgrwt>
</event>
<event>
 4    1  0.4067306E+000  0.1788215E+03  0.7546771E-02  0.1168949E+00
         21   -1    0    0  503  502  0.00000000000E+00  0.00000000000E+00  0.52982246343E+03  0.52982246343E+03  0.00000000000E+00 0.  1.
         21   -1    0    0  501  503 -0.00000000000E+00 -0.00000000000E+00 -0.38998476099E+03  0.38998476099E+03  0.00000000000E+00 0.  1.
          6    1    1    2  501    0  0.37890631689E+02 -0.24747006063E+02 -0.35290220667E+03  0.39562239794E+03  0.17300000000E+03 0.  1.
         -6    1    1    2    0  502 -0.37890631689E+02  0.24747006063E+02  0.49273990911E+03  0.52418482648E+03  0.17300000000E+03 0.  1.
<mgrwt>
<rscale>  2 0.17882146E+03</rscale>
<asrwt>0</asrwt>
<pdfrwt beam="1">  1       21 0.81511148E-01 0.17882146E+03</pdfrwt>
<pdfrwt beam="2">  1       21 0.59997656E-01 0.17882146E+03</pdfrwt>
<totfact> 0.34566818E+03</totfact>
</mgrwt>
</event>
<event>
 4    1  0.4067306E+000  0.1952677E+03  0.7546771E-02  0.1153794E+00
         21   -1    0    0  503  502  0.00000000000E+00  0.00000000000E+00  0.24889655986E+03  0.24889655986E+03  0.00000000000E+00 0.  1.
         21   -1    0    0  501  503 -0.00000000000E+00 -0.00000000000E+00 -0.65237391201E+03  0.65237391201E+03  0.00000000000E+00 0.  1.
          6    1    1    2  501    0 -0.69995781417E+02  0.57454874233E+02 -0.59592847627E+03  0.62710463307E+03  0.17300000000E+03 0.  1.
         -6    1    1    2    0  502  0.69995781417E+02 -0.57454874233E+02  0.19245112412E+03  0.27416583880E+03  0.17300000000E+03 0.  1.
<mgrwt>
<rscale>  2 0.19526769E+03</rscale>
<asrwt>0</asrwt>
<pdfrwt beam="1">  1       21 0.38291779E-01 0.19526769E+03</pdfrwt>
<pdfrwt beam="2">  1       21 0.10036522E+00 0.19526769E+03</pdfrwt>
<totfact> 0.53419827E+03</totfact>
</mgrwt>
</event>
<event>
 4    1  0.4067306E+000  0.2031715E+03  0.7546771E-02  0.1147090E+00
         21   -1    0    0  501  502  0.00000000000E+00  0.00000000000E+00  0.15945772264E+04  0.15945772264E+04  0.00000000000E+00 0.  1.
         21   -1    0    0  502  503 -0.00000000000E+00 -0.00000000000E+00 -0.50024517173E+02  0.50024517173E+02  0.00000000000E+00 0. -1.
          6    1    1    2  501    0  0.61315598859E+02  0.87120991971E+02  0.13434740497E+04  0.13587498637E+04  0.17300000000E+03 0.  1.
         -6    1    1    2    0  503 -0.61315598859E+02 -0.87120991971E+02  0.20107865952E+03  0.28585187986E+03  0.17300000000E+03 0. -1.
<mgrwt>
<rscale>  2 0.20317153E+03</rscale>
<asrwt>0</asrwt>
<pdfrwt beam="1">  1       21 0.24531953E+00 0.20317153E+03</pdfrwt>
<pdfrwt beam="2">  1       21 0.76960808E-02 0.20317153E+03</pdfrwt>
<totfact> 0.90053422E+03</totfact>
</mgrwt>
</event>
<event>
 4    1  0.4067306E+000  0.1967778E+03  0.7546771E-02  0.1152486E+00
         21   -1    0    0  503  502  0.00000000000E+00  0.00000000000E+00  0.17198602445E+03  0.17198602445E+03  0.00000000000E+00 0. -1.
         21   -1    0    0  501  503 -0.00000000000E+00 -0.00000000000E+00 -0.22526836651E+03  0.22526836651E+03  0.00000000000E+00 0. -1.
          6    1    1    2  501    0  0.61897228518E+02  0.70435971025E+02 -0.21960137419E+02  0.19799934482E+03  0.17300000000E+03 0. -1.
         -6    1    1    2    0  502 -0.61897228518E+02 -0.70435971025E+02 -0.31322204643E+02  0.19925504615E+03  0.17300000000E+03 0. -1.
<mgrwt>
<rscale>  2 0.19677778E+03</rscale>
<asrwt>0</asrwt>
<pdfrwt beam="1">  1       21 0.26459389E-01 0.19677778E+03</pdfrwt>
<pdfrwt beam="2">  1       21 0.34656671E-01 0.19677778E+03</pdfrwt>
<totfact> 0.10886364E+05</totfact>
</mgrwt>
</event>
<event>
 4    1  0.4067306E+000  0.2931684E+03  0.7546771E-02  0.1088706E+00
         21   -1    0    0  503  502  0.00000000000E+00  0.00000000000E+00  0.26323998921E+03  0.26323998921E+03  0.00000000000E+00 0.  1.
         21   -1    0    0  501  503 -0.00000000000E+00 -0.00000000000E+00 -0.32708248935E+03  0.32708248935E+03  0.00000000000E+00 0.  1.
          6    1    1    2  501    0  0.17387403737E+03 -0.16058177375E+03 -0.44384021968E+02  0.29650906957E+03  0.17300000000E+03 0.  1.
         -6    1    1    2    0  502 -0.17387403737E+03  0.16058177375E+03 -0.19458478176E+02  0.29381340899E+03  0.17300000000E+03 0.  1.
<mgrwt>
<rscale>  2 0.29316836E+03</rscale>
<asrwt>0</asrwt>
<pdfrwt beam="1">  1       21 0.40498460E-01 0.29316836E+03</pdfrwt>
<pdfrwt beam="2">  1       21 0.50320383E-01 0.29316836E+03</pdfrwt>
<totfact> 0.21017871E+04</totfact>
</mgrwt>
</event>
<event>
 4    1  0.4067306E+000  0.2419321E+03  0.7546771E-02  0.1118512E+00
         21   -1    0    0  503  502  0.00000000000E+00  0.00000000000E+00  0.66199896808E+03  0.66199896808E+03  0.00000000000E+00 0. -1.
         21   -1    0    0  501  503 -0.00000000000E+00 -0.00000000000E+00 -0.12530237877E+03  0.12530237877E+03  0.00000000000E+00 0.  1.
          6    1    1    2  501    0  0.29036764692E+02 -0.16661033246E+03  0.54765722916E+02  0.24805326241E+03  0.17300000000E+03 0. -1.
         -6    1    1    2    0  502 -0.29036764692E+02  0.16661033246E+03  0.48193086640E+03  0.53924808444E+03  0.17300000000E+03 0.  1.
<mgrwt>
<rscale>  2 0.24193209E+03</rscale>
<asrwt>0</asrwt>
<pdfrwt beam="1">  1       21 0.10184599E+00 0.24193209E+03</pdfrwt>
<pdfrwt beam="2">  1       21 0.19277289E-01 0.24193209E+03</pdfrwt>
<totfact> 0.18882162E+04</totfact>
</mgrwt>
</event>
<event>
 4    1  0.4067306E+000  0.2692070E+03  0.7546771E-02  0.1101734E+00
         21   -1    0    0  503  502  0.00000000000E+00  0.00000000000E+00  0.23461566141E+03  0.23461566141E+03  0.00000000000E+00 0. -1.
         21   -1    0    0  501  503 -0.00000000000E+00 -0.00000000000E+00 -0.39732869487E+03  0.39732869487E+03  0.00000000000E+00 0. -1.
          6    1    1    2  501    0  0.18709728757E+03  0.86821631851E+02 -0.23042112295E+03  0.35435333309E+03  0.17300000000E+03 0. -1.
         -6    1    1    2    0  502 -0.18709728757E+03 -0.86821631851E+02  0.67708089494E+02  0.27759102319E+03  0.17300000000E+03 0. -1.
<mgrwt>
<rscale>  2 0.26920697E+03</rscale>
<asrwt>0</asrwt>
<pdfrwt beam="1">  1       21 0.36094717E-01 0.26920697E+03</pdfrwt>
<pdfrwt beam="2">  1       21 0.61127492E-01 0.26920697E+03</pdfrwt>
<totfact> 0.17683701E+04</totfact>
</mgrwt>
</event>
<event>
 4    1  0.4067306E+000  0.4449941E+03  0.7546771E-02  0.1029225E+00
         21   -1    0    0  501  502  0.00000000000E+00  0.00000000000E+00  0.24217947314E+03  0.24217947314E+03  0.00000000000E+00 0.  1.
         21   -1    0    0  502  503 -0.00000000000E+00 -0.00000000000E+00 -0.92099247696E+03  0.92099247696E+03  0.00000000000E+00 0. -1.
          6    1    1    2  501    0 -0.15738498860E+03 -0.37857717262E+03 -0.14459666688E+03  0.46789732456E+03  0.17300000000E+03 0.  1.
         -6    1    1    2    0  503  0.15738498860E+03  0.37857717262E+03 -0.53421633694E+03  0.69527462553E+03  0.17300000000E+03 0. -1.
<mgrwt>
<rscale>  2 0.44499406E+03</rscale>
<asrwt>0</asrwt>
<pdfrwt beam="1">  1       21 0.37258381E-01 0.44499406E+03</pdfrwt>
<pdfrwt beam="2">  1       21 0.14169115E+00 0.44499406E+03</pdfrwt>
<totfact> 0.20720835E+03</totfact>
</mgrwt>
</event>
<event>
 4    1  0.4067306E+000  0.1783167E+03  0.7546771E-02  0.1169442E+00
         21   -1    0    0  503  502  0.00000000000E+00  0.00000000000E+00  0.29434091585E+03  0.29434091585E+03  0.00000000000E+00 0. -1.
         21   -1    0    0  501  503 -0.00000000000E+00 -0.00000000000E+00 -0.10953274308E+03  0.10953274308E+03  0.00000000000E+00 0. -1.
          6    1    1    2  501    0 -0.42870997038E+02 -0.54710105904E+01  0.11607831064E+03  0.21276989577E+03  0.17300000000E+03 0. -1.
         -6    1    1    2    0  502  0.42870997038E+02  0.54710105904E+01  0.68729862130E+02  0.19110376316E+03  0.17300000000E+03 0. -1.
<mgrwt>
<rscale>  2 0.17831672E+03</rscale>
<asrwt>0</asrwt>
<pdfrwt beam="1">  1       21 0.45283218E-01 0.17831672E+03</pdfrwt>
<pdfrwt beam="2">  1       21 0.16851191E-01 0.17831672E+03</pdfrwt>
<totfact> 0.14901131E+05</totfact>
</mgrwt>
</event>
<event>
 4    1  0.4067306E+000  0.3267402E+03  0.7546771E-02  0.1072588E+00
         21   -1    0    0  501  502  0.00000000000E+00  0.00000000000E+00  0.40658804873E+03  0.40658804873E+03  0.00000000000E+00 0. -1.
         21   -1    0    0  502  503 -0.00000000000E+00 -0.00000000000E+00 -0.33736895304E+03  0.33736895304E+03  0.00000000000E+00 0.  1.
          6    1    1    2  501    0  0.25390418586E+03 -0.11118836638E+03  0.20975678869E+03  0.38827451476E+03  0.17300000000E+03 0. -1.
         -6    1    1    2    0  503 -0.25390418586E+03  0.11118836638E+03 -0.14053769300E+03  0.35568248701E+03  0.17300000000E+03 0.  1.
<mgrwt>
<rscale>  2 0.32674025E+03</rscale>
<asrwt>0</asrwt>
<pdfrwt beam="1">  1       21 0.62552007E-01 0.32674025E+03</pdfrwt>
<pdfrwt beam="2">  1       21 0.51902916E-01 0.32674025E+03</pdfrwt>
<totfact> 0.77442866E+03</totfact>
</mgrwt>
</event>
<event>
 4    1  0.4067306E+000  0.1897625E+03  0.7546771E-02  0.1158676E+00
         21   -1    0    0  503  502  0.00000000000E+00  0.00000000000E+00  0.11412030148E+03  0.11412030148E+03  0.00000000000E+00 0. -1.
         21   -1    0    0  501  503 -0.00000000000E+00 -0.00000000000E+00 -0.31955673849E+03  0.31955673849E+03  0.00000000000E+00 0. -1.
          6    1    1    2  501    0 -0.31352352102E+02 -0.71399113094E+02 -0.78414936369E+02  0.20532585219E+03  0.17300000000E+03 0. -1.
         -6    1    1    2    0  502  0.31352352102E+02  0.71399113094E+02 -0.12702150064E+03  0.22835118778E+03  0.17300000000E+03 0. -1.
<mgrwt>
<rscale>  2 0.18976249E+03</rscale>
<asrwt>0</asrwt>
<pdfrwt beam="1">  1       21 0.17556969E-01 0.18976249E+03</pdfrwt>
<pdfrwt beam="2">  1       21 0.49162575E-01 0.18976249E+03</pdfrwt>
<totfact> 0.11615254E+05</totfact>
</mgrwt>
</event>
<event>
 4    1  0.4067306E+000  0.1925451E+03  0.7546771E-02  0.1156186E+00
         21   -1    0    0  501  502  0.00000000000E+00  0.00000000000E+00  0.20261230635E+02  0.20261230635E+02  0.00000000000E+00 0. -1.
         21   -1    0    0  502  503 -0.00000000000E+00 -0.00000000000E+00 -0.19794047942E+04  0.19794047942E+04  0.00000000000E+00 0. -1.
          6    1    1    2  501    0  0.73597906462E+02  0.41568854333E+02 -0.70468109910E+03  0.73051288347E+03  0.17300000000E+03 0. -1.
         -6    1    1    2    0  503 -0.73597906462E+02 -0.41568854333E+02 -0.12544624644E+04  0.12691531413E+04  0.17300000000E+03 0. -1.
<mgrwt>
<rscale>  2 0.19254512E+03</rscale>
<asrwt>0</asrwt>
<pdfrwt beam="1">  1       21 0.31171118E-02 0.19254512E+03</pdfrwt>
<pdfrwt beam="2">  1       21 0.30452388E+00 0.19254512E+03</pdfrwt>
<totfact> 0.19092995E+04</totfact>
</mgrwt>
</event>
<event>
 4    1  0.4067306E+000  0.1938895E+03  0.7546771E-02  0.1154999E+00
         21   -1    0    0  503  502  0.00000000000E+00  0.00000000000E+00  0.61217951635E+03  0.61217951635E+03  0.00000000000E+00 0. -1.
         21   -1    0    0  501  503 -0.00000000000E+00 -0.00000000000E+00 -0.63352445456E+02  0.63352445456E+02  0.00000000000E+00 0. -1.
          6    1    1    2  501    0  0.10772831290E+02 -0.86879708354E+02  0.33357730720E+03  0.38583281029E+03  0.17300000000E+03 0. -1.
         -6    1    1    2    0  502 -0.10772831290E+02  0.86879708354E+02  0.21524976369E+03  0.28969915151E+03  0.17300000000E+03 0. -1.
<mgrwt>
<rscale>  2 0.19388950E+03</rscale>
<asrwt>0</asrwt>
<pdfrwt beam="1">  1       21 0.94181460E-01 0.19388950E+03</pdfrwt>
<pdfrwt beam="2">  1       21 0.97465305E-02 0.19388950E+03</pdfrwt>
<totfact> 0.80220986E+04</totfact>
</mgrwt>
</event>
<event>
 4    1  0.4067306E+000  0.2073550E+03  0.7546771E-02  0.1143678E+00
         21   -1    0    0  501  502  0.00000000000E+00  0.00000000000E+00  0.10445729303E+03  0.10445729303E+03  0.00000000000E+00 0.  1.
         21   -1    0    0  502  503 -0.00000000000E+00 -0.00000000000E+00 -0.41385075485E+03  0.41385075485E+03  0.00000000000E+00 0.  1.
          6    1    1    2  501    0 -0.10742994088E+03 -0.39063012261E+02 -0.17374783996E+03  0.27052619654E+03  0.17300000000E+03 0.  1.
         -6    1    1    2    0  503  0.10742994088E+03  0.39063012261E+02 -0.13564562185E+03  0.24778185134E+03  0.17300000000E+03 0.  1.
<mgrwt>
<rscale>  2 0.20735504E+03</rscale>
<asrwt>0</asrwt>
<pdfrwt beam="1">  1       21 0.16070353E-01 0.20735504E+03</pdfrwt>
<pdfrwt beam="2">  1       21 0.63669347E-01 0.20735504E+03</pdfrwt>
<totfact> 0.78346890E+04</totfact>
</mgrwt>
</event>
<event>
 4    1  0.4067306E+000  0.2891431E+03  0.7546771E-02  0.1090797E+00
         21   -1    0    0  503  502  0.00000000000E+00  0.00000000000E+00  0.15685316096E+03  0.15685316096E+03  0.00000000000E+00 0. -1.
         21   -1    0    0  501  503 -0.00000000000E+00 -0.00000000000E+00 -0.67434840222E+03  0.67434840222E+03  0.00000000000E+00 0.  1.
          6    1    1    2  501    0 -0.22051259946E+03  0.71055780640E+02 -0.68477808755E+02  0.29714128083E+03  0.17300000000E+03 0. -1.
         -6    1    1    2    0  502  0.22051259946E+03 -0.71055780640E+02 -0.44901743251E+03  0.53406028235E+03  0.17300000000E+03 0. -1.
<mgrwt>
<rscale>  2 0.28914310E+03</rscale>
<asrwt>0</asrwt>
<pdfrwt beam="1">  1       21 0.24131256E-01 0.28914310E+03</pdfrwt>
<pdfrwt beam="2">  1       21 0.10374591E+00 0.28914310E+03</pdfrwt>
<totfact> 0.11524318E+04</totfact>
</mgrwt>
</event>
<event>
 4    1  0.4067306E+000  0.2961549E+03  0.7546771E-02  0.1087179E+00
         21   -1    0    0  503  502  0.00000000000E+00  0.00000000000E+00  0.20223835600E+04  0.20223835600E+04  0.00000000000E+00 0.  1.
         21   -1    0    0  501  503 -0.00000000000E+00 -0.00000000000E+00 -0.47045459578E+02  0.47045459578E+02  0.00000000000E+00 0. -1.
          6    1    1    2  501    0 -0.19082705598E+03 -0.14616340943E+03  0.69839658385E+03  0.75859442120E+03  0.17300000000E+03 0. -1.
         -6    1    1    2    0  502  0.19082705598E+03  0.14616340943E+03  0.12769415166E+04  0.13108345984E+04  0.17300000000E+03 0.  1.
<mgrwt>
<rscale>  2 0.29615487E+03</rscale>
<asrwt>0</asrwt>
<pdfrwt beam="1">  1       21 0.31113586E+00 0.29615487E+03</pdfrwt>
<pdfrwt beam="2">  1       21 0.72377646E-02 0.29615487E+03</pdfrwt>
<totfact> 0.38022001E+03</totfact>
</mgrwt>
</event>
<event>
 4    1  0.4067306E+000  0.1823258E+03  0.7546771E-02  0.1165571E+00
         21   -1    0    0  501  502  0.00000000000E+00  0.00000000000E+00  0.78719697487E+03  0.78719697487E+03  0.00000000000E+00 0. -1.
         21   -1    0    0  502  503 -0.00000000000E+00 -0.00000000000E+00 -0.64158699221E+02  0.64158699221E+02  0.00000000000E+00 0. -1.
          6    1    1    2  501    0 -0.57543750449E+02  0.15555794600E+01  0.61038628186E+03  0.63703541198E+03  0.17300000000E+03 0.  1.
         -6    1    1    2    0  503  0.57543750449E+02 -0.15555794600E+01  0.11265199379E+03  0.21432026210E+03  0.17300000000E+03 0.  1.
<mgrwt>
<rscale>  2 0.18232582E+03</rscale>
<asrwt>0</asrwt>
<pdfrwt beam="1">  1       21 0.12110722E+00 0.18232582E+03</pdfrwt>
<pdfrwt beam="2">  1       21 0.98705697E-02 0.18232582E+03</pdfrwt>
<totfact> 0.43099969E+04</totfact>
</mgrwt>
</event>
<event>
 4    1  0.4067306E+000  0.1920043E+03  0.7546771E-02  0.1156666E+00
         21   -1    0    0  501  502  0.00000000000E+00  0.00000000000E+00  0.14634922277E+03  0.14634922277E+03  0.00000000000E+00 0. -1.
         21   -1    0    0  502  503 -0.00000000000E+00 -0.00000000000E+00 -0.41493753466E+03  0.41493753466E+03  0.00000000000E+00 0. -1.
          6    1    1    2  501    0 -0.31683542289E+02 -0.77024642454E+02  0.41621605609E+02  0.19646373826E+03  0.17300000000E+03 0. -1.
         -6    1    1    2    0  503  0.31683542289E+02  0.77024642454E+02 -0.31020991750E+03  0.36482301917E+03  0.17300000000E+03 0. -1.
<mgrwt>
<rscale>  2 0.19200428E+03</rscale>
<asrwt>0</asrwt>
<pdfrwt beam="1">  1       21 0.22515265E-01 0.19200428E+03</pdfrwt>
<pdfrwt beam="2">  1       21 0.63836543E-01 0.19200428E+03</pdfrwt>
<totfact> 0.41900425E+04</totfact>
</mgrwt>
</event>
<event>
 4    1  0.4067306E+000  0.2029726E+03  0.7546771E-02  0.1147255E+00
         21   -1    0    0  503  502  0.00000000000E+00  0.00000000000E+00  0.16999259126E+04  0.16999259126E+04  0.00000000000E+00 0.  1.
         21   -1    0    0  501  503 -0.00000000000E+00 -0.00000000000E+00 -0.24826845421E+02  0.24826845421E+02  0.00000000000E+00 0.  1.
          6    1    1    2  501    0  0.10231751624E+03  0.28284060183E+02  0.70441025802E+03  0.73307003335E+03  0.17300000000E+03 0.  1.
         -6    1    1    2    0  502 -0.10231751624E+03 -0.28284060183E+02  0.97068880914E+03  0.99168272466E+03  0.17300000000E+03 0.  1.
<mgrwt>
<rscale>  2 0.20297257E+03</rscale>
<asrwt>0</asrwt>
<pdfrwt beam="1">  1       21 0.26152697E+00 0.20297257E+03</pdfrwt>
<pdfrwt beam="2">  1       21 0.38195160E-02 0.20297257E+03</pdfrwt>
<totfact> 0.23886446E+04</totfact>
</mgrwt>
</event>
<event>
 4    1  0.4067306E+000  0.2013853E+03  0.7546771E-02  0.1148575E+00
         21   -1    0    0  503  502  0.00000000000E+00  0.00000000000E+00  0.19554253212E+03  0.19554253212E+03  0.00000000000E+00 0.  1.
         21   -1    0    0  501  503 -0.00000000000E+00 -0.00000000000E+00 -0.34761242773E+03  0.34761242773E+03  0.00000000000E+00 0.  1.
          6    1    1    2  501    0  0.10069441507E+03 -0.22083345943E+02 -0.24851356301E+03  0.31986720744E+03  0.17300000000E+03 0.  1.
         -6    1    1    2    0  502 -0.10069441507E+03  0.22083345943E+02  0.96443667403E+02  0.22328775241E+03  0.17300000000E+03 0.  1.
<mgrwt>
<rscale>  2 0.20138530E+03</rscale>
<asrwt>0</asrwt>
<pdfrwt beam="1">  1       21 0.30083467E-01 0.20138530E+03</pdfrwt>
<pdfrwt beam="2">  1       21 0.53478834E-01 0.20138530E+03</pdfrwt>
<totfact> 0.34912434E+04</totfact>
</mgrwt>
</event>
<event>
 4    1  0.4067306E+000  0.2146709E+03  0.7546771E-02  0.1137920E+00
         21   -1    0    0  503  502  0.00000000000E+00  0.00000000000E+00  0.51919052639E+03  0.51919052639E+03  0.00000000000E+00 0.  1.
         21   -1    0    0  501  503 -0.00000000000E+00 -0.00000000000E+00 -0.88760940294E+02  0.88760940294E+02  0.00000000000E+00 0.  1.
          6    1    1    2  501    0 -0.49228382844E+02  0.11718012346E+03  0.21454416676E+03  0.30350092999E+03  0.17300000000E+03 0.  1.
         -6    1    1    2    0  502  0.49228382844E+02 -0.11718012346E+03  0.21588541933E+03  0.30445053669E+03  0.17300000000E+03 0.  1.
<mgrwt>
<rscale>  2 0.21467095E+03</rscale>
<asrwt>0</asrwt>
<pdfrwt beam="1">  1       21 0.79875464E-01 0.21467095E+03</pdfrwt>
<pdfrwt beam="2">  1       21 0.13655530E-01 0.21467095E+03</pdfrwt>
<totfact> 0.63547956E+04</totfact>
</mgrwt>
</event>
<event>
 4    1  0.4067306E+000  0.2760430E+03  0.7546771E-02  0.1097870E+00
         21   -1    0    0  503  502  0.00000000000E+00  0.00000000000E+00  0.91314876892E+02  0.91314876892E+02  0.00000000000E+00 0. -1.
         21   -1    0    0  501  503 -0.00000000000E+00 -0.00000000000E+00 -0.87455321771E+03  0.87455321771E+03  0.00000000000E+00 0.  1.
          6    1    1    2  501    0  0.10489803090E+03 -0.18779548773E+03 -0.28823283749E+03  0.39909636769E+03  0.17300000000E+03 0. -1.
         -6    1    1    2    0  502 -0.10489803090E+03  0.18779548773E+03 -0.49500550333E+03  0.56677172691E+03  0.17300000000E+03 0.  1.
<mgrwt>
<rscale>  2 0.27604301E+03</rscale>
<asrwt>0</asrwt>
<pdfrwt beam="1">  1       21 0.14048443E-01 0.27604301E+03</pdfrwt>
<pdfrwt beam="2">  1       21 0.13454665E+00 0.27604301E+03</pdfrwt>
<totfact> 0.16680056E+04</totfact>
</mgrwt>
</event>
<event>
 4    1  0.4067306E+000  0.2114321E+03  0.7546771E-02  0.1140437E+00
         21   -1    0    0  501  502  0.00000000000E+00  0.00000000000E+00  0.26936410141E+03  0.26936410141E+03  0.00000000000E+00 0. -1.
         21   -1    0    0  502  503 -0.00000000000E+00 -0.00000000000E+00 -0.35065178916E+03  0.35065178916E+03  0.00000000000E+00 0.  1.
          6    1    1    2  501    0  0.86486775173E+02  0.85408240499E+02  0.18434406791E+03  0.28051072207E+03  0.17300000000E+03 0. -1.
         -6    1    1    2    0  503 -0.86486775173E+02 -0.85408240499E+02 -0.26563175565E+03  0.33950516850E+03  0.17300000000E+03 0.  1.
<mgrwt>
<rscale>  2 0.21143209E+03</rscale>
<asrwt>0</asrwt>
<pdfrwt beam="1">  1       21 0.41440631E-01 0.21143209E+03</pdfrwt>
<pdfrwt beam="2">  1       21 0.53946429E-01 0.21143209E+03</pdfrwt>
<totfact> 0.18012366E+04</totfact>
</mgrwt>
</event>
<event>
 4    1  0.4067306E+000  0.1837876E+03  0.7546771E-02  0.1164187E+00
         21   -1    0    0  503  502  0.00000000000E+00  0.00000000000E+00  0.27479141494E+03  0.27479141494E+03  0.00000000000E+00 0. -1.
         21   -1    0    0  501  503 -0.00000000000E+00 -0.00000000000E+00 -0.17043509293E+03  0.17043509293E+03  0.00000000000E+00 0. -1.
          6    1    1    2  501    0 -0.26709875140E+02 -0.55995305787E+02 -0.65359885254E+02  0.19506359553E+03  0.17300000000E+03 0. -1.
         -6    1    1    2    0  502  0.26709875140E+02  0.55995305787E+02  0.16971620727E+03  0.25016291234E+03  0.17300000000E+03 0. -1.
<mgrwt>
<rscale>  2 0.18378763E+03</rscale>
<asrwt>0</asrwt>
<pdfrwt beam="1">  1       21 0.42275602E-01 0.18378763E+03</pdfrwt>
<pdfrwt beam="2">  1       21 0.26220783E-01 0.18378763E+03</pdfrwt>
<totfact> 0.74713044E+04</totfact>
</mgrwt>
</event>
<event>
 4    1  0.4067306E+000  0.3011973E+03  0.7546771E-02  0.1084644E+00
         21   -1    0    0  501  502  0.00000000000E+00  0.00000000000E+00  0.76451662432E+02  0.76451662432E+02  0.00000000000E+00 0.  1.
         21   -1    0    0  502  503 -0.00000000000E+00 -0.00000000000E+00 -0.19823794743E+04  0.19823794743E+04  0.00000000000E+00 0.  1.
          6    1    1    2  501    0  0.18310587756E+03 -0.16511534486E+03 -0.30075683305E+03  0.42564599391E+03  0.17300000000E+03 0.  1.
         -6    1    1    2    0  503 -0.18310587756E+03  0.16511534486E+03 -0.16051709788E+04  0.16331851428E+04  0.17300000000E+03 0.  1.
<mgrwt>
<rscale>  2 0.30119734E+03</rscale>
<asrwt>0</asrwt>
<pdfrwt beam="1">  1       21 0.11761794E-01 0.30119734E+03</pdfrwt>
<pdfrwt beam="2">  1       21 0.30498147E+00 0.30119734E+03</pdfrwt>
<totfact> 0.17394992E+03</totfact>
</mgrwt>
</event>
<event>
 4    1  0.4067306E+000  0.2012321E+03  0.7546771E-02  0.1148704E+00
         21   -1    0    0  501  502  0.00000000000E+00  0.00000000000E+00  0.87014753402E+03  0.87014753402E+03  0.00000000000E+00 0.  1.
         21   -1    0    0  502  503 -0.00000000000E+00 -0.00000000000E+00 -0.10368632619E+03  0.10368632619E+03  0.00000000000E+00 0.  1.
          6    1    1    2  501    0 -0.87205691040E+02 -0.54410865034E+02  0.74472227548E+03  0.77143090577E+03  0.17300000000E+03 0.  1.
         -6    1    1    2    0  503  0.87205691040E+02  0.54410865034E+02  0.21738932350E+02  0.20240295443E+03  0.17300000000E+03 0.  1.
<mgrwt>
<rscale>  2 0.20123214E+03</rscale>
<asrwt>0</asrwt>
<pdfrwt beam="1">  1       21 0.13386885E+00 0.20123214E+03</pdfrwt>
<pdfrwt beam="2">  1       21 0.15951743E-01 0.20123214E+03</pdfrwt>
<totfact> 0.13987299E+04</totfact>
</mgrwt>
</event>
<event>
 4    1  0.4067306E+000  0.4519212E+03  0.7546771E-02  0.1027151E+00
         21   -1    0    0  501  502  0.00000000000E+00  0.00000000000E+00  0.85188946374E+03  0.85188946374E+03  0.00000000000E+00 0.  1.
         21   -1    0    0  502  503 -0.00000000000E+00 -0.00000000000E+00 -0.26459212219E+03  0.26459212219E+03  0.00000000000E+00 0.  1.
          6    1    1    2  501    0  0.16818745679E+03 -0.38212132794E+03  0.12256555020E+03  0.46824677680E+03  0.17300000000E+03 0.  1.
         -6    1    1    2    0  503 -0.16818745679E+03  0.38212132794E+03  0.46473179135E+03  0.64823480914E+03  0.17300000000E+03 0.  1.
<mgrwt>
<rscale>  2 0.45192115E+03</rscale>
<asrwt>0</asrwt>
<pdfrwt beam="1">  1       21 0.13105992E+00 0.45192115E+03</pdfrwt>
<pdfrwt beam="2">  1       21 0.40706481E-01 0.45192115E+03</pdfrwt>
<totfact> 0.21160958E+03</totfact>
</mgrwt>
</event>
<event>
 4    1  0.4067306E+000  0.5961794E+03  0.7546771E-02  0.9913364E-01
         21   -1    0    0  503  502  0.00000000000E+00  0.00000000000E+00  0.36450585769E+03  0.36450585769E+03  0.00000000000E+00 0. -1.
         21   -1    0    0  501  503 -0.00000000000E+00 -0.00000000000E+00 -0.16404023178E+04  0.16404023178E+04  0.00000000000E+00 0.  1.
          6    1    1    2  501    0  0.56489811056E+03 -0.79943665221E+02 -0.12763567002E+04  0.14087286080E+04  0.17300000000E+03 0.  1.
         -6    1    1    2    0  502 -0.56489811056E+03  0.79943665221E+02  0.46024001250E+00  0.59617956753E+03  0.17300000000E+03 0. -1.
<mgrwt>
<rscale>  2 0.59617939E+03</rscale>
<asrwt>0</asrwt>
<pdfrwt beam="1">  1       21 0.56077824E-01 0.59617939E+03</pdfrwt>
<pdfrwt beam="2">  1       21 0.25236959E+00 0.59617939E+03</pdfrwt>
<totfact> 0.14170097E+02</totfact>
</mgrwt>
</event>
<event>
 4    1  0.4067306E+000  0.1759011E+03  0.7546771E-02  0.1171830E+00
         21   -1    0    0  501  502  0.00000000000E+00  0.00000000000E+00  0.11821552368E+03  0.11821552368E+03  0.00000000000E+00 0.  1.
         21   -1    0    0  502  503 -0.00000000000E+00 -0.00000000000E+00 -0.29921280512E+03  0.29921280512E+03  0.00000000000E+00 0.  1.
          6    1    1    2  501    0  0.27569070483E+02  0.15878995266E+02 -0.16632371776E+02  0.17668568683E+03  0.17300000000E+03 0.  1.
         -6    1    1    2    0  503 -0.27569070483E+02 -0.15878995266E+02 -0.16436490967E+03  0.24074264198E+03  0.17300000000E+03 0.  1.
<mgrwt>
<rscale>  2 0.17590110E+03</rscale>
<asrwt>0</asrwt>
<pdfrwt beam="1">  1       21 0.18187004E-01 0.17590110E+03</pdfrwt>
<pdfrwt beam="2">  1       21 0.46032738E-01 0.17590110E+03</pdfrwt>
<totfact> 0.12530339E+05</totfact>
</mgrwt>
</event>
<event>
 4    1  0.4067306E+000  0.2031877E+03  0.7546771E-02  0.1147077E+00
         21   -1    0    0  503  502  0.00000000000E+00  0.00000000000E+00  0.33310898714E+03  0.33310898714E+03  0.00000000000E+00 0. -1.
         21   -1    0    0  501  503 -0.00000000000E+00 -0.00000000000E+00 -0.28692305346E+03  0.28692305346E+03  0.00000000000E+00 0. -1.
          6    1    1    2  501    0 -0.31633606004E+02  0.10176221563E+03 -0.21056135422E+03  0.29261120527E+03  0.17300000000E+03 0. -1.
         -6    1    1    2    0  502  0.31633606004E+02 -0.10176221563E+03  0.25674728790E+03  0.32742083532E+03  0.17300000000E+03 0. -1.
<mgrwt>
<rscale>  2 0.20318768E+03</rscale>
<asrwt>0</asrwt>
<pdfrwt beam="1">  1       21 0.51247537E-01 0.20318768E+03</pdfrwt>
<pdfrwt beam="2">  1       21 0.44142008E-01 0.20318768E+03</pdfrwt>
<totfact> 0.17725429E+04</totfact>
</mgrwt>
</event>
<event>
 4    1  0.4067306E+000  0.2434962E+03  0.7546771E-02  0.1117485E+00
         21   -1    0    0  501  502  0.00000000000E+00  0.00000000000E+00  0.95399658635E+02  0.95399658635E+02  0.00000000000E+00 0. -1.
         21   -1    0    0  502  503 -0.00000000000E+00 -0.00000000000E+00 -0.11421449913E+04  0.11421449913E+04  0.00000000000E+00 0.  1.
          6    1    1    2  501    0 -0.93624566113E+02 -0.14351252165E+03 -0.94114841627E+03  0.97213720467E+03  0.17300000000E+03 0.  1.
         -6    1    1    2    0  503  0.93624566113E+02  0.14351252165E+03 -0.10559691639E+03  0.26540744527E+03  0.17300000000E+03 0. -1.
<mgrwt>
<rscale>  2 0.24349621E+03</rscale>
<asrwt>0</asrwt>
<pdfrwt beam="1">  1       21 0.14676871E-01 0.24349621E+03</pdfrwt>
<pdfrwt beam="2">  1       21 0.17571461E+00 0.24349621E+03</pdfrwt>
<totfact> 0.76460574E+03</totfact>
</mgrwt>
</event>
<event>
 4    1  0.4067306E+000  0.2025509E+03  0.7546771E-02  0.1147604E+00
         21   -1    0    0  503  502  0.00000000000E+00  0.00000000000E+00  0.41489366166E+03  0.41489366166E+03  0.00000000000E+00 0.  1.
         21   -1    0    0  501  503 -0.00000000000E+00 -0.00000000000E+00 -0.10011371573E+03  0.10011371573E+03  0.00000000000E+00 0.  1.
          6    1    1    2  501    0  0.38197201943E+02 -0.98177587562E+02  0.12886550475E+03  0.24006912182E+03  0.17300000000E+03 0.  1.
         -6    1    1    2    0  502 -0.38197201943E+02  0.98177587562E+02  0.18591444118E+03  0.27493825557E+03  0.17300000000E+03 0.  1.
<mgrwt>
<rscale>  2 0.20255089E+03</rscale>
<asrwt>0</asrwt>
<pdfrwt beam="1">  1       21 0.63829793E-01 0.20255089E+03</pdfrwt>
<pdfrwt beam="2">  1       21 0.15402110E-01 0.20255089E+03</pdfrwt>
<totfact> 0.84393103E+04</totfact>
</mgrwt>
</event>
<event>
 4    1  0.4067306E+000  0.2724784E+03  0.7546771E-02  0.1099870E+00
         21   -1    0    0  501  502  0.00000000000E+00  0.00000000000E+00  0.66857025494E+03  0.66857025494E+03  0.00000000000E+00 0. -1.
         21   -1    0    0  502  503 -0.00000000000E+00 -0.00000000000E+00 -0.16340172578E+03  0.16340172578E+03  0.00000000000E+00 0.  1.
          6    1    1    2  501    0  0.15561724842E+03  0.14176997342E+03  0.48804450490E+03  0.55895607353E+03  0.17300000000E+03 0. -1.
         -6    1    1    2    0  503 -0.15561724842E+03 -0.14176997342E+03  0.17124024251E+02  0.27301590719E+03  0.17300000000E+03 0.  1.
<mgrwt>
<rscale>  2 0.27247835E+03</rscale>
<asrwt>0</asrwt>
<pdfrwt beam="1">  1       21 0.10285696E+00 0.27247835E+03</pdfrwt>
<pdfrwt beam="2">  1       21 0.25138727E-01 0.27247835E+03</pdfrwt>
<totfact> 0.10965883E+04</totfact>
</mgrwt>
</event>
<event>
 4    1  0.4067306E+000  0.1747073E+03  0.7546771E-02  0.1173026E+00
         21   -1    0    0  501  502  0.00000000000E+00  0.00000000000E+00  0.89500806168E+03  0.89500806168E+03  0.00000000000E+00 0. -1.
         21   -1    0    0  502  503 -0.00000000000E+00 -0.00000000000E+00 -0.65910626805E+02  0.65910626805E+02  0.00000000000E+00 0. -1.
          6    1    1    2  501    0 -0.11085605030E+02 -0.21696807410E+02  0.74831554241E+03  0.76843919285E+03  0.17300000000E+03 0. -1.
         -6    1    1    2    0  503  0.11085605030E+02  0.21696807410E+02  0.80781892465E+02  0.19247949564E+03  0.17300000000E+03 0. -1.
<mgrwt>
<rscale>  2 0.17470730E+03</rscale>
<asrwt>0</asrwt>
<pdfrwt beam="1">  1       21 0.13769354E+00 0.17470730E+03</pdfrwt>
<pdfrwt beam="2">  1       21 0.10140097E-01 0.17470730E+03</pdfrwt>
<totfact> 0.29899037E+04</totfact>
</mgrwt>
</event>
<event>
 4    1  0.4067306E+000  0.1892303E+03  0.7546771E-02  0.1159157E+00
         21   -1    0    0  501  502  0.00000000000E+00  0.00000000000E+00  0.57303147874E+03  0.57303147874E+03  0.00000000000E+00 0.  1.
         21   -1    0    0  502  503 -0.00000000000E+00 -0.00000000000E+00 -0.70224369372E+02  0.70224369372E+02  0.00000000000E+00 0.  1.
          6    1    1    2  501    0  0.70190327792E+02  0.30861624021E+02  0.35814975264E+03  0.40506711452E+03  0.17300000000E+03 0.  1.
         -6    1    1    2    0  503 -0.70190327792E+02 -0.30861624021E+02  0.14465735673E+03  0.23818873359E+03  0.17300000000E+03 0.  1.
<mgrwt>
<rscale>  2 0.18923034E+03</rscale>
<asrwt>0</asrwt>
<pdfrwt beam="1">  1       21 0.88158686E-01 0.18923034E+03</pdfrwt>
<pdfrwt beam="2">  1       21 0.10803750E-01 0.18923034E+03</pdfrwt>
<totfact> 0.78091646E+04</totfact>
</mgrwt>
</event>
<event>
 4    1  0.4067306E+000  0.2478585E+03  0.7546771E-02  0.1114666E+00
         21   -1    0    0  501  502  0.00000000000E+00  0.00000000000E+00  0.45114241699E+03  0.45114241699E+03  0.00000000000E+00 0. -1.
         21   -1    0    0  502  503 -0.00000000000E+00 -0.00000000000E+00 -0.13702326792E+03  0.13702326792E+03  0.00000000000E+00 0.  1.
          6    1    1    2  501    0 -0.12682083867E+03 -0.12418247445E+03  0.18021358839E+03  0.30644860829E+03  0.17300000000E+03 0. -1.
         -6    1    1    2    0  503  0.12682083867E+03  0.12418247445E+03  0.13390556068E+03  0.28171707663E+03  0.17300000000E+03 0.  1.
<mgrwt>
<rscale>  2 0.24785845E+03</rscale>
<asrwt>0</asrwt>
<pdfrwt beam="1">  1       21 0.69406525E-01 0.24785845E+03</pdfrwt>
<pdfrwt beam="2">  1       21 0.21080503E-01 0.24785845E+03</pdfrwt>
<totfact> 0.38457501E+04</totfact>
</mgrwt>
</event>
<event>
 4    1  0.4067306E+000  0.3555678E+03  0.7546771E-02  0.1060353E+00
         21   -1    0    0  503  502  0.00000000000E+00  0.00000000000E+00  0.61621952312E+03  0.61621952312E+03  0.00000000000E+00 0.  1.
         21   -1    0    0  501  503 -0.00000000000E+00 -0.00000000000E+00 -0.22075174047E+03  0.22075174047E+03  0.00000000000E+00 0. -1.
          6    1    1    2  501    0 -0.79455801070E+02  0.30031021660E+03  0.30892397805E+03  0.47102279640E+03  0.17300000000E+03 0. -1.
         -6    1    1    2    0  502  0.79455801070E+02 -0.30031021660E+03  0.86543804608E+02  0.36594846719E+03  0.17300000000E+03 0.  1.
<mgrwt>
<rscale>  2 0.35556779E+03</rscale>
<asrwt>0</asrwt>
<pdfrwt beam="1">  1       21 0.94803003E-01 0.35556779E+03</pdfrwt>
<pdfrwt beam="2">  1       21 0.33961806E-01 0.35556779E+03</pdfrwt>
<totfact> 0.71103096E+03</totfact>
</mgrwt>
</event>
<event>
 4    1  0.4067306E+000  0.2073045E+03  0.7546771E-02  0.1143718E+00
         21   -1    0    0  503  502  0.00000000000E+00  0.00000000000E+00  0.26919668980E+02  0.26919668980E+02  0.00000000000E+00 0. -1.
         21   -1    0    0  501  503 -0.00000000000E+00 -0.00000000000E+00 -0.16943218591E+04  0.16943218591E+04  0.00000000000E+00 0. -1.
          6    1    1    2  501    0  0.98710435838E+02  0.57466516418E+02 -0.10405746561E+04  0.10610234519E+04  0.17300000000E+03 0. -1.
         -6    1    1    2    0  502 -0.98710435838E+02 -0.57466516418E+02 -0.62682753402E+03  0.66021807614E+03  0.17300000000E+03 0. -1.
<mgrwt>
<rscale>  2 0.20730449E+03</rscale>
<asrwt>0</asrwt>
<pdfrwt beam="1">  1       21 0.41414887E-02 0.20730449E+03</pdfrwt>
<pdfrwt beam="2">  1       21 0.26066483E+00 0.20730449E+03</pdfrwt>
<totfact> 0.21018120E+04</totfact>
</mgrwt>
</event>
<event>
 4    1  0.4067306E+000  0.1902969E+03  0.7546771E-02  0.1158194E+00
         21   -1    0    0  503  502  0.00000000000E+00  0.00000000000E+00  0.37470868943E+02  0.37470868943E+02  0.00000000000E+00 0. -1.
         21   -1    0    0  501  503 -0.00000000000E+00 -0.00000000000E+00 -0.97058303104E+03  0.97058303104E+03  0.00000000000E+00 0. -1.
          6    1    1    2  501    0  0.56143203959E+02 -0.55962933676E+02 -0.43357937288E+03  0.47350182881E+03  0.17300000000E+03 0. -1.
         -6    1    1    2    0  502 -0.56143203959E+02  0.55962933676E+02 -0.49953278922E+03  0.53455207118E+03  0.17300000000E+03 0. -1.
<mgrwt>
<rscale>  2 0.19029690E+03</rscale>
<asrwt>0</asrwt>
<pdfrwt beam="1">  1       21 0.57647492E-02 0.19029690E+03</pdfrwt>
<pdfrwt beam="2">  1       21 0.14932046E+00 0.19029690E+03</pdfrwt>
<totfact> 0.63947038E+04</totfact>
</mgrwt>
</event>
<event>
 4    1  0.4067306E+000  0.2055082E+03  0.7546771E-02  0.1145173E+00
         21   -1    0    0  503  502  0.00000000000E+00  0.00000000000E+00  0.40229339255E+03  0.40229339255E+03  0.00000000000E+00 0.  1.
         21   -1    0    0  501  503 -0.00000000000E+00 -0.00000000000E+00 -0.12965420211E+03  0.12965420211E+03  0.00000000000E+00 0.  1.
          6    1    1    2  501    0 -0.77203682039E+02 -0.79650646679E+02  0.20295550707E+02  0.20650797422E+03  0.17300000000E+03 0.  1.
         -6    1    1    2    0  502  0.77203682039E+02  0.79650646679E+02  0.25234363974E+03  0.32543962044E+03  0.17300000000E+03 0.  1.
<mgrwt>
<rscale>  2 0.20550823E+03</rscale>
<asrwt>0</asrwt>
<pdfrwt beam="1">  1       21 0.61891291E-01 0.20550823E+03</pdfrwt>
<pdfrwt beam="2">  1       21 0.19946800E-01 0.20550823E+03</pdfrwt>
<totfact> 0.55882261E+04</totfact>
</mgrwt>
</event>
<event>
 4    1  0.4067306E+000  0.1744639E+03  0.7546771E-02  0.1173271E+00
         21   -1    0    0  501  502  0.00000000000E+00  0.00000000000E+00  0.56956759580E+02  0.56956759580E+02  0.00000000000E+00 0.  1.
         21   -1    0    0  502  503 -0.00000000000E+00 -0.00000000000E+00 -0.72532408196E+03  0.72532408196E+03  0.00000000000E+00 0.  1.
          6    1    1    2  501    0  0.14715542508E+02  0.17091325066E+02 -0.13350664299E+03  0.21968542124E+03  0.17300000000E+03 0. -1.
         -6    1    1    2    0  503 -0.14715542508E+02 -0.17091325066E+02 -0.53486067939E+03  0.56259542030E+03  0.17300000000E+03 0. -1.
<mgrwt>
<rscale>  2 0.17446392E+03</rscale>
<asrwt>0</asrwt>
<pdfrwt beam="1">  1       21 0.87625790E-02 0.17446392E+03</pdfrwt>
<pdfrwt beam="2">  1       21 0.11158831E+00 0.17446392E+03</pdfrwt>
<totfact> 0.65143823E+04</totfact>
</mgrwt>
</event>
<event>
 4    1  0.4067306E+000  0.1752457E+03  0.7546771E-02  0.1172485E+00
         21   -1    0    0  501  502  0.00000000000E+00  0.00000000000E+00  0.21763496934E+03  0.21763496934E+03  0.00000000000E+00 0.  1.
         21   -1    0    0  502  503 -0.00000000000E+00 -0.00000000000E+00 -0.21830304378E+03  0.21830304378E+03  0.00000000000E+00 0.  1.
          6    1    1    2  501    0  0.22071460607E+02 -0.17172370984E+02  0.12927836957E+03  0.21777037571E+03  0.17300000000E+03 0.  1.
         -6    1    1    2    0  503 -0.22071460607E+02  0.17172370984E+02 -0.12994644401E+03  0.21816763740E+03  0.17300000000E+03 0.  1.
<mgrwt>
<rscale>  2 0.17524566E+03</rscale>
<asrwt>0</asrwt>
<pdfrwt beam="1">  1       21 0.33482303E-01 0.17524566E+03</pdfrwt>
<pdfrwt beam="2">  1       21 0.33585083E-01 0.17524566E+03</pdfrwt>
<totfact> 0.73901708E+04</totfact>
</mgrwt>
</event>
<event>
 4    1  0.4067306E+000  0.2232340E+03  0.7546771E-02  0.1131495E+00
         21   -1    0    0  501  502  0.00000000000E+00  0.00000000000E+00  0.24999839434E+03  0.24999839434E+03  0.00000000000E+00 0. -1.
         21   -1    0    0  502  503 -0.00000000000E+00 -0.00000000000E+00 -0.20131829121E+03  0.20131829121E+03  0.00000000000E+00 0. -1.
          6    1    1    2  501    0 -0.12239870875E+03  0.70163896974E+02  0.46738037783E+02  0.22807424343E+03  0.17300000000E+03 0. -1.
         -6    1    1    2    0  503  0.12239870875E+03 -0.70163896974E+02  0.19420653470E+01  0.22324244211E+03  0.17300000000E+03 0. -1.
<mgrwt>
<rscale>  2 0.22323399E+03</rscale>
<asrwt>0</asrwt>
<pdfrwt beam="1">  1       21 0.38461291E-01 0.22323399E+03</pdfrwt>
<pdfrwt beam="2">  1       21 0.30972045E-01 0.22323399E+03</pdfrwt>
<totfact> 0.64399551E+04</totfact>
</mgrwt>
</event>
<event>
 4    1  0.4067306E+000  0.1964007E+03  0.7546771E-02  0.1152812E+00
         21   -1    0    0  503  502  0.00000000000E+00  0.00000000000E+00  0.24500149275E+02  0.24500149275E+02  0.00000000000E+00 0. -1.
         21   -1    0    0  501  503 -0.00000000000E+00 -0.00000000000E+00 -0.16102155637E+04  0.16102155637E+04  0.00000000000E+00 0. -1.
          6    1    1    2  501    0  0.82849128418E+02 -0.42193248721E+02 -0.91474357025E+03  0.93559021352E+03  0.17300000000E+03 0.  1.
         -6    1    1    2    0  502 -0.82849128418E+02  0.42193248721E+02 -0.67097184422E+03  0.69912549950E+03  0.17300000000E+03 0.  1.
<mgrwt>
<rscale>  2 0.19640073E+03</rscale>
<asrwt>0</asrwt>
<pdfrwt beam="1">  1       21 0.37692534E-02 0.19640073E+03</pdfrwt>
<pdfrwt beam="2">  1       21 0.24772549E+00 0.19640073E+03</pdfrwt>
<totfact> 0.29590936E+04</totfact>
</mgrwt>
</event>
<event>
 4    1  0.4067306E+000  0.1928332E+03  0.7546771E-02  0.1155930E+00
         21   -1    0    0  503  502  0.00000000000E+00  0.00000000000E+00  0.49969993115E+03  0.49969993115E+03  0.00000000000E+00 0.  1.
         21   -1    0    0  501  503 -0.00000000000E+00 -0.00000000000E+00 -0.82792876609E+02  0.82792876609E+02  0.00000000000E+00 0. -1.
          6    1    1    2  501    0  0.58299715661E-01  0.85180094756E+02  0.11580085394E+03  0.22493218915E+03  0.17300000000E+03 0. -1.
         -6    1    1    2    0  502 -0.58299715661E-01 -0.85180094756E+02  0.30110620060E+03  0.35756061861E+03  0.17300000000E+03 0.  1.
<mgrwt>
<rscale>  2 0.19283322E+03</rscale>
<asrwt>0</asrwt>
<pdfrwt beam="1">  1       21 0.76876911E-01 0.19283322E+03</pdfrwt>
<pdfrwt beam="2">  1       21 0.12737366E-01 0.19283322E+03</pdfrwt>
<totfact> 0.79326448E+04</totfact>
</mgrwt>
</event>
<event>
 4    1  0.4067306E+000  0.2763547E+03  0.7546771E-02  0.1097697E+00
         21   -1    0    0  503  502  0.00000000000E+00  0.00000000000E+00  0.27825839606E+03  0.27825839606E+03  0.00000000000E+00 0. -1.
         21   -1    0    0  501  503 -0.00000000000E+00 -0.00000000000E+00 -0.27446875185E+03  0.27446875185E+03  0.00000000000E+00 0.  1.
          6    1    1    2  501    0  0.12879114456E+03  0.17278821957E+03  0.30380545215E+01  0.27637141226E+03  0.17300000000E+03 0.  1.
         -6    1    1    2    0  502 -0.12879114456E+03 -0.17278821957E+03  0.75158968662E+00  0.27635573565E+03  0.17300000000E+03 0. -1.
<mgrwt>
<rscale>  2 0.27635471E+03</rscale>
<asrwt>0</asrwt>
<pdfrwt beam="1">  1       21 0.42808984E-01 0.27635471E+03</pdfrwt>
<pdfrwt beam="2">  1       21 0.42225962E-01 0.27635471E+03</pdfrwt>
<totfact> 0.27200958E+04</totfact>
</mgrwt>
</event>
<event>
 4    1  0.4067306E+000  0.2192408E+03  0.7546771E-02  0.1134450E+00
         21   -1    0    0  503  502  0.00000000000E+00  0.00000000000E+00  0.14931000541E+03  0.14931000541E+03  0.00000000000E+00 0.  1.
         21   -1    0    0  501  503 -0.00000000000E+00 -0.00000000000E+00 -0.32710875368E+03  0.32710875368E+03  0.00000000000E+00 0.  1.
          6    1    1    2  501    0  0.45841024091E+02  0.12663388698E+03 -0.58910639167E+02  0.22701762977E+03  0.17300000000E+03 0.  1.
         -6    1    1    2    0  502 -0.45841024091E+02 -0.12663388698E+03 -0.11888810910E+03  0.24940112932E+03  0.17300000000E+03 0.  1.
<mgrwt>
<rscale>  2 0.21924083E+03</rscale>
<asrwt>0</asrwt>
<pdfrwt beam="1">  1       21 0.22970770E-01 0.21924083E+03</pdfrwt>
<pdfrwt beam="2">  1       21 0.50324423E-01 0.21924083E+03</pdfrwt>
<totfact> 0.66100614E+04</totfact>
</mgrwt>
</event>
<event>
 4    1  0.4067306E+000  0.1779551E+03  0.7546771E-02  0.1169797E+00
         21   -1    0    0  503  502  0.00000000000E+00  0.00000000000E+00  0.13737981798E+03  0.13737981798E+03  0.00000000000E+00 0.  1.
         21   -1    0    0  501  503 -0.00000000000E+00 -0.00000000000E+00 -0.24476276640E+03  0.24476276640E+03  0.00000000000E+00 0.  1.
          6    1    1    2  501    0 -0.23349714728E+02 -0.34551316277E+02 -0.99792217579E+02  0.20402570751E+03  0.17300000000E+03 0.  1.
         -6    1    1    2    0  502  0.23349714728E+02  0.34551316277E+02 -0.75907308444E+01  0.17811687688E+03  0.17300000000E+03 0.  1.
<mgrwt>
<rscale>  2 0.17795506E+03</rscale>
<asrwt>0</asrwt>
<pdfrwt beam="1">  1       21 0.21135357E-01 0.17795506E+03</pdfrwt>
<pdfrwt beam="2">  1       21 0.37655810E-01 0.17795506E+03</pdfrwt>
<totfact> 0.14226465E+05</totfact>
</mgrwt>
</event>
<event>
 4    1  0.4067306E+000  0.2479081E+03  0.7546771E-02  0.1114634E+00
         21   -1    0    0  501  502  0.00000000000E+00  0.00000000000E+00  0.13569145789E+03  0.13569145789E+03  0.00000000000E+00 0.  1.
         21   -1    0    0  502  503 -0.00000000000E+00 -0.00000000000E+00 -0.58973028912E+03  0.58973028912E+03  0.00000000000E+00 0. -1.
          6    1    1    2  501    0  0.11741687161E+03 -0.13320176755E+03 -0.40171457376E+03  0.47205193717E+03  0.17300000000E+03 0.  1.
         -6    1    1    2    0  503 -0.11741687161E+03  0.13320176755E+03 -0.52324257468E+02  0.25336980984E+03  0.17300000000E+03 0.  1.
<mgrwt>
<rscale>  2 0.24790811E+03</rscale>
<asrwt>0</asrwt>
<pdfrwt beam="1">  1       21 0.20875609E-01 0.24790811E+03</pdfrwt>
<pdfrwt beam="2">  1       21 0.90727738E-01 0.24790811E+03</pdfrwt>
<totfact> 0.21306027E+04</totfact>
</mgrwt>
</event>
<event>
 4    1  0.4067306E+000  0.1930676E+03  0.7546771E-02  0.1155723E+00
         21   -1    0    0  501  502  0.00000000000E+00  0.00000000000E+00  0.13706350433E+04  0.13706350433E+04  0.00000000000E+00 0.  1.
         21   -1    0    0  502  503 -0.00000000000E+00 -0.00000000000E+00 -0.38446334703E+02  0.38446334703E+02  0.00000000000E+00 0.  1.
          6    1    1    2  501    0  0.60242662494E+02  0.60966483666E+02  0.10472226467E+04  0.10648710543E+04  0.17300000000E+03 0.  1.
         -6    1    1    2    0  503 -0.60242662494E+02 -0.60966483666E+02  0.28496606191E+03  0.34421032372E+03  0.17300000000E+03 0.  1.
<mgrwt>
<rscale>  2 0.19306758E+03</rscale>
<asrwt>0</asrwt>
<pdfrwt beam="1">  1       21 0.21086689E+00 0.19306758E+03</pdfrwt>
<pdfrwt beam="2">  1       21 0.59148218E-02 0.19306758E+03</pdfrwt>
<totfact> 0.23149468E+04</totfact>
</mgrwt>
</event>
<event>
 4    1  0.4067306E+000  0.1850183E+03  0.7546771E-02  0.1163033E+00
         21   -1    0    0  501  502  0.00000000000E+00  0.00000000000E+00  0.30974161339E+03  0.30974161339E+03  0.00000000000E+00 0. -1.
         21   -1    0    0  502  503 -0.00000000000E+00 -0.00000000000E+00 -0.11055389690E+03  0.11055389690E+03  0.00000000000E+00 0. -1.
          6    1    1    2  501    0 -0.39357695302E+02 -0.52476288006E+02  0.95767363462E+02  0.20833429119E+03  0.17300000000E+03 0. -1.
         -6    1    1    2    0  503  0.39357695302E+02  0.52476288006E+02  0.10342035303E+03  0.21196121910E+03  0.17300000000E+03 0. -1.
<mgrwt>
<rscale>  2 0.18501835E+03</rscale>
<asrwt>0</asrwt>
<pdfrwt beam="1">  1       21 0.47652555E-01 0.18501835E+03</pdfrwt>
<pdfrwt beam="2">  1       21 0.17008292E-01 0.18501835E+03</pdfrwt>
<totfact> 0.13158842E+05</totfact>
</mgrwt>
</event>
<event>
 4    1  0.4067306E+000  0.2515522E+03  0.7546771E-02  0.1112328E+00
         21   -1    0    0  501  502  0.00000000000E+00  0.00000000000E+00  0.77726354198E+02  0.77726354198E+02  0.00000000000E+00 0. -1.
         21   -1    0    0  502  503 -0.00000000000E+00 -0.00000000000E+00 -0.12273731790E+04  0.12273731790E+04  0.00000000000E+00 0. -1.
          6    1    1    2  501    0  0.15707732272E+03  0.93146135268E+02 -0.19617682637E+03  0.31900444359E+03  0.17300000000E+03 0. -1.
         -6    1    1    2    0  503 -0.15707732272E+03 -0.93146135268E+02 -0.95346999845E+03  0.98609508962E+03  0.17300000000E+03 0. -1.
<mgrwt>
<rscale>  2 0.25155216E+03</rscale>
<asrwt>0</asrwt>
<pdfrwt beam="1">  1       21 0.11957901E-01 0.25155216E+03</pdfrwt>
<pdfrwt beam="2">  1       21 0.18882664E+00 0.25155216E+03</pdfrwt>
<totfact> 0.89725933E+03</totfact>
</mgrwt>
</event>
<event>
 4    1  0.4067306E+000  0.1966291E+03  0.7546771E-02  0.1152615E+00
         21   -1    0    0  503  502  0.00000000000E+00  0.00000000000E+00  0.75358791525E+02  0.75358791525E+02  0.00000000000E+00 0. -1.
         21   -1    0    0  501  503 -0.00000000000E+00 -0.00000000000E+00 -0.14877972424E+04  0.14877972424E+04  0.00000000000E+00 0. -1.
          6    1    1    2  501    0  0.63287957351E+02  0.68765099635E+02 -0.13388436378E+04  0.13532055613E+04  0.17300000000E+03 0. -1.
         -6    1    1    2    0  502 -0.63287957351E+02 -0.68765099635E+02 -0.73594813078E+02  0.20995047270E+03  0.17300000000E+03 0. -1.
<mgrwt>
<rscale>  2 0.19662910E+03</rscale>
<asrwt>0</asrwt>
<pdfrwt beam="1">  1       21 0.11593660E-01 0.19662910E+03</pdfrwt>
<pdfrwt beam="2">  1       21 0.22889189E+00 0.19662910E+03</pdfrwt>
<totfact> 0.55212094E+03</totfact>
</mgrwt>
</event>
<event>
 4    1  0.4067306E+000  0.1735678E+03  0.7546771E-02  0.1174177E+00
         21   -1    0    0  501  502  0.00000000000E+00  0.00000000000E+00  0.77530268510E+02  0.77530268510E+02  0.00000000000E+00 0. -1.
         21   -1    0    0  502  503 -0.00000000000E+00 -0.00000000000E+00 -0.64677119644E+03  0.64677119644E+03  0.00000000000E+00 0. -1.
          6    1    1    2  501    0  0.29327591808E+01  0.13717787196E+02 -0.55799996700E+02  0.18231680777E+03  0.17300000000E+03 0. -1.
         -6    1    1    2    0  503 -0.29327591808E+01 -0.13717787196E+02 -0.51344093123E+03  0.54198465719E+03  0.17300000000E+03 0. -1.
<mgrwt>
<rscale>  2 0.17356779E+03</rscale>
<asrwt>0</asrwt>
<pdfrwt beam="1">  1       21 0.11927733E-01 0.17356779E+03</pdfrwt>
<pdfrwt beam="2">  1       21 0.99503267E-01 0.17356779E+03</pdfrwt>
<totfact> 0.49755580E+04</totfact>
</mgrwt>
</event>
<event>
 4    1  0.4067306E+000  0.2056124E+03  0.7546771E-02  0.1145088E+00
         21   -1    0    0  501  502  0.00000000000E+00  0.00000000000E+00  0.11176862235E+03  0.11176862235E+03  0.00000000000E+00 0. -1.
         21   -1    0    0  502  503 -0.00000000000E+00 -0.00000000000E+00 -0.40278140381E+03  0.40278140381E+03  0.00000000000E+00 0. -1.
          6    1    1    2  501    0 -0.89798460834E+02 -0.65449928064E+02 -0.82013359038E+02  0.22136541670E+03  0.17300000000E+03 0. -1.
         -6    1    1    2    0  503  0.89798460834E+02  0.65449928064E+02 -0.20899942242E+03  0.29318460946E+03  0.17300000000E+03 0. -1.
<mgrwt>
<rscale>  2 0.20561239E+03</rscale>
<asrwt>0</asrwt>
<pdfrwt beam="1">  1       21 0.17195173E-01 0.20561239E+03</pdfrwt>
<pdfrwt beam="2">  1       21 0.61966370E-01 0.20561239E+03</pdfrwt>
<totfact> 0.73422856E+04</totfact>
</mgrwt>
</event>
<event>
 4    1  0.4067306E+000  0.2138160E+03  0.7546771E-02  0.1138579E+00
         21   -1    0    0  501  502  0.00000000000E+00  0.00000000000E+00  0.49656514551E+03  0.49656514551E+03  0.00000000000E+00 0. -1.
         21   -1    0    0  502  503 -0.00000000000E+00 -0.00000000000E+00 -0.21119978200E+03  0.21119978200E+03  0.00000000000E+00 0.  1.
          6    1    1    2  501    0  0.12507216456E+03 -0.12051139322E+02  0.40846611266E+03  0.46104429451E+03  0.17300000000E+03 0. -1.
         -6    1    1    2    0  503 -0.12507216456E+03  0.12051139322E+02 -0.12310074915E+03  0.24672063300E+03  0.17300000000E+03 0.  1.
<mgrwt>
<rscale>  2 0.21381599E+03</rscale>
<asrwt>0</asrwt>
<pdfrwt beam="1">  1       21 0.76394638E-01 0.21381599E+03</pdfrwt>
<pdfrwt beam="2">  1       21 0.32492274E-01 0.21381599E+03</pdfrwt>
<totfact> 0.13719159E+04</totfact>
</mgrwt>
</event>
<event>
 4    1  0.4067306E+000  0.2267942E+03  0.7546771E-02  0.1128917E+00
         21   -1    0    0  501  502  0.00000000000E+00  0.00000000000E+00  0.19296266169E+04  0.19296266169E+04  0.00000000000E+00 0.  1.
         21   -1    0    0  502  503 -0.00000000000E+00 -0.00000000000E+00 -0.50463976353E+02  0.50463976353E+02  0.00000000000E+00 0.  1.
          6    1    1    2  501    0 -0.97541829129E+02  0.10950885435E+03  0.16196113242E+04  0.16354132319E+04  0.17300000000E+03 0.  1.
         -6    1    1    2    0  503  0.97541829129E+02 -0.10950885435E+03  0.25955131636E+03  0.34467736136E+03  0.17300000000E+03 0.  1.
<mgrwt>
<rscale>  2 0.22679417E+03</rscale>
<asrwt>0</asrwt>
<pdfrwt beam="1">  1       21 0.29686558E+00 0.22679417E+03</pdfrwt>
<pdfrwt beam="2">  1       21 0.77636902E-02 0.22679417E+03</pdfrwt>
<totfact> 0.43341513E+03</totfact>
</mgrwt>
</event>
<event>
 4    1  0.4067306E+000  0.1803038E+03  0.7546771E-02  0.1167509E+00
         21   -1    0    0  503  502  0.00000000000E+00  0.00000000000E+00  0.44651792210E+03  0.44651792210E+03  0.00000000000E+00 0. -1.
         21   -1    0    0  501  503 -0.00000000000E+00 -0.00000000000E+00 -0.11418008778E+03  0.11418008778E+03  0.00000000000E+00 0. -1.
          6    1    1    2  501    0  0.34197379833E+02 -0.37563300799E+02  0.33492707450E+03  0.38037561382E+03  0.17300000000E+03 0. -1.
         -6    1    1    2    0  502 -0.34197379833E+02  0.37563300799E+02 -0.25892401828E+01  0.18032239606E+03  0.17300000000E+03 0. -1.
<mgrwt>
<rscale>  2 0.18030381E+03</rscale>
<asrwt>0</asrwt>
<pdfrwt beam="1">  1       21 0.68695064E-01 0.18030381E+03</pdfrwt>
<pdfrwt beam="2">  1       21 0.17566168E-01 0.18030381E+03</pdfrwt>
<totfact> 0.57044226E+04</totfact>
</mgrwt>
</event>
<event>
 4    1  0.4067306E+000  0.1842187E+03  0.7546771E-02  0.1163782E+00
         21   -1    0    0  501  502  0.00000000000E+00  0.00000000000E+00  0.12262907574E+03  0.12262907574E+03  0.00000000000E+00 0. -1.
         21   -1    0    0  502  503 -0.00000000000E+00 -0.00000000000E+00 -0.11662637946E+04  0.11662637946E+04  0.00000000000E+00 0. -1.
          6    1    1    2  501    0  0.48994781902E+02 -0.40087804009E+02  0.40999261844E+02  0.18872588629E+03  0.17300000000E+03 0. -1.
         -6    1    1    2    0  503 -0.48994781902E+02  0.40087804009E+02 -0.10846339807E+04  0.11001669841E+04  0.17300000000E+03 0. -1.
<mgrwt>
<rscale>  2 0.18421868E+03</rscale>
<asrwt>0</asrwt>
<pdfrwt beam="1">  1       21 0.18866011E-01 0.18421868E+03</pdfrwt>
<pdfrwt beam="2">  1       21 0.17942520E+00 0.18421868E+03</pdfrwt>
<totfact> 0.47613887E+03</totfact>
</mgrwt>
</event>
<event>
 4    1  0.4067306E+000  0.1797544E+03  0.7546771E-02  0.1168041E+00
         21   -1    0    0  501  502  0.00000000000E+00  0.00000000000E+00  0.36894688037E+02  0.36894688037E+02  0.00000000000E+00 0. -1.
         21   -1    0    0  502  503 -0.00000000000E+00 -0.00000000000E+00 -0.10766066385E+04  0.10766066385E+04  0.00000000000E+00 0. -1.
          6    1    1    2  501    0  0.36712047292E+02 -0.32169375827E+02 -0.27939617221E+03  0.33222562243E+03  0.17300000000E+03 0.  1.
         -6    1    1    2    0  503 -0.36712047292E+02  0.32169375827E+02 -0.76031577825E+03  0.78127570410E+03  0.17300000000E+03 0.  1.
<mgrwt>
<rscale>  2 0.17975440E+03</rscale>
<asrwt>0</asrwt>
<pdfrwt beam="1">  1       21 0.56761064E-02 0.17975440E+03</pdfrwt>
<pdfrwt beam="2">  1       21 0.16563177E+00 0.17975440E+03</pdfrwt>
<totfact> 0.50058268E+04</totfact>
</mgrwt>
</event>
<event>
 4    1  0.4067306E+000  0.1907458E+03  0.7546771E-02  0.1157790E+00
         21   -1    0    0  501  502  0.00000000000E+00  0.00000000000E+00  0.87390567012E+02  0.87390567012E+02  0.00000000000E+00 0. -1.
         21   -1    0    0  502  503 -0.00000000000E+00 -0.00000000000E+00 -0.63031055320E+03  0.63031055320E+03  0.00000000000E+00 0.  1.
          6    1    1    2  501    0  0.66853715205E+02 -0.44559408068E+02 -0.62378304734E+02  0.20068635476E+03  0.17300000000E+03 0. -1.
         -6    1    1    2    0  503 -0.66853715205E+02  0.44559408068E+02 -0.48054168145E+03  0.51701476545E+03  0.17300000000E+03 0.  1.
<mgrwt>
<rscale>  2 0.19074580E+03</rscale>
<asrwt>0</asrwt>
<pdfrwt beam="1">  1       21 0.13444702E-01 0.19074580E+03</pdfrwt>
<pdfrwt beam="2">  1       21 0.96970858E-01 0.19074580E+03</pdfrwt>
<totfact> 0.42274672E+04</totfact>
</mgrwt>
</event>
<event>
 4    1  0.4067306E+000  0.2486799E+03  0.7546771E-02  0.1114142E+00
         21   -1    0    0  501  502  0.00000000000E+00  0.00000000000E+00  0.10189186370E+03  0.10189186370E+03  0.00000000000E+00 0.  1.
         21   -1    0    0  502  503 -0.00000000000E+00 -0.00000000000E+00 -0.12572989392E+04  0.12572989392E+04  0.00000000000E+00 0. -1.
          6    1    1    2  501    0  0.10183675750E+03 -0.14677177436E+03 -0.10664792057E+04  0.10950888435E+04  0.17300000000E+03 0. -1.
         -6    1    1    2    0  503 -0.10183675750E+03  0.14677177436E+03 -0.88927869767E+02  0.26410195938E+03  0.17300000000E+03 0.  1.
<mgrwt>
<rscale>  2 0.24867987E+03</rscale>
<asrwt>0</asrwt>
<pdfrwt beam="1">  1       21 0.15675672E-01 0.24867987E+03</pdfrwt>
<pdfrwt beam="2">  1       21 0.19343060E+00 0.24867987E+03</pdfrwt>
<totfact> 0.51206956E+03</totfact>
</mgrwt>
</event>
<event>
 4    1  0.4067306E+000  0.1733168E+03  0.7546771E-02  0.1174432E+00
         21   -1    0    0  501  502  0.00000000000E+00  0.00000000000E+00  0.60861510001E+03  0.60861510001E+03  0.00000000000E+00 0.  1.
         21   -1    0    0  502  503 -0.00000000000E+00 -0.00000000000E+00 -0.55335925308E+02  0.55335925308E+02  0.00000000000E+00 0.  1.
          6    1    1    2  501    0  0.36593182615E+01  0.98147110489E+01  0.16750671772E+03  0.24103364837E+03  0.17300000000E+03 0.  1.
         -6    1    1    2    0  503 -0.36593182615E+01 -0.98147110489E+01  0.38577245698E+03  0.42291737695E+03  0.17300000000E+03 0.  1.
<mgrwt>
<rscale>  2 0.17331682E+03</rscale>
<asrwt>0</asrwt>
<pdfrwt beam="1">  1       21 0.93633088E-01 0.17331682E+03</pdfrwt>
<pdfrwt beam="2">  1       21 0.85132197E-02 0.17331682E+03</pdfrwt>
<totfact> 0.10398840E+05</totfact>
</mgrwt>
</event>
<event>
 4    1  0.4067306E+000  0.1814885E+03  0.7546771E-02  0.1166370E+00
         21   -1    0    0  501  502  0.00000000000E+00  0.00000000000E+00  0.68401340978E+02  0.68401340978E+02  0.00000000000E+00 0. -1.
         21   -1    0    0  502  503 -0.00000000000E+00 -0.00000000000E+00 -0.12664198012E+04  0.12664198012E+04  0.00000000000E+00 0. -1.
          6    1    1    2  501    0  0.81585202111E+01  0.54244996783E+02 -0.73590670752E+02  0.19584092511E+03  0.17300000000E+03 0. -1.
         -6    1    1    2    0  503 -0.81585202111E+01 -0.54244996783E+02 -0.11244277895E+04  0.11389802171E+04  0.17300000000E+03 0. -1.
<mgrwt>
<rscale>  2 0.18148852E+03</rscale>
<asrwt>0</asrwt>
<pdfrwt beam="1">  1       21 0.10523284E-01 0.18148852E+03</pdfrwt>
<pdfrwt beam="2">  1       21 0.19483380E+00 0.18148852E+03</pdfrwt>
<totfact> 0.10851522E+04</totfact>
</mgrwt>
</event>
<event>
 4    1  0.4067306E+000  0.1749793E+03  0.7546771E-02  0.1172752E+00
         21   -1    0    0  503  502  0.00000000000E+00  0.00000000000E+00  0.23063681233E+03  0.23063681233E+03  0.00000000000E+00 0.  1.
         21   -1    0    0  501  503 -0.00000000000E+00 -0.00000000000E+00 -0.19755707294E+03  0.19755707294E+03  0.00000000000E+00 0.  1.
          6    1    1    2  501    0 -0.22245307184E+02  0.13925053419E+02 -0.10608113194E+03  0.20462396575E+03  0.17300000000E+03 0.  1.
         -6    1    1    2    0  502  0.22245307184E+02 -0.13925053419E+02  0.13916087134E+03  0.22356991952E+03  0.17300000000E+03 0.  1.
<mgrwt>
<rscale>  2 0.17497932E+03</rscale>
<asrwt>0</asrwt>
<pdfrwt beam="1">  1       21 0.35482587E-01 0.17497932E+03</pdfrwt>
<pdfrwt beam="2">  1       21 0.30393396E-01 0.17497932E+03</pdfrwt>
<totfact> 0.80137800E+04</totfact>
</mgrwt>
</event>
<event>
 4    1  0.4067306E+000  0.2166880E+03  0.7546771E-02  0.1136377E+00
         21   -1    0    0  501  502  0.00000000000E+00  0.00000000000E+00  0.38865781762E+03  0.38865781762E+03  0.00000000000E+00 0.  1.
         21   -1    0    0  502  503 -0.00000000000E+00 -0.00000000000E+00 -0.37267771493E+03  0.37267771493E+03  0.00000000000E+00 0.  1.
          6    1    1    2  501    0  0.10125155321E+03  0.82297070466E+02  0.32093344611E+03  0.38723631243E+03  0.17300000000E+03 0.  1.
         -6    1    1    2    0  503 -0.10125155321E+03 -0.82297070466E+02 -0.30495334341E+03  0.37409922012E+03  0.17300000000E+03 0.  1.
<mgrwt>
<rscale>  2 0.21668799E+03</rscale>
<asrwt>0</asrwt>
<pdfrwt beam="1">  1       21 0.59793510E-01 0.21668799E+03</pdfrwt>
<pdfrwt beam="2">  1       21 0.57335033E-01 0.21668799E+03</pdfrwt>
<totfact> 0.73286397E+03</totfact>
</mgrwt>
</event>
<event>
 4    1  0.4067306E+000  0.2300961E+03  0.7546771E-02  0.1126572E+00
         21   -1    0    0  503  502  0.00000000000E+00  0.00000000000E+00  0.61007980279E+02  0.61007980279E+02  0.00000000000E+00 0.  1.
         21   -1    0    0  501  503 -0.00000000000E+00 -0.00000000000E+00 -0.10923840927E+04  0.10923840927E+04  0.00000000000E+00 0. -1.
          6    1    1    2  501    0 -0.94316246781E+02 -0.11882620956E+03 -0.77715997223E+03  0.81050715291E+03  0.17300000000E+03 0. -1.
         -6    1    1    2    0  502  0.94316246781E+02  0.11882620956E+03 -0.25421614024E+03  0.34288492012E+03  0.17300000000E+03 0.  1.
<mgrwt>
<rscale>  2 0.23009612E+03</rscale>
<asrwt>0</asrwt>
<pdfrwt beam="1">  1       21 0.93858436E-02 0.23009612E+03</pdfrwt>
<pdfrwt beam="2">  1       21 0.16805908E+00 0.23009612E+03</pdfrwt>
<totfact> 0.19487897E+04</totfact>
</mgrwt>
</event>
<event>
 4    1  0.4067306E+000  0.2111229E+03  0.7546771E-02  0.1140680E+00
         21   -1    0    0  501  502  0.00000000000E+00  0.00000000000E+00  0.56820416934E+03  0.56820416934E+03  0.00000000000E+00 0.  1.
         21   -1    0    0  502  503 -0.00000000000E+00 -0.00000000000E+00 -0.83468229136E+02  0.83468229136E+02  0.00000000000E+00 0.  1.
          6    1    1    2  501    0  0.36522928863E+02  0.11536881420E+03  0.32230016497E+03  0.38529246549E+03  0.17300000000E+03 0.  1.
         -6    1    1    2    0  503 -0.36522928863E+02 -0.11536881420E+03  0.16243577523E+03  0.26637993298E+03  0.17300000000E+03 0.  1.
<mgrwt>
<rscale>  2 0.21112292E+03</rscale>
<asrwt>0</asrwt>
<pdfrwt beam="1">  1       21 0.87416024E-01 0.21112292E+03</pdfrwt>
<pdfrwt beam="2">  1       21 0.12841266E-01 0.21112292E+03</pdfrwt>
<totfact> 0.57875205E+04</totfact>
</mgrwt>
</event>
<event>
 4    1  0.4067306E+000  0.3057710E+03  0.7546771E-02  0.1082391E+00
         21   -1    0    0  503  502  0.00000000000E+00  0.00000000000E+00  0.40610146139E+03  0.40610146139E+03  0.00000000000E+00 0.  1.
         21   -1    0    0  501  503 -0.00000000000E+00 -0.00000000000E+00 -0.51567658228E+03  0.51567658228E+03  0.00000000000E+00 0. -1.
          6    1    1    2  501    0 -0.72952057560E+02  0.24133980273E+03 -0.39769084815E+03  0.50165118737E+03  0.17300000000E+03 0. -1.
         -6    1    1    2    0  502  0.72952057560E+02 -0.24133980273E+03  0.28811572726E+03  0.42012685630E+03  0.17300000000E+03 0.  1.
<mgrwt>
<rscale>  2 0.30577100E+03</rscale>
<asrwt>0</asrwt>
<pdfrwt beam="1">  1       21 0.62477148E-01 0.30577100E+03</pdfrwt>
<pdfrwt beam="2">  1       21 0.79334859E-01 0.30577100E+03</pdfrwt>
<totfact> 0.30833656E+03</totfact>
</mgrwt>
</event>
<event>
 4    1  0.4067306E+000  0.2054562E+03  0.7546771E-02  0.1145216E+00
         21   -1    0    0  503  502  0.00000000000E+00  0.00000000000E+00  0.12287191070E+03  0.12287191070E+03  0.00000000000E+00 0. -1.
         21   -1    0    0  501  503 -0.00000000000E+00 -0.00000000000E+00 -0.37821752775E+03  0.37821752775E+03  0.00000000000E+00 0. -1.
          6    1    1    2  501    0 -0.10302283045E+00 -0.11082983173E+03 -0.20352975771E+03  0.28919997318E+03  0.17300000000E+03 0.  1.
         -6    1    1    2    0  502  0.10302283045E+00  0.11082983173E+03 -0.51815859345E+02  0.21188946527E+03  0.17300000000E+03 0.  1.
<mgrwt>
<rscale>  2 0.20545623E+03</rscale>
<asrwt>0</asrwt>
<pdfrwt beam="1">  1       21 0.18903371E-01 0.20545623E+03</pdfrwt>
<pdfrwt beam="2">  1       21 0.58187311E-01 0.20545623E+03</pdfrwt>
<totfact> 0.70544594E+04</totfact>
</mgrwt>
</event>
<event>
 4    1  0.4067306E+000  0.2142741E+03  0.7546771E-02  0.1138225E+00
         21   -1    0    0  503  502  0.00000000000E+00  0.00000000000E+00  0.21688359847E+03  0.21688359847E+03  0.00000000000E+00 0.  1.
         21   -1    0    0  501  503 -0.00000000000E+00 -0.00000000000E+00 -0.21549962818E+03  0.21549962818E+03  0.00000000000E+00 0. -1.
          6    1    1    2  501    0 -0.20762787285E+02 -0.12471279554E+03  0.29414251318E+02  0.21628354742E+03  0.17300000000E+03 0.  1.
         -6    1    1    2    0  502  0.20762787285E+02  0.12471279554E+03 -0.28030281029E+02  0.21609967922E+03  0.17300000000E+03 0. -1.
<mgrwt>
<rscale>  2 0.21427406E+03</rscale>
<asrwt>0</asrwt>
<pdfrwt beam="1">  1       21 0.33366707E-01 0.21427406E+03</pdfrwt>
<pdfrwt beam="2">  1       21 0.33153789E-01 0.21427406E+03</pdfrwt>
<totfact> 0.75072237E+04</totfact>
</mgrwt>
</event>
<event>
 4    1  0.4067306E+000  0.1838740E+03  0.7546771E-02  0.1164106E+00
         21   -1    0    0  503  502  0.00000000000E+00  0.00000000000E+00  0.10701188159E+04  0.10701188159E+04  0.00000000000E+00 0. -1.
         21   -1    0    0  501  503 -0.00000000000E+00 -0.00000000000E+00 -0.35129513045E+02  0.35129513045E+02  0.00000000000E+00 0. -1.
          6    1    1    2  501    0  0.62558186851E+01 -0.61979983172E+02  0.69280262831E+03  0.71678806866E+03  0.17300000000E+03 0. -1.
         -6    1    1    2    0  502 -0.62558186851E+01  0.61979983172E+02  0.34218667453E+03  0.38846026026E+03  0.17300000000E+03 0. -1.
<mgrwt>
<rscale>  2 0.18387402E+03</rscale>
<asrwt>0</asrwt>
<pdfrwt beam="1">  1       21 0.16463364E+00 0.18387402E+03</pdfrwt>
<pdfrwt beam="2">  1       21 0.54045413E-02 0.18387402E+03</pdfrwt>
<totfact> 0.55181630E+04</totfact>
</mgrwt>
</event>
<event>
 4    1  0.4067306E+000  0.1736531E+03  0.7546771E-02  0.1174091E+00
         21   -1    0    0  501  502  0.00000000000E+00  0.00000000000E+00  0.53775425670E+03  0.53775425670E+03  0.00000000000E+00 0.  1.
         21   -1    0    0  502  503 -0.00000000000E+00 -0.00000000000E+00 -0.65948407431E+02  0.65948407431E+02  0.00000000000E+00 0.  1.
          6    1    1    2  501    0  0.13430218989E+02 -0.67849612469E+01  0.35268878228E+03  0.39312184323E+03  0.17300000000E+03 0.  1.
         -6    1    1    2    0  503 -0.13430218989E+02  0.67849612469E+01  0.11911706699E+03  0.21058082090E+03  0.17300000000E+03 0.  1.
<mgrwt>
<rscale>  2 0.17365312E+03</rscale>
<asrwt>0</asrwt>
<pdfrwt beam="1">  1       21 0.82731421E-01 0.17365312E+03</pdfrwt>
<pdfrwt beam="2">  1       21 0.10145909E-01 0.17365312E+03</pdfrwt>
<totfact> 0.10157552E+05</totfact>
</mgrwt>
</event>
<event>
 4    1  0.4067306E+000  0.1758205E+03  0.7546771E-02  0.1171910E+00
         21   -1    0    0  501  502  0.00000000000E+00  0.00000000000E+00  0.66333089755E+02  0.66333089755E+02  0.00000000000E+00 0. -1.
         21   -1    0    0  502  503 -0.00000000000E+00 -0.00000000000E+00 -0.51226190374E+03  0.51226190374E+03  0.00000000000E+00 0. -1.
          6    1    1    2  501    0 -0.51133231349E+01  0.30946645682E+02 -0.13604922340E+03  0.22231111564E+03  0.17300000000E+03 0. -1.
         -6    1    1    2    0  503  0.51133231349E+01 -0.30946645682E+02 -0.30987959058E+03  0.35628387785E+03  0.17300000000E+03 0. -1.
<mgrwt>
<rscale>  2 0.17582048E+03</rscale>
<asrwt>0</asrwt>
<pdfrwt beam="1">  1       21 0.10205090E-01 0.17582048E+03</pdfrwt>
<pdfrwt beam="2">  1       21 0.78809527E-01 0.17582048E+03</pdfrwt>
<totfact> 0.11209239E+05</totfact>
</mgrwt>
</event>
<event>
 4    1  0.4067306E+000  0.1849088E+03  0.7546771E-02  0.1163135E+00
         21   -1    0    0  501  502  0.00000000000E+00  0.00000000000E+00  0.39933338126E+03  0.39933338126E+03  0.00000000000E+00 0.  1.
         21   -1    0    0  502  503 -0.00000000000E+00 -0.00000000000E+00 -0.85750967649E+02  0.85750967649E+02  0.00000000000E+00 0.  1.
          6    1    1    2  501    0  0.47089231197E+02  0.45220288994E+02  0.14734390311E+03  0.23643497207E+03  0.17300000000E+03 0.  1.
         -6    1    1    2    0  503 -0.47089231197E+02 -0.45220288994E+02  0.16623851050E+03  0.24864937684E+03  0.17300000000E+03 0.  1.
<mgrwt>
<rscale>  2 0.18490882E+03</rscale>
<asrwt>0</asrwt>
<pdfrwt beam="1">  1       21 0.61435904E-01 0.18490882E+03</pdfrwt>
<pdfrwt beam="2">  1       21 0.13192457E-01 0.18490882E+03</pdfrwt>
<totfact> 0.12224456E+05</totfact>
</mgrwt>
</event>
<event>
 4    1  0.4067306E+000  0.3920292E+03  0.7546771E-02  0.1046575E+00
         21   -1    0    0  503  502  0.00000000000E+00  0.00000000000E+00  0.23027651412E+03  0.23027651412E+03  0.00000000000E+00 0.  1.
         21   -1    0    0  501  503 -0.00000000000E+00 -0.00000000000E+00 -0.11374863810E+04  0.11374863810E+04  0.00000000000E+00 0. -1.
          6    1    1    2  501    0 -0.34589427339E+03 -0.64148605206E+02 -0.13966289845E+02  0.39227789788E+03  0.17300000000E+03 0.  1.
         -6    1    1    2    0  502  0.34589427339E+03  0.64148605206E+02 -0.89324357700E+03  0.97548499720E+03  0.17300000000E+03 0. -1.
<mgrwt>
<rscale>  2 0.39202920E+03</rscale>
<asrwt>0</asrwt>
<pdfrwt beam="1">  1       21 0.35427156E-01 0.39202920E+03</pdfrwt>
<pdfrwt beam="2">  1       21 0.17499790E+00 0.39202920E+03</pdfrwt>
<totfact> 0.13116362E+03</totfact>
</mgrwt>
</event>
<event>
 4    1  0.4067306E+000  0.1757538E+03  0.7546771E-02  0.1171977E+00
         21   -1    0    0  503  502  0.00000000000E+00  0.00000000000E+00  0.99774789492E+02  0.99774789492E+02  0.00000000000E+00 0. -1.
         21   -1    0    0  501  503 -0.00000000000E+00 -0.00000000000E+00 -0.44752336556E+03  0.44752336556E+03  0.00000000000E+00 0. -1.
          6    1    1    2  501    0  0.30663229132E+02  0.44911345287E+01 -0.32579563288E+03  0.37017860326E+03  0.17300000000E+03 0. -1.
         -6    1    1    2    0  502 -0.30663229132E+02 -0.44911345287E+01 -0.21952943184E+02  0.17711955179E+03  0.17300000000E+03 0. -1.
<mgrwt>
<rscale>  2 0.17575382E+03</rscale>
<asrwt>0</asrwt>
<pdfrwt beam="1">  1       21 0.15349967E-01 0.17575382E+03</pdfrwt>
<pdfrwt beam="2">  1       21 0.68849750E-01 0.17575382E+03</pdfrwt>
<totfact> 0.72813738E+04</totfact>
</mgrwt>
</event>
<event>
 4    1  0.4067306E+000  0.1779406E+03  0.7546771E-02  0.1169811E+00
         21   -1    0    0  501  502  0.00000000000E+00  0.00000000000E+00  0.44592374380E+03  0.44592374380E+03  0.00000000000E+00 0.  1.
         21   -1    0    0  502  503 -0.00000000000E+00 -0.00000000000E+00 -0.71470210537E+02  0.71470210537E+02  0.00000000000E+00 0.  1.
          6    1    1    2  501    0 -0.36381290538E+02  0.20254884853E+02  0.16635744483E+03  0.24359322263E+03  0.17300000000E+03 0.  1.
         -6    1    1    2    0  503  0.36381290538E+02 -0.20254884853E+02  0.20809608843E+03  0.27380073170E+03  0.17300000000E+03 0.  1.
<mgrwt>
<rscale>  2 0.17794060E+03</rscale>
<asrwt>0</asrwt>
<pdfrwt beam="1">  1       21 0.68603651E-01 0.17794060E+03</pdfrwt>
<pdfrwt beam="2">  1       21 0.10995417E-01 0.17794060E+03</pdfrwt>
<totfact> 0.13353060E+05</totfact>
</mgrwt>
</event>
<event>
 4    1  0.4067306E+000  0.1771208E+03  0.7546771E-02  0.1170619E+00
         21   -1    0    0  501  502  0.00000000000E+00  0.00000000000E+00  0.15078340513E+03  0.15078340513E+03  0.00000000000E+00 0.  1.
         21   -1    0    0  502  503 -0.00000000000E+00 -0.00000000000E+00 -0.45963703368E+03  0.45963703368E+03  0.00000000000E+00 0.  1.
          6    1    1    2  501    0 -0.36496821308E+02  0.10524853170E+02  0.71375418874E+02  0.19096135975E+03  0.17300000000E+03 0.  1.
         -6    1    1    2    0  503  0.36496821308E+02 -0.10524853170E+02 -0.38022904742E+03  0.41945907905E+03  0.17300000000E+03 0.  1.
<mgrwt>
<rscale>  2 0.17712084E+03</rscale>
<asrwt>0</asrwt>
<pdfrwt beam="1">  1       21 0.23197447E-01 0.17712084E+03</pdfrwt>
<pdfrwt beam="2">  1       21 0.70713389E-01 0.17712084E+03</pdfrwt>
<totfact> 0.31909575E+04</totfact>
</mgrwt>
</event>
<event>
 4    1  0.4067306E+000  0.1945237E+03  0.7546771E-02  0.1154443E+00
         21   -1    0    0  501  502  0.00000000000E+00  0.00000000000E+00  0.47436282816E+03  0.47436282816E+03  0.00000000000E+00 0.  1.
         21   -1    0    0  502  503 -0.00000000000E+00 -0.00000000000E+00 -0.84304996693E+02  0.84304996693E+02  0.00000000000E+00 0. -1.
          6    1    1    2  501    0  0.86893050239E+02  0.18975259837E+02  0.25982248961E+03  0.32457231670E+03  0.17300000000E+03 0.  1.
         -6    1    1    2    0  503 -0.86893050239E+02 -0.18975259837E+02  0.13023534186E+03  0.23409550815E+03  0.17300000000E+03 0. -1.
<mgrwt>
<rscale>  2 0.19452368E+03</rscale>
<asrwt>0</asrwt>
<pdfrwt beam="1">  1       21 0.72978895E-01 0.19452368E+03</pdfrwt>
<pdfrwt beam="2">  1       21 0.12970000E-01 0.19452368E+03</pdfrwt>
<totfact> 0.86179684E+04</totfact>
</mgrwt>
</event>
<event>
 4    1  0.4067306E+000  0.1868595E+03  0.7546771E-02  0.1161325E+00
         21   -1    0    0  503  502  0.00000000000E+00  0.00000000000E+00  0.16496227210E+02  0.16496227210E+02  0.00000000000E+00 0. -1.
         21   -1    0    0  501  503 -0.00000000000E+00 -0.00000000000E+00 -0.21353354505E+04  0.21353354505E+04  0.00000000000E+00 0. -1.
          6    1    1    2  501    0  0.18514397356E+01 -0.70597794980E+02 -0.11601086326E+04  0.11750610690E+04  0.17300000000E+03 0. -1.
         -6    1    1    2    0  502 -0.18514397356E+01  0.70597794980E+02 -0.95873059076E+03  0.97677060876E+03  0.17300000000E+03 0. -1.
<mgrwt>
<rscale>  2 0.18685951E+03</rscale>
<asrwt>0</asrwt>
<pdfrwt beam="1">  1       21 0.25378825E-02 0.18685951E+03</pdfrwt>
<pdfrwt beam="2">  1       21 0.32851297E+00 0.18685951E+03</pdfrwt>
<totfact> 0.19599648E+04</totfact>
</mgrwt>
</event>
<event>
 4    1  0.4067306E+000  0.1806317E+03  0.7546771E-02  0.1167193E+00
         21   -1    0    0  501  502  0.00000000000E+00  0.00000000000E+00  0.14486349175E+03  0.14486349175E+03  0.00000000000E+00 0. -1.
         21   -1    0    0  502  503 -0.00000000000E+00 -0.00000000000E+00 -0.23545055707E+03  0.23545055707E+03  0.00000000000E+00 0. -1.
          6    1    1    2  501    0 -0.22394995872E+02  0.46874911176E+02 -0.56773988014E+01  0.18072085102E+03  0.17300000000E+03 0. -1.
         -6    1    1    2    0  503  0.22394995872E+02 -0.46874911176E+02 -0.84909666521E+02  0.19959319780E+03  0.17300000000E+03 0. -1.
<mgrwt>
<rscale>  2 0.18063165E+03</rscale>
<asrwt>0</asrwt>
<pdfrwt beam="1">  1       21 0.22286691E-01 0.18063165E+03</pdfrwt>
<pdfrwt beam="2">  1       21 0.36223162E-01 0.18063165E+03</pdfrwt>
<totfact> 0.13900125E+05</totfact>
</mgrwt>
</event>
<event>
 4    1  0.4067306E+000  0.2027854E+03  0.7546771E-02  0.1147410E+00
         21   -1    0    0  501  502  0.00000000000E+00  0.00000000000E+00  0.13626937862E+04  0.13626937862E+04  0.00000000000E+00 0. -1.
         21   -1    0    0  502  503 -0.00000000000E+00 -0.00000000000E+00 -0.34711923170E+02  0.34711923170E+02  0.00000000000E+00 0. -1.
          6    1    1    2  501    0  0.70981595213E+01  0.10555822216E+03  0.91653736961E+03  0.93870265368E+03  0.17300000000E+03 0. -1.
         -6    1    1    2    0  503 -0.70981595213E+01 -0.10555822216E+03  0.41144449341E+03  0.45870305568E+03  0.17300000000E+03 0. -1.
<mgrwt>
<rscale>  2 0.20278541E+03</rscale>
<asrwt>0</asrwt>
<pdfrwt beam="1">  1       21 0.20964516E+00 0.20278541E+03</pdfrwt>
<pdfrwt beam="2">  1       21 0.53402969E-02 0.20278541E+03</pdfrwt>
<totfact> 0.27845650E+04</totfact>
</mgrwt>
</event>
<event>
 4    1  0.4067306E+000  0.1955548E+03  0.7546771E-02  0.1153545E+00
         21   -1    0    0  503  502  0.00000000000E+00  0.00000000000E+00  0.24686189326E+04  0.24686189326E+04  0.00000000000E+00 0. -1.
         21   -1    0    0  501  503 -0.00000000000E+00 -0.00000000000E+00 -0.21387678562E+02  0.21387678562E+02  0.00000000000E+00 0. -1.
          6    1    1    2  501    0 -0.31916327525E+02  0.85405186131E+02  0.56990189856E+03  0.60251960280E+03  0.17300000000E+03 0. -1.
         -6    1    1    2    0  502  0.31916327525E+02 -0.85405186131E+02  0.18773293555E+04  0.18874870084E+04  0.17300000000E+03 0. -1.
<mgrwt>
<rscale>  2 0.19555485E+03</rscale>
<asrwt>0</asrwt>
<pdfrwt beam="1">  1       21 0.37978730E+00 0.19555485E+03</pdfrwt>
<pdfrwt beam="2">  1       21 0.32904140E-02 0.19555485E+03</pdfrwt>
<totfact> 0.62722527E+03</totfact>
</mgrwt>
</event>
<event>
 4    1  0.4067306E+000  0.1945630E+03  0.7546771E-02  0.1154409E+00
         21   -1    0    0  501  502  0.00000000000E+00  0.00000000000E+00  0.77653384820E+03  0.77653384820E+03  0.00000000000E+00 0. -1.
         21   -1    0    0  502  503 -0.00000000000E+00 -0.00000000000E+00 -0.18168000880E+03  0.18168000880E+03  0.00000000000E+00 0.  1.
          6    1    1    2  501    0  0.87406251767E+02 -0.16909264608E+02  0.70724680220E+03  0.73352083494E+03  0.17300000000E+03 0. -1.
         -6    1    1    2    0  503 -0.87406251767E+02  0.16909264608E+02 -0.11239296279E+03  0.22469302206E+03  0.17300000000E+03 0.  1.
<mgrwt>
<rscale>  2 0.19456304E+03</rscale>
<asrwt>0</asrwt>
<pdfrwt beam="1">  1       21 0.11946674E+00 0.19456304E+03</pdfrwt>
<pdfrwt beam="2">  1       21 0.27950771E-01 0.19456304E+03</pdfrwt>
<totfact> 0.65183027E+03</totfact>
</mgrwt>
</event>
<event>
 4    1  0.4067306E+000  0.1730083E+03  0.7546771E-02  0.1174746E+00
         21   -1    0    0  503  502  0.00000000000E+00  0.00000000000E+00  0.13358296847E+04  0.13358296847E+04  0.00000000000E+00 0.  1.
         21   -1    0    0  501  503 -0.00000000000E+00 -0.00000000000E+00 -0.27200905580E+02  0.27200905580E+02  0.00000000000E+00 0.  1.
          6    1    1    2  501    0  0.58496689802E+00 -0.15934516118E+01  0.36820605413E+03  0.40682622774E+03  0.17300000000E+03 0.  1.
         -6    1    1    2    0  502 -0.58496689802E+00  0.15934516118E+01  0.94042272499E+03  0.95620436254E+03  0.17300000000E+03 0.  1.
<mgrwt>
<rscale>  2 0.17300833E+03</rscale>
<asrwt>0</asrwt>
<pdfrwt beam="1">  1       21 0.20551221E+00 0.17300833E+03</pdfrwt>
<pdfrwt beam="2">  1       21 0.41847557E-02 0.17300833E+03</pdfrwt>
<totfact> 0.45601220E+04</totfact>
</mgrwt>
</event>
<event>
 4    1  0.4067306E+000  0.2107825E+03  0.7546771E-02  0.1140948E+00
         21   -1    0    0  503  502  0.00000000000E+00  0.00000000000E+00  0.11073855651E+04  0.11073855651E+04  0.00000000000E+00 0. -1.
         21   -1    0    0  501  503 -0.00000000000E+00 -0.00000000000E+00 -0.41258825538E+02  0.41258825538E+02  0.00000000000E+00 0. -1.
          6    1    1    2  501    0  0.97560833760E+02  0.70584340805E+02  0.43768256191E+03  0.48579346481E+03  0.17300000000E+03 0.  1.
         -6    1    1    2    0  502 -0.97560833760E+02 -0.70584340805E+02  0.62844417769E+03  0.66285092587E+03  0.17300000000E+03 0.  1.
<mgrwt>
<rscale>  2 0.21078251E+03</rscale>
<asrwt>0</asrwt>
<pdfrwt beam="1">  1       21 0.17036699E+00 0.21078251E+03</pdfrwt>
<pdfrwt beam="2">  1       21 0.63475125E-02 0.21078251E+03</pdfrwt>
<totfact> 0.37548619E+04</totfact>
</mgrwt>
</event>
<event>
 4    1  0.4067306E+000  0.1812154E+03  0.7546771E-02  0.1166632E+00
         21   -1    0    0  503  502  0.00000000000E+00  0.00000000000E+00  0.32977976524E+02  0.32977976524E+02  0.00000000000E+00 0.  1.
         21   -1    0    0  501  503 -0.00000000000E+00 -0.00000000000E+00 -0.12989180206E+04  0.12989180206E+04  0.00000000000E+00 0.  1.
          6    1    1    2  501    0 -0.34081138512E+02 -0.41814844080E+02 -0.95468064439E+03  0.97172739900E+03  0.17300000000E+03 0.  1.
         -6    1    1    2    0  502  0.34081138512E+02  0.41814844080E+02 -0.31125939972E+03  0.36016859816E+03  0.17300000000E+03 0.  1.
<mgrwt>
<rscale>  2 0.18121536E+03</rscale>
<asrwt>0</asrwt>
<pdfrwt beam="1">  1       21 0.50735346E-02 0.18121536E+03</pdfrwt>
<pdfrwt beam="2">  1       21 0.19983355E+00 0.18121536E+03</pdfrwt>
<totfact> 0.35603975E+04</totfact>
</mgrwt>
</event>
<event>
 4    1  0.4067306E+000  0.1889241E+03  0.7546771E-02  0.1159435E+00
         21   -1    0    0  503  502  0.00000000000E+00  0.00000000000E+00  0.18598997965E+04  0.18598997965E+04  0.00000000000E+00 0. -1.
         21   -1    0    0  501  503 -0.00000000000E+00 -0.00000000000E+00 -0.24660353137E+02  0.24660353137E+02  0.00000000000E+00 0.  1.
          6    1    1    2  501    0  0.68506639336E+02 -0.32713258369E+02  0.47383727627E+03  0.51011183214E+03  0.17300000000E+03 0.  1.
         -6    1    1    2    0  502 -0.68506639336E+02  0.32713258369E+02  0.13614021671E+04  0.13744483175E+04  0.17300000000E+03 0. -1.
<mgrwt>
<rscale>  2 0.18892410E+03</rscale>
<asrwt>0</asrwt>
<pdfrwt beam="1">  1       21 0.28613832E+00 0.18892410E+03</pdfrwt>
<pdfrwt beam="2">  1       21 0.37939019E-02 0.18892410E+03</pdfrwt>
<totfact> 0.17627415E+04</totfact>
</mgrwt>
</event>
<event>
 4    1  0.4067306E+000  0.1790400E+03  0.7546771E-02  0.1168735E+00
         21   -1    0    0  503  502  0.00000000000E+00  0.00000000000E+00  0.40624588503E+03  0.40624588503E+03  0.00000000000E+00 0. -1.
         21   -1    0    0  501  503 -0.00000000000E+00 -0.00000000000E+00 -0.23321924993E+03  0.23321924993E+03  0.00000000000E+00 0. -1.
          6    1    1    2  501    0  0.38486311639E+02 -0.25399051730E+02 -0.17356613584E+03  0.24936020437E+03  0.17300000000E+03 0. -1.
         -6    1    1    2    0  502 -0.38486311639E+02  0.25399051730E+02  0.34659277093E+03  0.39010493059E+03  0.17300000000E+03 0. -1.
<mgrwt>
<rscale>  2 0.17903996E+03</rscale>
<asrwt>0</asrwt>
<pdfrwt beam="1">  1       21 0.62499367E-01 0.17903996E+03</pdfrwt>
<pdfrwt beam="2">  1       21 0.35879885E-01 0.17903996E+03</pdfrwt>
<totfact> 0.17924710E+04</totfact>
</mgrwt>
</event>
<event>
 4    1  0.4067306E+000  0.1969080E+03  0.7546771E-02  0.1152374E+00
         21   -1    0    0  503  502  0.00000000000E+00  0.00000000000E+00  0.28873859565E+03  0.28873859565E+03  0.00000000000E+00 0. -1.
         21   -1    0    0  501  503 -0.00000000000E+00 -0.00000000000E+00 -0.25287543413E+03  0.25287543413E+03  0.00000000000E+00 0. -1.
          6    1    1    2  501    0  0.82596947913E+02  0.44961053784E+02 -0.16752175692E+03  0.25852715758E+03  0.17300000000E+03 0. -1.
         -6    1    1    2    0  502 -0.82596947913E+02 -0.44961053784E+02  0.20338491844E+03  0.28308687220E+03  0.17300000000E+03 0. -1.
<mgrwt>
<rscale>  2 0.19690798E+03</rscale>
<asrwt>0</asrwt>
<pdfrwt beam="1">  1       21 0.44421323E-01 0.19690798E+03</pdfrwt>
<pdfrwt beam="2">  1       21 0.38903913E-01 0.19690798E+03</pdfrwt>
<totfact> 0.30928810E+04</totfact>
</mgrwt>
</event>
<event>
 4    1  0.4067306E+000  0.1952657E+03  0.7546771E-02  0.1153796E+00
         21   -1    0    0  501  502  0.00000000000E+00  0.00000000000E+00  0.14892087173E+03  0.14892087173E+03  0.00000000000E+00 0.  1.
         21   -1    0    0  502  503 -0.00000000000E+00 -0.00000000000E+00 -0.26159025899E+03  0.26159025899E+03  0.00000000000E+00 0.  1.
          6    1    1    2  501    0 -0.84759263087E+02  0.31868127412E+02 -0.26418891299E+02  0.19704483764E+03  0.17300000000E+03 0.  1.
         -6    1    1    2    0  503  0.84759263087E+02 -0.31868127412E+02 -0.86250495960E+02  0.21346629307E+03  0.17300000000E+03 0.  1.
<mgrwt>
<rscale>  2 0.19526574E+03</rscale>
<asrwt>0</asrwt>
<pdfrwt beam="1">  1       21 0.22910904E-01 0.19526574E+03</pdfrwt>
<pdfrwt beam="2">  1       21 0.40244655E-01 0.19526574E+03</pdfrwt>
<totfact> 0.10627219E+05</totfact>
</mgrwt>
</event>
<event>
 4    1  0.4067306E+000  0.2246384E+03  0.7546771E-02  0.1130471E+00
         21   -1    0    0  503  502  0.00000000000E+00  0.00000000000E+00  0.22146334875E+03  0.22146334875E+03  0.00000000000E+00 0. -1.
         21   -1    0    0  501  503 -0.00000000000E+00 -0.00000000000E+00 -0.40114232332E+03  0.40114232332E+03  0.00000000000E+00 0.  1.
          6    1    1    2  501    0 -0.10138599786E+03  0.10126341765E+03 -0.29444263657E+03  0.37034965444E+03  0.17300000000E+03 0.  1.
         -6    1    1    2    0  502  0.10138599786E+03 -0.10126341765E+03  0.11476366200E+03  0.25225601763E+03  0.17300000000E+03 0. -1.
<mgrwt>
<rscale>  2 0.22463838E+03</rscale>
<asrwt>0</asrwt>
<pdfrwt beam="1">  1       21 0.34071285E-01 0.22463838E+03</pdfrwt>
<pdfrwt beam="2">  1       21 0.61714203E-01 0.22463838E+03</pdfrwt>
<totfact> 0.19870523E+04</totfact>
</mgrwt>
</event>
<event>
 4    1  0.4067306E+000  0.2077325E+03  0.7546771E-02  0.1143374E+00
         21   -1    0    0  501  502  0.00000000000E+00  0.00000000000E+00  0.18419526285E+04  0.18419526285E+04  0.00000000000E+00 0.  1.
         21   -1    0    0  502  503 -0.00000000000E+00 -0.00000000000E+00 -0.27459474913E+02  0.27459474913E+02  0.00000000000E+00 0.  1.
          6    1    1    2  501    0 -0.66119676611E+02 -0.94084973049E+02  0.12654046414E+04  0.12823422711E+04  0.17300000000E+03 0.  1.
         -6    1    1    2    0  503  0.66119676611E+02  0.94084973049E+02  0.54908851217E+03  0.58706983229E+03  0.17300000000E+03 0.  1.
<mgrwt>
<rscale>  2 0.20773251E+03</rscale>
<asrwt>0</asrwt>
<pdfrwt beam="1">  1       21 0.28337723E+00 0.20773251E+03</pdfrwt>
<pdfrwt beam="2">  1       21 0.42245360E-02 0.20773251E+03</pdfrwt>
<totfact> 0.14993879E+04</totfact>
</mgrwt>
</event>
<event>
 4    1  0.4067306E+000  0.2091385E+03  0.7546771E-02  0.1142250E+00
         21   -1    0    0  503  502  0.00000000000E+00  0.00000000000E+00  0.25472727051E+03  0.25472727051E+03  0.00000000000E+00 0.  1.
         21   -1    0    0  501  503 -0.00000000000E+00 -0.00000000000E+00 -0.26951255113E+03  0.26951255113E+03  0.00000000000E+00 0.  1.
          6    1    1    2  501    0  0.11750275422E+03 -0.17330221635E+01 -0.16529491493E+03  0.26657327232E+03  0.17300000000E+03 0.  1.
         -6    1    1    2    0  502 -0.11750275422E+03  0.17330221635E+01  0.15050963431E+03  0.25766654932E+03  0.17300000000E+03 0.  1.
<mgrwt>
<rscale>  2 0.20913847E+03</rscale>
<asrwt>0</asrwt>
<pdfrwt beam="1">  1       21 0.39188811E-01 0.20913847E+03</pdfrwt>
<pdfrwt beam="2">  1       21 0.41463469E-01 0.20913847E+03</pdfrwt>
<totfact> 0.34855279E+04</totfact>
</mgrwt>
</event>
<event>
 4    1  0.4067306E+000  0.3625317E+03  0.7546771E-02  0.1057586E+00
         21   -1    0    0  501  502  0.00000000000E+00  0.00000000000E+00  0.16656344529E+03  0.16656344529E+03  0.00000000000E+00 0.  1.
         21   -1    0    0  502  503 -0.00000000000E+00 -0.00000000000E+00 -0.81898849231E+03  0.81898849231E+03  0.00000000000E+00 0. -1.
          6    1    1    2  501    0  0.35419220816E+02  0.31661598711E+03 -0.23201822383E+03  0.43042033024E+03  0.17300000000E+03 0.  1.
         -6    1    1    2    0  503 -0.35419220816E+02 -0.31661598711E+03 -0.42040682320E+03  0.55513160736E+03  0.17300000000E+03 0. -1.
<mgrwt>
<rscale>  2 0.36253166E+03</rscale>
<asrwt>0</asrwt>
<pdfrwt beam="1">  1       21 0.25625146E-01 0.36253166E+03</pdfrwt>
<pdfrwt beam="2">  1       21 0.12599823E+00 0.36253166E+03</pdfrwt>
<totfact> 0.61290628E+03</totfact>
</mgrwt>
</event>
<event>
 4    1  0.4067306E+000  0.1849948E+03  0.7546771E-02  0.1163055E+00
         21   -1    0    0  503  502  0.00000000000E+00  0.00000000000E+00  0.40566110031E+03  0.40566110031E+03  0.00000000000E+00 0. -1.
         21   -1    0    0  501  503 -0.00000000000E+00 -0.00000000000E+00 -0.84702508084E+02  0.84702508084E+02  0.00000000000E+00 0. -1.
          6    1    1    2  501    0  0.64874996737E+02 -0.92370769026E+01  0.14497366475E+03  0.23503287486E+03  0.17300000000E+03 0.  1.
         -6    1    1    2    0  502 -0.64874996737E+02  0.92370769026E+01  0.17598492748E+03  0.25533073354E+03  0.17300000000E+03 0.  1.
<mgrwt>
<rscale>  2 0.18499483E+03</rscale>
<asrwt>0</asrwt>
<pdfrwt beam="1">  1       21 0.62409399E-01 0.18499483E+03</pdfrwt>
<pdfrwt beam="2">  1       21 0.13031155E-01 0.18499483E+03</pdfrwt>
<totfact> 0.12081241E+05</totfact>
</mgrwt>
</event>
<event>
 4    1  0.4067306E+000  0.2432359E+03  0.7546771E-02  0.1117656E+00
         21   -1    0    0  501  502  0.00000000000E+00  0.00000000000E+00  0.30820049039E+03  0.30820049039E+03  0.00000000000E+00 0. -1.
         21   -1    0    0  502  503 -0.00000000000E+00 -0.00000000000E+00 -0.31977319153E+03  0.31977319153E+03  0.00000000000E+00 0.  1.
          6    1    1    2  501    0 -0.15293667048E+03  0.76453080975E+02  0.19271790086E+03  0.31032867750E+03  0.17300000000E+03 0. -1.
         -6    1    1    2    0  503  0.15293667048E+03 -0.76453080975E+02 -0.20429060200E+03  0.31764500442E+03  0.17300000000E+03 0.  1.
<mgrwt>
<rscale>  2 0.24323589E+03</rscale>
<asrwt>0</asrwt>
<pdfrwt beam="1">  1       21 0.47415460E-01 0.24323589E+03</pdfrwt>
<pdfrwt beam="2">  1       21 0.49195875E-01 0.24323589E+03</pdfrwt>
<totfact> 0.16286379E+04</totfact>
</mgrwt>
</event>
<event>
 4    1  0.4067306E+000  0.1853308E+03  0.7546771E-02  0.1162741E+00
         21   -1    0    0  501  502  0.00000000000E+00  0.00000000000E+00  0.17588332709E+04  0.17588332709E+04  0.00000000000E+00 0.  1.
         21   -1    0    0  502  503 -0.00000000000E+00 -0.00000000000E+00 -0.26277451560E+02  0.26277451560E+02  0.00000000000E+00 0.  1.
          6    1    1    2  501    0 -0.64776674443E+02 -0.14916564120E+02  0.13186116953E+04  0.13315721252E+04  0.17300000000E+03 0.  1.
         -6    1    1    2    0  503  0.64776674443E+02  0.14916564120E+02  0.41394412398E+03  0.45353859727E+03  0.17300000000E+03 0.  1.
<mgrwt>
<rscale>  2 0.18533084E+03</rscale>
<asrwt>0</asrwt>
<pdfrwt beam="1">  1       21 0.27058964E+00 0.18533084E+03</pdfrwt>
<pdfrwt beam="2">  1       21 0.40426862E-02 0.18533084E+03</pdfrwt>
<totfact> 0.19549215E+04</totfact>
</mgrwt>
</event>
<event>
 4    1  0.4067306E+000  0.1873484E+03  0.7546771E-02  0.1160875E+00
         21   -1    0    0  503  502  0.00000000000E+00  0.00000000000E+00  0.50627750559E+02  0.50627750559E+02  0.00000000000E+00 0.  1.
         21   -1    0    0  501  503 -0.00000000000E+00 -0.00000000000E+00 -0.25436142664E+04  0.25436142664E+04  0.00000000000E+00 0.  1.
          6    1    1    2  501    0  0.32980020027E+02  0.63896198835E+02 -0.23528100433E+04  0.23602572965E+04  0.17300000000E+03 0.  1.
         -6    1    1    2    0  502 -0.32980020027E+02 -0.63896198835E+02 -0.14017647256E+03  0.23398472046E+03  0.17300000000E+03 0.  1.
<mgrwt>
<rscale>  2 0.18734835E+03</rscale>
<asrwt>0</asrwt>
<pdfrwt beam="1">  1       21 0.77888860E-02 0.18734835E+03</pdfrwt>
<pdfrwt beam="2">  1       21 0.39132520E+00 0.18734835E+03</pdfrwt>
<totfact> 0.12496098E+03</totfact>
</mgrwt>
</event>
<event>
 4    1  0.4067306E+000  0.1920562E+03  0.7546771E-02  0.1156620E+00
         21   -1    0    0  501  502  0.00000000000E+00  0.00000000000E+00  0.97350304767E+02  0.97350304767E+02  0.00000000000E+00 0.  1.
         21   -1    0    0  502  503 -0.00000000000E+00 -0.00000000000E+00 -0.40317400427E+03  0.40317400427E+03  0.00000000000E+00 0. -1.
          6    1    1    2  501    0 -0.14350862503E+02 -0.82162169557E+02 -0.91498611395E+02  0.21273825525E+03  0.17300000000E+03 0.  1.
         -6    1    1    2    0  503  0.14350862503E+02  0.82162169557E+02 -0.21432508811E+03  0.28778605379E+03  0.17300000000E+03 0. -1.
<mgrwt>
<rscale>  2 0.19205616E+03</rscale>
<asrwt>0</asrwt>
<pdfrwt beam="1">  1       21 0.14976970E-01 0.19205616E+03</pdfrwt>
<pdfrwt beam="2">  1       21 0.62026770E-01 0.19205616E+03</pdfrwt>
<totfact> 0.94923378E+04</totfact>
</mgrwt>
</event>
<event>
 4    1  0.4067306E+000  0.2559407E+03  0.7546771E-02  0.1109607E+00
         21   -1    0    0  503  502  0.00000000000E+00  0.00000000000E+00  0.39859050889E+03  0.39859050889E+03  0.00000000000E+00 0. -1.
         21   -1    0    0  501  503 -0.00000000000E+00 -0.00000000000E+00 -0.18324854469E+03  0.18324854469E+03  0.00000000000E+00 0. -1.
          6    1    1    2  501    0  0.10366877287E+03 -0.15757355556E+03  0.14228384947E+02  0.25633588671E+03  0.17300000000E+03 0. -1.
         -6    1    1    2    0  502 -0.10366877287E+03  0.15757355556E+03  0.20111357925E+03  0.32550316686E+03  0.17300000000E+03 0. -1.
<mgrwt>
<rscale>  2 0.25594070E+03</rscale>
<asrwt>0</asrwt>
<pdfrwt beam="1">  1       21 0.61321617E-01 0.25594070E+03</pdfrwt>
<pdfrwt beam="2">  1       21 0.28192084E-01 0.25594070E+03</pdfrwt>
<totfact> 0.28801606E+04</totfact>
</mgrwt>
</event>
<event>
 4    1  0.4067306E+000  0.2457820E+03  0.7546771E-02  0.1116000E+00
         21   -1    0    0  503  502  0.00000000000E+00  0.00000000000E+00  0.67791264726E+03  0.67791264726E+03  0.00000000000E+00 0.  1.
         21   -1    0    0  501  503 -0.00000000000E+00 -0.00000000000E+00 -0.30014507270E+03  0.30014507270E+03  0.00000000000E+00 0. -1.
          6    1    1    2  501    0 -0.17153121643E+03  0.32508681753E+02 -0.22117510605E+03  0.33064663938E+03  0.17300000000E+03 0. -1.
         -6    1    1    2    0  502  0.17153121643E+03 -0.32508681753E+02  0.59894268061E+03  0.64741108058E+03  0.17300000000E+03 0.  1.
<mgrwt>
<rscale>  2 0.24578196E+03</rscale>
<asrwt>0</asrwt>
<pdfrwt beam="1">  1       21 0.10429425E+00 0.24578196E+03</pdfrwt>
<pdfrwt beam="2">  1       21 0.46176165E-01 0.24578196E+03</pdfrwt>
<totfact> 0.32024722E+03</totfact>
</mgrwt>
</event>
<event>
 4    1  0.4067306E+000  0.3849765E+03  0.7546771E-02  0.1049110E+00
         21   -1    0    0  503  502  0.00000000000E+00  0.00000000000E+00  0.34402415822E+03  0.34402415822E+03  0.00000000000E+00 0. -1.
         21   -1    0    0  501  503 -0.00000000000E+00 -0.00000000000E+00 -0.54181616453E+03  0.54181616453E+03  0.00000000000E+00 0.  1.
          6    1    1    2  501    0 -0.32473919002E+02 -0.34237898118E+03 -0.29938248943E+03  0.48768514141E+03  0.17300000000E+03 0.  1.
         -6    1    1    2    0  502  0.32473919002E+02  0.34237898118E+03  0.10159048312E+03  0.39815518134E+03  0.17300000000E+03 0. -1.
<mgrwt>
<rscale>  2 0.38497652E+03</rscale>
<asrwt>0</asrwt>
<pdfrwt beam="1">  1       21 0.52926794E-01 0.38497652E+03</pdfrwt>
<pdfrwt beam="2">  1       21 0.83356332E-01 0.38497652E+03</pdfrwt>
<totfact> 0.37962363E+03</totfact>
</mgrwt>
</event>
<event>
 4    1  0.4067306E+000  0.1865357E+03  0.7546771E-02  0.1161624E+00
         21   -1    0    0  503  502  0.00000000000E+00  0.00000000000E+00  0.10205720711E+04  0.10205720711E+04  0.00000000000E+00 0. -1.
         21   -1    0    0  501  503 -0.00000000000E+00 -0.00000000000E+00 -0.34159233565E+02  0.34159233565E+02  0.00000000000E+00 0. -1.
          6    1    1    2  501    0  0.53569976771E+02 -0.44685678818E+02  0.51622318593E+03  0.54889154666E+03  0.17300000000E+03 0. -1.
         -6    1    1    2    0  502 -0.53569976771E+02  0.44685678818E+02  0.47018965162E+03  0.50583975802E+03  0.17300000000E+03 0. -1.
<mgrwt>
<rscale>  2 0.18653566E+03</rscale>
<asrwt>0</asrwt>
<pdfrwt beam="1">  1       21 0.15701106E+00 0.18653566E+03</pdfrwt>
<pdfrwt beam="2">  1       21 0.52552675E-02 0.18653566E+03</pdfrwt>
<totfact> 0.65667115E+04</totfact>
</mgrwt>
</event>
<event>
 4    1  0.4067306E+000  0.2098232E+03  0.7546771E-02  0.1141706E+00
         21   -1    0    0  503  502  0.00000000000E+00  0.00000000000E+00  0.79584042400E+03  0.79584042400E+03  0.00000000000E+00 0.  1.
         21   -1    0    0  501  503 -0.00000000000E+00 -0.00000000000E+00 -0.71372965870E+02  0.71372965870E+02  0.00000000000E+00 0. -1.
          6    1    1    2  501    0 -0.83324049111E+02 -0.84580624895E+02  0.56787423739E+03  0.60539815722E+03  0.17300000000E+03 0.  1.
         -6    1    1    2    0  502  0.83324049111E+02  0.84580624895E+02  0.15659322074E+03  0.26181523265E+03  0.17300000000E+03 0. -1.
<mgrwt>
<rscale>  2 0.20982321E+03</rscale>
<asrwt>0</asrwt>
<pdfrwt beam="1">  1       21 0.12243698E+00 0.20982321E+03</pdfrwt>
<pdfrwt beam="2">  1       21 0.10980457E-01 0.20982321E+03</pdfrwt>
<totfact> 0.34199450E+04</totfact>
</mgrwt>
</event>
<event>
 4    1  0.4067306E+000  0.1923404E+03  0.7546771E-02  0.1156367E+00
         21   -1    0    0  503  502  0.00000000000E+00  0.00000000000E+00  0.14207029761E+04  0.14207029761E+04  0.00000000000E+00 0.  1.
         21   -1    0    0  501  503 -0.00000000000E+00 -0.00000000000E+00 -0.32599323651E+02  0.32599323651E+02  0.00000000000E+00 0.  1.
          6    1    1    2  501    0 -0.38301498839E+02 -0.74825252256E+02  0.36809672757E+03  0.41531918332E+03  0.17300000000E+03 0.  1.
         -6    1    1    2    0  502  0.38301498839E+02  0.74825252256E+02  0.10200069249E+04  0.10379831165E+04  0.17300000000E+03 0.  1.
<mgrwt>
<rscale>  2 0.19234038E+03</rscale>
<asrwt>0</asrwt>
<pdfrwt beam="1">  1       21 0.21856964E+00 0.19234038E+03</pdfrwt>
<pdfrwt beam="2">  1       21 0.50152817E-02 0.19234038E+03</pdfrwt>
<totfact> 0.27477482E+04</totfact>
</mgrwt>
</event>
<event>
 4    1  0.4067306E+000  0.1863323E+03  0.7546771E-02  0.1161812E+00
         21   -1    0    0  503  502  0.00000000000E+00  0.00000000000E+00  0.88350545110E+03  0.88350545110E+03  0.00000000000E+00 0.  1.
         21   -1    0    0  501  503 -0.00000000000E+00 -0.00000000000E+00 -0.68789479203E+02  0.68789479203E+02  0.00000000000E+00 0.  1.
          6    1    1    2  501    0  0.69094622909E+02 -0.40799293899E+01  0.95590289085E+02  0.20942114532E+03  0.17300000000E+03 0.  1.
         -6    1    1    2    0  502 -0.69094622909E+02  0.40799293899E+01  0.71912568281E+03  0.74287378499E+03  0.17300000000E+03 0.  1.
<mgrwt>
<rscale>  2 0.18633226E+03</rscale>
<asrwt>0</asrwt>
<pdfrwt beam="1">  1       21 0.13592391E+00 0.18633226E+03</pdfrwt>
<pdfrwt beam="2">  1       21 0.10582997E-01 0.18633226E+03</pdfrwt>
<totfact> 0.28447208E+04</totfact>
</mgrwt>
</event>
<event>
 4    1  0.4067306E+000  0.2640980E+03  0.7546771E-02  0.1104706E+00
         21   -1    0    0  501  502  0.00000000000E+00  0.00000000000E+00  0.38932842801E+03  0.38932842801E+03  0.00000000000E+00 0. -1.
         21   -1    0    0  502  503 -0.00000000000E+00 -0.00000000000E+00 -0.20088901444E+03  0.20088901444E+03  0.00000000000E+00 0.  1.
          6    1    1    2  501    0 -0.19243280067E+03  0.52804966918E+02 -0.28615028226E+01  0.26411348982E+03  0.17300000000E+03 0. -1.
         -6    1    1    2    0  503  0.19243280067E+03 -0.52804966918E+02  0.19130091640E+03  0.32610395263E+03  0.17300000000E+03 0. -1.
<mgrwt>
<rscale>  2 0.26409799E+03</rscale>
<asrwt>0</asrwt>
<pdfrwt beam="1">  1       21 0.59896681E-01 0.26409799E+03</pdfrwt>
<pdfrwt beam="2">  1       21 0.30906002E-01 0.26409799E+03</pdfrwt>
<totfact> 0.25222590E+04</totfact>
</mgrwt>
</event>
<event>
 4    1  0.4067306E+000  0.2135954E+03  0.7546771E-02  0.1138750E+00
         21   -1    0    0  503  502  0.00000000000E+00  0.00000000000E+00  0.26742182499E+03  0.26742182499E+03  0.00000000000E+00 0.  1.
         21   -1    0    0  501  503 -0.00000000000E+00 -0.00000000000E+00 -0.17931380674E+03  0.17931380674E+03  0.00000000000E+00 0.  1.
          6    1    1    2  501    0 -0.14622496636E+02  0.12441943150E+03  0.93284998681E+02  0.23307746206E+03  0.17300000000E+03 0.  1.
         -6    1    1    2    0  502  0.14622496636E+02 -0.12441943150E+03 -0.51769804367E+01  0.21365816967E+03  0.17300000000E+03 0.  1.
<mgrwt>
<rscale>  2 0.21359544E+03</rscale>
<asrwt>0</asrwt>
<pdfrwt beam="1">  1       21 0.41141819E-01 0.21359544E+03</pdfrwt>
<pdfrwt beam="2">  1       21 0.27586739E-01 0.21359544E+03</pdfrwt>
<totfact> 0.70691907E+04</totfact>
</mgrwt>
</event>
<event>
 4    1  0.4067306E+000  0.2237249E+03  0.7546771E-02  0.1131136E+00
         21   -1    0    0  501  502  0.00000000000E+00  0.00000000000E+00  0.65804143213E+03  0.65804143213E+03  0.00000000000E+00 0.  1.
         21   -1    0    0  502  503 -0.00000000000E+00 -0.00000000000E+00 -0.10929134538E+03  0.10929134538E+03  0.00000000000E+00 0.  1.
          6    1    1    2  501    0  0.10823440847E+03  0.91701266598E+02  0.48592512637E+03  0.53495423908E+03  0.17300000000E+03 0.  1.
         -6    1    1    2    0  503 -0.10823440847E+03 -0.91701266598E+02  0.62824960379E+02  0.23237853842E+03  0.17300000000E+03 0.  1.
<mgrwt>
<rscale>  2 0.22372485E+03</rscale>
<asrwt>0</asrwt>
<pdfrwt beam="1">  1       21 0.10123714E+00 0.22372485E+03</pdfrwt>
<pdfrwt beam="2">  1       21 0.16814054E-01 0.22372485E+03</pdfrwt>
<totfact> 0.24932569E+04</totfact>
</mgrwt>
</event>
<event>
 4    1  0.4067306E+000  0.1943978E+03  0.7546771E-02  0.1154554E+00
         21   -1    0    0  501  502  0.00000000000E+00  0.00000000000E+00  0.91916818790E+02  0.91916818790E+02  0.00000000000E+00 0.  1.
         21   -1    0    0  502  503 -0.00000000000E+00 -0.00000000000E+00 -0.66850187442E+03  0.66850187442E+03  0.00000000000E+00 0.  1.
          6    1    1    2  501    0  0.70057254851E+02 -0.54346072009E+02 -0.52383203402E+02  0.20133185167E+03  0.17300000000E+03 0.  1.
         -6    1    1    2    0  503 -0.70057254851E+02  0.54346072009E+02 -0.52420185223E+03  0.55908684153E+03  0.17300000000E+03 0.  1.
<mgrwt>
<rscale>  2 0.19439783E+03</rscale>
<asrwt>0</asrwt>
<pdfrwt beam="1">  1       21 0.14141049E-01 0.19439783E+03</pdfrwt>
<pdfrwt beam="2">  1       21 0.10284644E+00 0.19439783E+03</pdfrwt>
<totfact> 0.33494294E+04</totfact>
</mgrwt>
</event>
<event>
 4    1  0.4067306E+000  0.2001150E+03  0.7546771E-02  0.1149642E+00
         21   -1    0    0  503  502  0.00000000000E+00  0.00000000000E+00  0.79790984585E+03  0.79790984585E+03  0.00000000000E+00 0.  1.
         21   -1    0    0  501  503 -0.00000000000E+00 -0.00000000000E+00 -0.13600290916E+03  0.13600290916E+03  0.00000000000E+00 0. -1.
          6    1    1    2  501    0  0.39035782868E+02 -0.92699712007E+02 -0.39967945132E+02  0.20406730651E+03  0.17300000000E+03 0. -1.
         -6    1    1    2    0  502 -0.39035782868E+02  0.92699712007E+02  0.70187488183E+03  0.72984544849E+03  0.17300000000E+03 0.  1.
<mgrwt>
<rscale>  2 0.20011504E+03</rscale>
<asrwt>0</asrwt>
<pdfrwt beam="1">  1       21 0.12275536E+00 0.20011504E+03</pdfrwt>
<pdfrwt beam="2">  1       21 0.20923525E-01 0.20011504E+03</pdfrwt>
<totfact> 0.10530819E+04</totfact>
</mgrwt>
</event>
<event>
 4    1  0.4067306E+000  0.2539013E+03  0.7546771E-02  0.1110864E+00
         21   -1    0    0  501  502  0.00000000000E+00  0.00000000000E+00  0.97113870170E+02  0.97113870170E+02  0.00000000000E+00 0.  1.
         21   -1    0    0  502  503 -0.00000000000E+00 -0.00000000000E+00 -0.15967887028E+04  0.15967887028E+04  0.00000000000E+00 0.  1.
          6    1    1    2  501    0 -0.18561354231E+03  0.91903750769E+01 -0.10244305397E+03  0.27378902350E+03  0.17300000000E+03 0.  1.
         -6    1    1    2    0  503  0.18561354231E+03 -0.91903750769E+01 -0.13972317786E+04  0.14201135494E+04  0.17300000000E+03 0.  1.
<mgrwt>
<rscale>  2 0.25390126E+03</rscale>
<asrwt>0</asrwt>
<pdfrwt beam="1">  1       21 0.14940595E-01 0.25390126E+03</pdfrwt>
<pdfrwt beam="2">  1       21 0.24565980E+00 0.25390126E+03</pdfrwt>
<totfact> 0.26258506E+03</totfact>
</mgrwt>
</event>
<event>
 4    1  0.4067306E+000  0.1792398E+03  0.7546771E-02  0.1168541E+00
         21   -1    0    0  503  502  0.00000000000E+00  0.00000000000E+00  0.12264639676E+02  0.12264639676E+02  0.00000000000E+00 0. -1.
         21   -1    0    0  501  503 -0.00000000000E+00 -0.00000000000E+00 -0.28427235902E+04  0.28427235902E+04  0.00000000000E+00 0. -1.
          6    1    1    2  501    0  0.10180872767E+02 -0.45763167416E+02 -0.18152675431E+04  0.18240951649E+04  0.17300000000E+03 0. -1.
         -6    1    1    2    0  502 -0.10180872767E+02  0.45763167416E+02 -0.10151914074E+04  0.10308930650E+04  0.17300000000E+03 0. -1.
<mgrwt>
<rscale>  2 0.17923983E+03</rscale>
<asrwt>0</asrwt>
<pdfrwt beam="1">  1       21 0.18868686E-02 0.17923983E+03</pdfrwt>
<pdfrwt beam="2">  1       21 0.43734187E+00 0.17923983E+03</pdfrwt>
<totfact> 0.69516651E+03</totfact>
</mgrwt>
</event>
<event>
 4    1  0.4067306E+000  0.1797953E+03  0.7546771E-02  0.1168001E+00
         21   -1    0    0  501  502  0.00000000000E+00  0.00000000000E+00  0.88974639371E+03  0.88974639371E+03  0.00000000000E+00 0.  1.
         21   -1    0    0  502  503 -0.00000000000E+00 -0.00000000000E+00 -0.38366063864E+02  0.38366063864E+02  0.00000000000E+00 0.  1.
          6    1    1    2  501    0 -0.15462989615E+02 -0.46457107495E+02  0.31884197530E+03  0.36604176278E+03  0.17300000000E+03 0.  1.
         -6    1    1    2    0  503  0.15462989615E+02  0.46457107495E+02  0.53253835455E+03  0.56207069480E+03  0.17300000000E+03 0.  1.
<mgrwt>
<rscale>  2 0.17979535E+03</rscale>
<asrwt>0</asrwt>
<pdfrwt beam="1">  1       21 0.13688405E+00 0.17979535E+03</pdfrwt>
<pdfrwt beam="2">  1       21 0.59024720E-02 0.17979535E+03</pdfrwt>
<totfact> 0.77379170E+04</totfact>
</mgrwt>
</event>
<event>
 4    1  0.4067306E+000  0.2578088E+03  0.7546771E-02  0.1108467E+00
         21   -1    0    0  501  502  0.00000000000E+00  0.00000000000E+00  0.20126117855E+03  0.20126117855E+03  0.00000000000E+00 0.  1.
         21   -1    0    0  502  503 -0.00000000000E+00 -0.00000000000E+00 -0.36824045275E+03  0.36824045275E+03  0.00000000000E+00 0. -1.
          6    1    1    2  501    0 -0.10398885177E+03  0.16038300440E+03  0.79781394589E+01  0.25793223936E+03  0.17300000000E+03 0.  1.
         -6    1    1    2    0  503  0.10398885177E+03 -0.16038300440E+03 -0.17495741366E+03  0.31156939193E+03  0.17300000000E+03 0. -1.
<mgrwt>
<rscale>  2 0.25780882E+03</rscale>
<asrwt>0</asrwt>
<pdfrwt beam="1">  1       21 0.30963259E-01 0.25780882E+03</pdfrwt>
<pdfrwt beam="2">  1       21 0.56652376E-01 0.25780882E+03</pdfrwt>
<totfact> 0.28409430E+04</totfact>
</mgrwt>
</event>
<event>
 4    1  0.4067306E+000  0.2156153E+03  0.7546771E-02  0.1137195E+00
         21   -1    0    0  503  502  0.00000000000E+00  0.00000000000E+00  0.12283962615E+04  0.12283962615E+04  0.00000000000E+00 0. -1.
         21   -1    0    0  501  503 -0.00000000000E+00 -0.00000000000E+00 -0.10138754810E+03  0.10138754810E+03  0.00000000000E+00 0.  1.
          6    1    1    2  501    0  0.11147160938E+03  0.64304177894E+02  0.37138805789E+02  0.21879039716E+03  0.17300000000E+03 0.  1.
         -6    1    1    2    0  502 -0.11147160938E+03 -0.64304177894E+02  0.10898699076E+04  0.11109934125E+04  0.17300000000E+03 0. -1.
<mgrwt>
<rscale>  2 0.21561528E+03</rscale>
<asrwt>0</asrwt>
<pdfrwt beam="1">  1       21 0.18898403E+00 0.21561528E+03</pdfrwt>
<pdfrwt beam="2">  1       21 0.15598085E-01 0.21561528E+03</pdfrwt>
<totfact> 0.56726489E+03</totfact>
</mgrwt>
</event>
<event>
 4    1  0.4067306E+000  0.1790699E+03  0.7546771E-02  0.1168706E+00
         21   -1    0    0  501  502  0.00000000000E+00  0.00000000000E+00  0.20960354446E+03  0.20960354446E+03  0.00000000000E+00 0.  1.
         21   -1    0    0  502  503 -0.00000000000E+00 -0.00000000000E+00 -0.15462410913E+03  0.15462410913E+03  0.00000000000E+00 0.  1.
          6    1    1    2  501    0 -0.46129121637E+02  0.30211313434E+01  0.46244797855E+02  0.18494486861E+03  0.17300000000E+03 0.  1.
         -6    1    1    2    0  503  0.46129121637E+02 -0.30211313434E+01  0.87346374751E+01  0.17928278498E+03  0.17300000000E+03 0.  1.
<mgrwt>
<rscale>  2 0.17906988E+03</rscale>
<asrwt>0</asrwt>
<pdfrwt beam="1">  1       21 0.32246699E-01 0.17906988E+03</pdfrwt>
<pdfrwt beam="2">  1       21 0.23788324E-01 0.17906988E+03</pdfrwt>
<totfact> 0.15470201E+05</totfact>
</mgrwt>
</event>
<event>
 4    1  0.4067306E+000  0.2860928E+03  0.7546771E-02  0.1092407E+00
         21   -1    0    0  501  502  0.00000000000E+00  0.00000000000E+00  0.53636129731E+02  0.53636129731E+02  0.00000000000E+00 0. -1.
         21   -1    0    0  502  503 -0.00000000000E+00 -0.00000000000E+00 -0.19669501994E+04  0.19669501994E+04  0.00000000000E+00 0.  1.
          6    1    1    2  501    0  0.15091575208E+03  0.17071774772E+03 -0.47831117604E+03  0.55734252909E+03  0.17300000000E+03 0. -1.
         -6    1    1    2    0  503 -0.15091575208E+03 -0.17071774772E+03 -0.14350028936E+04  0.14632438000E+04  0.17300000000E+03 0.  1.
<mgrwt>
<rscale>  2 0.28609284E+03</rscale>
<asrwt>0</asrwt>
<pdfrwt beam="1">  1       21 0.82517119E-02 0.28609284E+03</pdfrwt>
<pdfrwt beam="2">  1       21 0.30260774E+00 0.28609284E+03</pdfrwt>
<totfact> 0.34186654E+03</totfact>
</mgrwt>
</event>
<event>
 4    1  0.4067306E+000  0.2031756E+03  0.7546771E-02  0.1147087E+00
         21   -1    0    0  501  502  0.00000000000E+00  0.00000000000E+00  0.51326315318E+03  0.51326315318E+03  0.00000000000E+00 0. -1.
         21   -1    0    0  502  503 -0.00000000000E+00 -0.00000000000E+00 -0.13891314872E+03  0.13891314872E+03  0.00000000000E+00 0. -1.
          6    1    1    2  501    0 -0.40583184147E+02 -0.98510554175E+02  0.39876204450E+03  0.44753937508E+03  0.17300000000E+03 0. -1.
         -6    1    1    2    0  503  0.40583184147E+02  0.98510554175E+02 -0.24412040030E+02  0.20463692682E+03  0.17300000000E+03 0. -1.
<mgrwt>
<rscale>  2 0.20317560E+03</rscale>
<asrwt>0</asrwt>
<pdfrwt beam="1">  1       21 0.78963561E-01 0.20317560E+03</pdfrwt>
<pdfrwt beam="2">  1       21 0.21371254E-01 0.20317560E+03</pdfrwt>
<totfact> 0.28704184E+04</totfact>
</mgrwt>
</event>
<event>
 4    1  0.4067306E+000  0.1733860E+03  0.7546771E-02  0.1174362E+00
         21   -1    0    0  501  502  0.00000000000E+00  0.00000000000E+00  0.14510552094E+03  0.14510552094E+03  0.00000000000E+00 0. -1.
         21   -1    0    0  502  503 -0.00000000000E+00 -0.00000000000E+00 -0.22476875658E+03  0.22476875658E+03  0.00000000000E+00 0. -1.
          6    1    1    2  501    0  0.37734727879E+01 -0.10930426079E+02  0.11904623674E+02  0.17379422711E+03  0.17300000000E+03 0. -1.
         -6    1    1    2    0  503 -0.37734727879E+01  0.10930426079E+02 -0.91567859310E+02  0.19608005041E+03  0.17300000000E+03 0. -1.
<mgrwt>
<rscale>  2 0.17338602E+03</rscale>
<asrwt>0</asrwt>
<pdfrwt beam="1">  1       21 0.22323926E-01 0.17338602E+03</pdfrwt>
<pdfrwt beam="2">  1       21 0.34579809E-01 0.17338602E+03</pdfrwt>
<totfact> 0.15230140E+05</totfact>
</mgrwt>
</event>
<event>
 4    1  0.4067306E+000  0.1737176E+03  0.7546771E-02  0.1174026E+00
         21   -1    0    0  503  502  0.00000000000E+00  0.00000000000E+00  0.23436182488E+03  0.23436182488E+03  0.00000000000E+00 0.  1.
         21   -1    0    0  501  503 -0.00000000000E+00 -0.00000000000E+00 -0.14007853915E+03  0.14007853915E+03  0.00000000000E+00 0.  1.
          6    1    1    2  501    0 -0.15147094242E+02  0.43996039878E+01  0.10034640344E+03  0.20061702735E+03  0.17300000000E+03 0.  1.
         -6    1    1    2    0  502  0.15147094242E+02 -0.43996039878E+01 -0.60631177064E+01  0.17382333668E+03  0.17300000000E+03 0.  1.
<mgrwt>
<rscale>  2 0.17371756E+03</rscale>
<asrwt>0</asrwt>
<pdfrwt beam="1">  1       21 0.36055665E-01 0.17371756E+03</pdfrwt>
<pdfrwt beam="2">  1       21 0.21550544E-01 0.17371756E+03</pdfrwt>
<totfact> 0.14978313E+05</totfact>
</mgrwt>
</event>
<event>
 4    1  0.4067306E+000  0.2177686E+03  0.7546771E-02  0.1135558E+00
         21   -1    0    0  503  502  0.00000000000E+00  0.00000000000E+00  0.26005703437E+03  0.26005703437E+03  0.00000000000E+00 0.  1.
         21   -1    0    0  501  503 -0.00000000000E+00 -0.00000000000E+00 -0.47940628077E+03  0.47940628077E+03  0.00000000000E+00 0. -1.
          6    1    1    2  501    0  0.39968280387E+02  0.12608219000E+03 -0.40071224908E+03  0.45606303143E+03  0.17300000000E+03 0. -1.
         -6    1    1    2    0  502 -0.39968280387E+02 -0.12608219000E+03  0.18136300268E+03  0.28340028372E+03  0.17300000000E+03 0.  1.
<mgrwt>
<rscale>  2 0.21776864E+03</rscale>
<asrwt>0</asrwt>
<pdfrwt beam="1">  1       21 0.40008775E-01 0.21776864E+03</pdfrwt>
<pdfrwt beam="2">  1       21 0.73754811E-01 0.21776864E+03</pdfrwt>
<totfact> 0.97696193E+03</totfact>
</mgrwt>
</event>
<event>
 4    1  0.4067306E+000  0.2920678E+03  0.7546771E-02  0.1089274E+00
         21   -1    0    0  501  502  0.00000000000E+00  0.00000000000E+00  0.16141018384E+03  0.16141018384E+03  0.00000000000E+00 0. -1.
         21   -1    0    0  502  503 -0.00000000000E+00 -0.00000000000E+00 -0.52947307398E+03  0.52947307398E+03  0.00000000000E+00 0.  1.
          6    1    1    2  501    0 -0.18718952259E+03  0.14259976019E+03 -0.19891911301E+03  0.35337292270E+03  0.17300000000E+03 0.  1.
         -6    1    1    2    0  503  0.18718952259E+03 -0.14259976019E+03 -0.16914377713E+03  0.33751033512E+03  0.17300000000E+03 0.  1.
<mgrwt>
<rscale>  2 0.29206782E+03</rscale>
<asrwt>0</asrwt>
<pdfrwt beam="1">  1       21 0.24832336E-01 0.29206782E+03</pdfrwt>
<pdfrwt beam="2">  1       21 0.81457396E-01 0.29206782E+03</pdfrwt>
<totfact> 0.19251568E+04</totfact>
</mgrwt>
</event>
<event>
 4    1  0.4067306E+000  0.1950725E+03  0.7546771E-02  0.1153964E+00
         21   -1    0    0  501  502  0.00000000000E+00  0.00000000000E+00  0.30303014603E+03  0.30303014603E+03  0.00000000000E+00 0.  1.
         21   -1    0    0  502  503 -0.00000000000E+00 -0.00000000000E+00 -0.17735667987E+03  0.17735667987E+03  0.00000000000E+00 0. -1.
          6    1    1    2  501    0  0.61498594108E+01  0.89924738543E+02  0.19262088578E+03  0.27414610158E+03  0.17300000000E+03 0.  1.
         -6    1    1    2    0  503 -0.61498594108E+01 -0.89924738543E+02 -0.66947419624E+02  0.20624072432E+03  0.17300000000E+03 0. -1.
<mgrwt>
<rscale>  2 0.19507250E+03</rscale>
<asrwt>0</asrwt>
<pdfrwt beam="1">  1       21 0.46620022E-01 0.19507250E+03</pdfrwt>
<pdfrwt beam="2">  1       21 0.27285643E-01 0.19507250E+03</pdfrwt>
<totfact> 0.56363946E+04</totfact>
</mgrwt>
</event>
<event>
 4    1  0.4067306E+000  0.2340552E+03  0.7546771E-02  0.1123818E+00
         21   -1    0    0  503  502  0.00000000000E+00  0.00000000000E+00  0.30946382541E+03  0.30946382541E+03  0.00000000000E+00 0.  1.
         21   -1    0    0  501  503 -0.00000000000E+00 -0.00000000000E+00 -0.20290624954E+03  0.20290624954E+03  0.00000000000E+00 0.  1.
          6    1    1    2  501    0 -0.12657204468E+03  0.93980604691E+02 -0.38222182910E+02  0.23715558568E+03  0.17300000000E+03 0.  1.
         -6    1    1    2    0  502  0.12657204468E+03 -0.93980604691E+02  0.14477975878E+03  0.27521448927E+03  0.17300000000E+03 0.  1.
<mgrwt>
<rscale>  2 0.23405520E+03</rscale>
<asrwt>0</asrwt>
<pdfrwt beam="1">  1       21 0.47609819E-01 0.23405520E+03</pdfrwt>
<pdfrwt beam="2">  1       21 0.31216346E-01 0.23405520E+03</pdfrwt>
<totfact> 0.40772355E+04</totfact>
</mgrwt>
</event>
<event>
 4    1  0.4067306E+000  0.1975875E+03  0.7546771E-02  0.1151791E+00
         21   -1    0    0  503  502  0.00000000000E+00  0.00000000000E+00  0.12216410138E+03  0.12216410138E+03  0.00000000000E+00 0. -1.
         21   -1    0    0  501  503 -0.00000000000E+00 -0.00000000000E+00 -0.35387762531E+03  0.35387762531E+03  0.00000000000E+00 0. -1.
          6    1    1    2  501    0 -0.92383137358E+02 -0.24024689554E+02 -0.41753066139E+02  0.20195085617E+03  0.17300000000E+03 0. -1.
         -6    1    1    2    0  502  0.92383137358E+02  0.24024689554E+02 -0.18996045779E+03  0.27409087052E+03  0.17300000000E+03 0. -1.
<mgrwt>
<rscale>  2 0.19758752E+03</rscale>
<asrwt>0</asrwt>
<pdfrwt beam="1">  1       21 0.18794477E-01 0.19758752E+03</pdfrwt>
<pdfrwt beam="2">  1       21 0.54442711E-01 0.19758752E+03</pdfrwt>
<totfact> 0.82424869E+04</totfact>
</mgrwt>
</event>
<event>
 4    1  0.4067306E+000  0.1998499E+03  0.7546771E-02  0.1149866E+00
         21   -1    0    0  501  502  0.00000000000E+00  0.00000000000E+00  0.27404185516E+03  0.27404185516E+03  0.00000000000E+00 0.  1.
         21   -1    0    0  502  503 -0.00000000000E+00 -0.00000000000E+00 -0.19645127656E+03  0.19645127656E+03  0.00000000000E+00 0. -1.
          6    1    1    2  501    0 -0.51788130451E+02  0.85609451910E+02  0.15831251362E+03  0.25495654665E+03  0.17300000000E+03 0.  1.
         -6    1    1    2    0  503  0.51788130451E+02 -0.85609451910E+02 -0.80721935022E+02  0.21553658507E+03  0.17300000000E+03 0. -1.
<mgrwt>
<rscale>  2 0.19984992E+03</rscale>
<asrwt>0</asrwt>
<pdfrwt beam="1">  1       21 0.42160286E-01 0.19984992E+03</pdfrwt>
<pdfrwt beam="2">  1       21 0.30223273E-01 0.19984992E+03</pdfrwt>
<totfact> 0.56672764E+04</totfact>
</mgrwt>
</event>
<event>
 4    1  0.4067306E+000  0.2315955E+03  0.7546771E-02  0.1125522E+00
         21   -1    0    0  501  502  0.00000000000E+00  0.00000000000E+00  0.78100455722E+03  0.78100455722E+03  0.00000000000E+00 0. -1.
         21   -1    0    0  502  503 -0.00000000000E+00 -0.00000000000E+00 -0.68965815169E+02  0.68965815169E+02  0.00000000000E+00 0.  1.
          6    1    1    2  501    0 -0.61155276487E+02  0.14130650001E+03  0.32848338283E+03  0.40191768757E+03  0.17300000000E+03 0. -1.
         -6    1    1    2    0  503  0.61155276487E+02 -0.14130650001E+03  0.38355535922E+03  0.44805268481E+03  0.17300000000E+03 0. -1.
<mgrwt>
<rscale>  2 0.23159554E+03</rscale>
<asrwt>0</asrwt>
<pdfrwt beam="1">  1       21 0.12015454E+00 0.23159554E+03</pdfrwt>
<pdfrwt beam="2">  1       21 0.10610126E-01 0.23159554E+03</pdfrwt>
<totfact> 0.37671216E+04</totfact>
</mgrwt>
</event>
<event>
 4    1  0.4067306E+000  0.1851792E+03  0.7546771E-02  0.1162883E+00
         21   -1    0    0  501  502  0.00000000000E+00  0.00000000000E+00  0.41227117216E+02  0.41227117216E+02  0.00000000000E+00 0.  1.
         21   -1    0    0  502  503 -0.00000000000E+00 -0.00000000000E+00 -0.14255556591E+04  0.14255556591E+04  0.00000000000E+00 0.  1.
          6    1    1    2  501    0  0.13018826817E+02 -0.64752102780E+02 -0.21883872937E+03  0.28667353233E+03  0.17300000000E+03 0.  1.
         -6    1    1    2    0  503 -0.13018826817E+02  0.64752102780E+02 -0.11654898125E+04  0.11801092439E+04  0.17300000000E+03 0.  1.
<mgrwt>
<rscale>  2 0.18517917E+03</rscale>
<asrwt>0</asrwt>
<pdfrwt beam="1">  1       21 0.63426339E-02 0.18517917E+03</pdfrwt>
<pdfrwt beam="2">  1       21 0.21931624E+00 0.18517917E+03</pdfrwt>
<totfact> 0.18321143E+04</totfact>
</mgrwt>
</event>
<event>
 4    1  0.4067306E+000  0.2161734E+03  0.7546771E-02  0.1136768E+00
         21   -1    0    0  501  502  0.00000000000E+00  0.00000000000E+00  0.48057369924E+03  0.48057369924E+03  0.00000000000E+00 0. -1.
         21   -1    0    0  502  503 -0.00000000000E+00 -0.00000000000E+00 -0.11259080657E+03  0.11259080657E+03  0.00000000000E+00 0.  1.
          6    1    1    2  501    0 -0.12733841861E+03  0.24225548864E+02  0.29350310757E+03  0.36452026587E+03  0.17300000000E+03 0. -1.
         -6    1    1    2    0  503  0.12733841861E+03 -0.24225548864E+02  0.74479785097E+02  0.22864423995E+03  0.17300000000E+03 0.  1.
<mgrwt>
<rscale>  2 0.21617343E+03</rscale>
<asrwt>0</asrwt>
<pdfrwt beam="1">  1       21 0.73934414E-01 0.21617343E+03</pdfrwt>
<pdfrwt beam="2">  1       21 0.17321663E-01 0.21617343E+03</pdfrwt>
<totfact> 0.48906420E+04</totfact>
</mgrwt>
</event>
<event>
 4    1  0.4067306E+000  0.1954038E+03  0.7546771E-02  0.1153676E+00
         21   -1    0    0  503  502  0.00000000000E+00  0.00000000000E+00  0.10269418969E+04  0.10269418969E+04  0.00000000000E+00 0.  1.
         21   -1    0    0  501  503 -0.00000000000E+00 -0.00000000000E+00 -0.44688515875E+02  0.44688515875E+02  0.00000000000E+00 0.  1.
          6    1    1    2  501    0  0.77032310162E+02 -0.48163118861E+02  0.27150916371E+03  0.33451440747E+03  0.17300000000E+03 0.  1.
         -6    1    1    2    0  502 -0.77032310162E+02  0.48163118861E+02  0.71074421733E+03  0.73711600531E+03  0.17300000000E+03 0.  1.
<mgrwt>
<rscale>  2 0.19540385E+03</rscale>
<asrwt>0</asrwt>
<pdfrwt beam="1">  1       21 0.15799104E+00 0.19540385E+03</pdfrwt>
<pdfrwt beam="2">  1       21 0.68751570E-02 0.19540385E+03</pdfrwt>
<totfact> 0.40566137E+04</totfact>
</mgrwt>
</event>
<event>
 4    1  0.4067306E+000  0.1973354E+03  0.7546771E-02  0.1152007E+00
         21   -1    0    0  501  502  0.00000000000E+00  0.00000000000E+00  0.51149103461E+03  0.51149103461E+03  0.00000000000E+00 0.  1.
         21   -1    0    0  502  503 -0.00000000000E+00 -0.00000000000E+00 -0.14363388081E+03  0.14363388081E+03  0.00000000000E+00 0.  1.
          6    1    1    2  501    0  0.63608849137E+02 -0.70470964271E+02  0.40848270868E+03  0.45365114988E+03  0.17300000000E+03 0.  1.
         -6    1    1    2    0  503 -0.63608849137E+02  0.70470964271E+02 -0.40625554871E+02  0.20147376554E+03  0.17300000000E+03 0.  1.
<mgrwt>
<rscale>  2 0.19733536E+03</rscale>
<asrwt>0</asrwt>
<pdfrwt beam="1">  1       21 0.78690927E-01 0.19733536E+03</pdfrwt>
<pdfrwt beam="2">  1       21 0.22097520E-01 0.19733536E+03</pdfrwt>
<totfact> 0.27254083E+04</totfact>
</mgrwt>
</event>
<event>
 4    1  0.4067306E+000  0.1762853E+03  0.7546771E-02  0.1171447E+00
         21   -1    0    0  501  502  0.00000000000E+00  0.00000000000E+00  0.38136077036E+02  0.38136077036E+02  0.00000000000E+00 0. -1.
         21   -1    0    0  502  503 -0.00000000000E+00 -0.00000000000E+00 -0.14024853504E+04  0.14024853504E+04  0.00000000000E+00 0. -1.
          6    1    1    2  501    0 -0.17561012141E+02 -0.28967563192E+02 -0.21593218816E+03  0.27875297084E+03  0.17300000000E+03 0. -1.
         -6    1    1    2    0  503  0.17561012141E+02  0.28967563192E+02 -0.11484170852E+04  0.11618684566E+04  0.17300000000E+03 0. -1.
<mgrwt>
<rscale>  2 0.17628531E+03</rscale>
<asrwt>0</asrwt>
<pdfrwt beam="1">  1       21 0.58670879E-02 0.17628531E+03</pdfrwt>
<pdfrwt beam="2">  1       21 0.21576701E+00 0.17628531E+03</pdfrwt>
<totfact> 0.22175888E+04</totfact>
</mgrwt>
</event>
<event>
 4    1  0.4067306E+000  0.1777308E+03  0.7546771E-02  0.1170017E+00
         21   -1    0    0  503  502  0.00000000000E+00  0.00000000000E+00  0.33466549931E+03  0.33466549931E+03  0.00000000000E+00 0. -1.
         21   -1    0    0  501  503 -0.00000000000E+00 -0.00000000000E+00 -0.98984352587E+02  0.98984352587E+02  0.00000000000E+00 0. -1.
          6    1    1    2  501    0 -0.31271422060E+02  0.26102742202E+02  0.71115060147E+02  0.19143042279E+03  0.17300000000E+03 0. -1.
         -6    1    1    2    0  502  0.31271422060E+02 -0.26102742202E+02  0.16456608658E+03  0.24221942911E+03  0.17300000000E+03 0. -1.
<mgrwt>
<rscale>  2 0.17773085E+03</rscale>
<asrwt>0</asrwt>
<pdfrwt beam="1">  1       21 0.51486999E-01 0.17773085E+03</pdfrwt>
<pdfrwt beam="2">  1       21 0.15228362E-01 0.17773085E+03</pdfrwt>
<totfact> 0.13747281E+05</totfact>
</mgrwt>
</event>
<event>
 4    1  0.4067306E+000  0.2519508E+03  0.7546771E-02  0.1112078E+00
         21   -1    0    0  503  502  0.00000000000E+00  0.00000000000E+00  0.44297846095E+03  0.44297846095E+03  0.00000000000E+00 0. -1.
         21   -1    0    0  501  503 -0.00000000000E+00 -0.00000000000E+00 -0.34975264396E+03  0.34975264396E+03  0.00000000000E+00 0. -1.
          6    1    1    2  501    0 -0.67340353410E+02 -0.17033926891E+03 -0.25791333943E+03  0.36055302021E+03  0.17300000000E+03 0. -1.
         -6    1    1    2    0  502  0.67340353410E+02  0.17033926891E+03  0.35113915642E+03  0.43217808470E+03  0.17300000000E+03 0. -1.
<mgrwt>
<rscale>  2 0.25195077E+03</rscale>
<asrwt>0</asrwt>
<pdfrwt beam="1">  1       21 0.68150533E-01 0.25195077E+03</pdfrwt>
<pdfrwt beam="2">  1       21 0.53808099E-01 0.25195077E+03</pdfrwt>
<totfact> 0.61685143E+03</totfact>
</mgrwt>
</event>
<event>
 4    1  0.4067306E+000  0.1745547E+03  0.7546771E-02  0.1173180E+00
         21   -1    0    0  503  502  0.00000000000E+00  0.00000000000E+00  0.30028354621E+03  0.30028354621E+03  0.00000000000E+00 0.  1.
         21   -1    0    0  501  503 -0.00000000000E+00 -0.00000000000E+00 -0.12860596893E+03  0.12860596893E+03  0.00000000000E+00 0.  1.
          6    1    1    2  501    0  0.16731532038E+02 -0.16137023905E+02  0.18434618242E+03  0.25387568351E+03  0.17300000000E+03 0. -1.
         -6    1    1    2    0  502 -0.16731532038E+02  0.16137023905E+02 -0.12668605136E+02  0.17501383163E+03  0.17300000000E+03 0. -1.
<mgrwt>
<rscale>  2 0.17455471E+03</rscale>
<asrwt>0</asrwt>
<pdfrwt beam="1">  1       21 0.46197468E-01 0.17455471E+03</pdfrwt>
<pdfrwt beam="2">  1       21 0.19785534E-01 0.17455471E+03</pdfrwt>
<totfact> 0.10645321E+05</totfact>
</mgrwt>
</event>
<event>
 4    1  0.4067306E+000  0.2991587E+03  0.7546771E-02  0.1085662E+00
         21   -1    0    0  501  502  0.00000000000E+00  0.00000000000E+00  0.31262759965E+03  0.31262759965E+03  0.00000000000E+00 0.  1.
         21   -1    0    0  502  503 -0.00000000000E+00 -0.00000000000E+00 -0.35961763516E+03  0.35961763516E+03  0.00000000000E+00 0. -1.
          6    1    1    2  501    0 -0.81227068492E+01 -0.24392819322E+03 -0.17529437631E+03  0.34673341370E+03  0.17300000000E+03 0. -1.
         -6    1    1    2    0  503  0.81227068492E+01  0.24392819322E+03  0.12830434080E+03  0.32551182111E+03  0.17300000000E+03 0.  1.
<mgrwt>
<rscale>  2 0.29915872E+03</rscale>
<asrwt>0</asrwt>
<pdfrwt beam="1">  1       21 0.48096554E-01 0.29915872E+03</pdfrwt>
<pdfrwt beam="2">  1       21 0.55325790E-01 0.29915872E+03</pdfrwt>
<totfact> 0.12007413E+04</totfact>
</mgrwt>
</event>
<event>
 4    1  0.4067306E+000  0.2713313E+03  0.7546771E-02  0.1100520E+00
         21   -1    0    0  503  502  0.00000000000E+00  0.00000000000E+00  0.39117581313E+03  0.39117581313E+03  0.00000000000E+00 0. -1.
         21   -1    0    0  501  503 -0.00000000000E+00 -0.00000000000E+00 -0.18921668038E+03  0.18921668038E+03  0.00000000000E+00 0.  1.
          6    1    1    2  501    0 -0.18308736639E+03 -0.10084993809E+03  0.79745390267E+02  0.28280739207E+03  0.17300000000E+03 0. -1.
         -6    1    1    2    0  502  0.18308736639E+03  0.10084993809E+03  0.12221374248E+03  0.29758510143E+03  0.17300000000E+03 0.  1.
<mgrwt>
<rscale>  2 0.27133134E+03</rscale>
<asrwt>0</asrwt>
<pdfrwt beam="1">  1       21 0.60180894E-01 0.27133134E+03</pdfrwt>
<pdfrwt beam="2">  1       21 0.29110259E-01 0.27133134E+03</pdfrwt>
<totfact> 0.27994128E+04</totfact>
</mgrwt>
</event>
<event>
 4    1  0.4067306E+000  0.2203532E+03  0.7546771E-02  0.1133620E+00
         21   -1    0    0  501  502  0.00000000000E+00  0.00000000000E+00  0.92824108490E+03  0.92824108490E+03  0.00000000000E+00 0. -1.
         21   -1    0    0  502  503 -0.00000000000E+00 -0.00000000000E+00 -0.66290111459E+02  0.66290111459E+02  0.00000000000E+00 0. -1.
          6    1    1    2  501    0 -0.13236631281E+03 -0.33252129486E+02  0.65934169680E+03  0.69518847662E+03  0.17300000000E+03 0. -1.
         -6    1    1    2    0  503  0.13236631281E+03  0.33252129486E+02  0.20260927665E+03  0.29934271975E+03  0.17300000000E+03 0. -1.
<mgrwt>
<rscale>  2 0.22035323E+03</rscale>
<asrwt>0</asrwt>
<pdfrwt beam="1">  1       21 0.14280631E+00 0.22035323E+03</pdfrwt>
<pdfrwt beam="2">  1       21 0.10198479E-01 0.22035323E+03</pdfrwt>
<totfact> 0.26190119E+04</totfact>
</mgrwt>
</event>
<event>
 4    1  0.4067306E+000  0.3046511E+03  0.7546771E-02  0.1082938E+00
         21   -1    0    0  501  502  0.00000000000E+00  0.00000000000E+00  0.99013163931E+03  0.99013163931E+03  0.00000000000E+00 0. -1.
         21   -1    0    0  502  503 -0.00000000000E+00 -0.00000000000E+00 -0.10190216456E+03  0.10190216456E+03  0.00000000000E+00 0.  1.
          6    1    1    2  501    0  0.12195316559E+03  0.21911347357E+03  0.59867159282E+03  0.67172908598E+03  0.17300000000E+03 0. -1.
         -6    1    1    2    0  503 -0.12195316559E+03 -0.21911347357E+03  0.28955788193E+03  0.42030471790E+03  0.17300000000E+03 0.  1.
<mgrwt>
<rscale>  2 0.30465109E+03</rscale>
<asrwt>0</asrwt>
<pdfrwt beam="1">  1       21 0.15232794E+00 0.30465109E+03</pdfrwt>
<pdfrwt beam="2">  1       21 0.15677257E-01 0.30465109E+03</pdfrwt>
<totfact> 0.96935605E+03</totfact>
</mgrwt>
</event>
<event>
 4    1  0.4067306E+000  0.3324073E+03  0.7546771E-02  0.1070077E+00
         21   -1    0    0  501  502  0.00000000000E+00  0.00000000000E+00  0.81213306515E+03  0.81213306515E+03  0.00000000000E+00 0. -1.
         21   -1    0    0  502  503 -0.00000000000E+00 -0.00000000000E+00 -0.14998225884E+03  0.14998225884E+03  0.00000000000E+00 0.  1.
          6    1    1    2  501    0 -0.12106434425E+03 -0.25672753737E+03  0.47766835561E+03  0.58194644242E+03  0.17300000000E+03 0. -1.
         -6    1    1    2    0  503  0.12106434425E+03  0.25672753737E+03  0.18448245071E+03  0.38016888157E+03  0.17300000000E+03 0.  1.
<mgrwt>
<rscale>  2 0.33240729E+03</rscale>
<asrwt>0</asrwt>
<pdfrwt beam="1">  1       21 0.12494355E+00 0.33240729E+03</pdfrwt>
<pdfrwt beam="2">  1       21 0.23074194E-01 0.33240729E+03</pdfrwt>
<totfact> 0.77664242E+03</totfact>
</mgrwt>
</event>
<event>
 4    1  0.4067306E+000  0.1730151E+03  0.7546771E-02  0.1174740E+00
         21   -1    0    0  503  502  0.00000000000E+00  0.00000000000E+00  0.90098519564E+03  0.90098519564E+03  0.00000000000E+00 0.  1.
         21   -1    0    0  501  503 -0.00000000000E+00 -0.00000000000E+00 -0.14282745174E+03  0.14282745174E+03  0.00000000000E+00 0.  1.
          6    1    1    2  501    0 -0.16859257490E+01 -0.15392632717E+01 -0.78113626378E+02  0.18983137334E+03  0.17300000000E+03 0.  1.
         -6    1    1    2    0  502  0.16859257490E+01  0.15392632717E+01  0.83627137028E+03  0.85398127405E+03  0.17300000000E+03 0.  1.
<mgrwt>
<rscale>  2 0.17301506E+03</rscale>
<asrwt>0</asrwt>
<pdfrwt beam="1">  1       21 0.13861310E+00 0.17301506E+03</pdfrwt>
<pdfrwt beam="2">  1       21 0.21973455E-01 0.17301506E+03</pdfrwt>
<totfact> 0.72167851E+03</totfact>
</mgrwt>
</event>
<event>
 4    1  0.4067306E+000  0.2617940E+03  0.7546771E-02  0.1106070E+00
         21   -1    0    0  501  502  0.00000000000E+00  0.00000000000E+00  0.17507221316E+04  0.17507221316E+04  0.00000000000E+00 0. -1.
         21   -1    0    0  502  503 -0.00000000000E+00 -0.00000000000E+00 -0.60938869595E+02  0.60938869595E+02  0.00000000000E+00 0. -1.
          6    1    1    2  501    0  0.27917384779E+02 -0.19449349208E+03  0.13865727400E+04  0.14110705377E+04  0.17300000000E+03 0. -1.
         -6    1    1    2    0  503 -0.27917384779E+02  0.19449349208E+03  0.30321052193E+03  0.40059046349E+03  0.17300000000E+03 0. -1.
<mgrwt>
<rscale>  2 0.26179400E+03</rscale>
<asrwt>0</asrwt>
<pdfrwt beam="1">  1       21 0.26934183E+00 0.26179400E+03</pdfrwt>
<pdfrwt beam="2">  1       21 0.93752120E-02 0.26179400E+03</pdfrwt>
<totfact> 0.43664687E+03</totfact>
</mgrwt>
</event>
<event>
 4    1  0.4067306E+000  0.1767791E+03  0.7546771E-02  0.1170957E+00
         21   -1    0    0  503  502  0.00000000000E+00  0.00000000000E+00  0.34903164032E+03  0.34903164032E+03  0.00000000000E+00 0. -1.
         21   -1    0    0  501  503 -0.00000000000E+00 -0.00000000000E+00 -0.15583891595E+03  0.15583891595E+03  0.00000000000E+00 0. -1.
          6    1    1    2  501    0 -0.35094721023E+02 -0.94977643230E+01  0.26125285931E+03  0.31544239326E+03  0.17300000000E+03 0. -1.
         -6    1    1    2    0  502  0.35094721023E+02  0.94977643230E+01 -0.68060134943E+02  0.18942816300E+03  0.17300000000E+03 0. -1.
<mgrwt>
<rscale>  2 0.17677909E+03</rscale>
<asrwt>0</asrwt>
<pdfrwt beam="1">  1       21 0.53697175E-01 0.17677909E+03</pdfrwt>
<pdfrwt beam="2">  1       21 0.23975218E-01 0.17677909E+03</pdfrwt>
<totfact> 0.54222030E+04</totfact>
</mgrwt>
</event>
<event>
 4    1  0.4067306E+000  0.3195648E+03  0.7546771E-02  0.1075850E+00
         21   -1    0    0  501  502  0.00000000000E+00  0.00000000000E+00  0.62014637533E+03  0.62014637533E+03  0.00000000000E+00 0.  1.
         21   -1    0    0  502  503 -0.00000000000E+00 -0.00000000000E+00 -0.18021048719E+03  0.18021048719E+03  0.00000000000E+00 0. -1.
          6    1    1    2  501    0 -0.20006059713E+03 -0.17935556115E+03  0.33747051612E+03  0.46476661787E+03  0.17300000000E+03 0.  1.
         -6    1    1    2    0  503  0.20006059713E+03  0.17935556115E+03  0.10246537202E+03  0.33559024465E+03  0.17300000000E+03 0. -1.
<mgrwt>
<rscale>  2 0.31956480E+03</rscale>
<asrwt>0</asrwt>
<pdfrwt beam="1">  1       21 0.95407133E-01 0.31956480E+03</pdfrwt>
<pdfrwt beam="2">  1       21 0.27724691E-01 0.31956480E+03</pdfrwt>
<totfact> 0.10624763E+04</totfact>
</mgrwt>
</event>
<event>
 4    1  0.4067306E+000  0.1789130E+03  0.7546771E-02  0.1168859E+00
         21   -1    0    0  503  502  0.00000000000E+00  0.00000000000E+00  0.64086314122E+02  0.64086314122E+02  0.00000000000E+00 0. -1.
         21   -1    0    0  501  503 -0.00000000000E+00 -0.00000000000E+00 -0.52183371206E+03  0.52183371206E+03  0.00000000000E+00 0.  1.
          6    1    1    2  501    0 -0.34711024631E+02  0.29597205825E+02 -0.16823994857E+03  0.24559016698E+03  0.17300000000E+03 0. -1.
         -6    1    1    2    0  502  0.34711024631E+02 -0.29597205825E+02 -0.28950744937E+03  0.34032985920E+03  0.17300000000E+03 0.  1.
<mgrwt>
<rscale>  2 0.17891297E+03</rscale>
<asrwt>0</asrwt>
<pdfrwt beam="1">  1       21 0.98594328E-02 0.17891297E+03</pdfrwt>
<pdfrwt beam="2">  1       21 0.80282111E-01 0.17891297E+03</pdfrwt>
<totfact> 0.11411249E+05</totfact>
</mgrwt>
</event>
<event>
 4    1  0.4067306E+000  0.2157732E+03  0.7546771E-02  0.1137074E+00
         21   -1    0    0  501  502  0.00000000000E+00  0.00000000000E+00  0.10532530843E+03  0.10532530843E+03  0.00000000000E+00 0.  1.
         21   -1    0    0  502  503 -0.00000000000E+00 -0.00000000000E+00 -0.50145110977E+03  0.50145110977E+03  0.00000000000E+00 0. -1.
          6    1    1    2  501    0  0.30049534212E+02  0.12540373498E+03 -0.93635194935E+02  0.23521398977E+03  0.17300000000E+03 0.  1.
         -6    1    1    2    0  503 -0.30049534212E+02 -0.12540373498E+03 -0.30249060641E+03  0.37156242843E+03  0.17300000000E+03 0. -1.
<mgrwt>
<rscale>  2 0.21577319E+03</rscale>
<asrwt>0</asrwt>
<pdfrwt beam="1">  1       21 0.16203894E-01 0.21577319E+03</pdfrwt>
<pdfrwt beam="2">  1       21 0.77146323E-01 0.21577319E+03</pdfrwt>
<totfact> 0.50281478E+04</totfact>
</mgrwt>
</event>
<event>
 4    1  0.4067306E+000  0.1900805E+03  0.7546771E-02  0.1158389E+00
         21   -1    0    0  503  502  0.00000000000E+00  0.00000000000E+00  0.23381746155E+03  0.23381746155E+03  0.00000000000E+00 0. -1.
         21   -1    0    0  501  503 -0.00000000000E+00 -0.00000000000E+00 -0.17050392156E+03  0.17050392156E+03  0.00000000000E+00 0. -1.
          6    1    1    2  501    0  0.28839440358E+02 -0.73279604928E+02  0.93544559557E+02  0.21185183134E+03  0.17300000000E+03 0. -1.
         -6    1    1    2    0  502 -0.28839440358E+02  0.73279604928E+02 -0.30231019567E+02  0.19246955178E+03  0.17300000000E+03 0. -1.
<mgrwt>
<rscale>  2 0.19008055E+03</rscale>
<asrwt>0</asrwt>
<pdfrwt beam="1">  1       21 0.35971917E-01 0.19008055E+03</pdfrwt>
<pdfrwt beam="2">  1       21 0.26231373E-01 0.19008055E+03</pdfrwt>
<totfact> 0.10305555E+05</totfact>
</mgrwt>
</event>
<event>
 4    1  0.4067306E+000  0.2027948E+03  0.7546771E-02  0.1147402E+00
         21   -1    0    0  503  502  0.00000000000E+00  0.00000000000E+00  0.38616282024E+02  0.38616282024E+02  0.00000000000E+00 0.  1.
         21   -1    0    0  501  503 -0.00000000000E+00 -0.00000000000E+00 -0.10762894233E+04  0.10762894233E+04  0.00000000000E+00 0.  1.
          6    1    1    2  501    0 -0.15150590621E+02  0.10472434906E+03 -0.46170404224E+03  0.50427805059E+03  0.17300000000E+03 0.  1.
         -6    1    1    2    0  502  0.15150590621E+02 -0.10472434906E+03 -0.57596909899E+03  0.61062765469E+03  0.17300000000E+03 0.  1.
<mgrwt>
<rscale>  2 0.20279480E+03</rscale>
<asrwt>0</asrwt>
<pdfrwt beam="1">  1       21 0.59409667E-02 0.20279480E+03</pdfrwt>
<pdfrwt beam="2">  1       21 0.16558298E+00 0.20279480E+03</pdfrwt>
<totfact> 0.45711710E+04</totfact>
</mgrwt>
</event>
<event>
 4    1  0.4067306E+000  0.2014177E+03  0.7546771E-02  0.1148548E+00
         21   -1    0    0  503  502  0.00000000000E+00  0.00000000000E+00  0.25328448285E+03  0.25328448285E+03  0.00000000000E+00 0. -1.
         21   -1    0    0  501  503 -0.00000000000E+00 -0.00000000000E+00 -0.53791391633E+03  0.53791391633E+03  0.00000000000E+00 0.  1.
          6    1    1    2  501    0  0.10315062914E+03  0.23115672372E+00 -0.47382465336E+03  0.51485814343E+03  0.17300000000E+03 0.  1.
         -6    1    1    2    0  502 -0.10315062914E+03 -0.23115672372E+00  0.18919521988E+03  0.27634025575E+03  0.17300000000E+03 0. -1.
<mgrwt>
<rscale>  2 0.20141774E+03</rscale>
<asrwt>0</asrwt>
<pdfrwt beam="1">  1       21 0.38966844E-01 0.20141774E+03</pdfrwt>
<pdfrwt beam="2">  1       21 0.82755986E-01 0.20141774E+03</pdfrwt>
<totfact> 0.80366124E+03</totfact>
</mgrwt>
</event>
<event>
 4    1  0.4067306E+000  0.2472150E+03  0.7546771E-02  0.1115078E+00
         21   -1    0    0  503  502  0.00000000000E+00  0.00000000000E+00  0.20290989933E+03  0.20290989933E+03  0.00000000000E+00 0. -1.
         21   -1    0    0  501  503 -0.00000000000E+00 -0.00000000000E+00 -0.68117943530E+03  0.68117943530E+03  0.00000000000E+00 0. -1.
          6    1    1    2  501    0 -0.82867446164E+02  0.15594623294E+03 -0.56929052565E+03  0.62065041996E+03  0.17300000000E+03 0. -1.
         -6    1    1    2    0  502  0.82867446164E+02 -0.15594623294E+03  0.91020989684E+02  0.26343891468E+03  0.17300000000E+03 0. -1.
<mgrwt>
<rscale>  2 0.24721497E+03</rscale>
<asrwt>0</asrwt>
<pdfrwt beam="1">  1       21 0.31216908E-01 0.24721497E+03</pdfrwt>
<pdfrwt beam="2">  1       21 0.10479683E+00 0.24721497E+03</pdfrwt>
<totfact> 0.69719904E+03</totfact>
</mgrwt>
</event>
<event>
 4    1  0.4067306E+000  0.1992324E+03  0.7546771E-02  0.1150388E+00
         21   -1    0    0  503  502  0.00000000000E+00  0.00000000000E+00  0.50602844274E+03  0.50602844274E+03  0.00000000000E+00 0.  1.
         21   -1    0    0  501  503 -0.00000000000E+00 -0.00000000000E+00 -0.90568740858E+02  0.90568740858E+02  0.00000000000E+00 0. -1.
          6    1    1    2  501    0  0.88136036427E+01  0.98421822837E+02  0.98574152994E+02  0.22228449892E+03  0.17300000000E+03 0.  1.
         -6    1    1    2    0  502 -0.88136036427E+01 -0.98421822837E+02  0.31688554889E+03  0.37431268468E+03  0.17300000000E+03 0.  1.
<mgrwt>
<rscale>  2 0.19923236E+03</rscale>
<asrwt>0</asrwt>
<pdfrwt beam="1">  1       21 0.77850528E-01 0.19923236E+03</pdfrwt>
<pdfrwt beam="2">  1       21 0.13933653E-01 0.19923236E+03</pdfrwt>
<totfact> 0.65386873E+04</totfact>
</mgrwt>
</event>
<event>
 4    1  0.4067306E+000  0.1868514E+03  0.7546771E-02  0.1161332E+00
         21   -1    0    0  503  502  0.00000000000E+00  0.00000000000E+00  0.34746686284E+03  0.34746686284E+03  0.00000000000E+00 0.  1.
         21   -1    0    0  501  503 -0.00000000000E+00 -0.00000000000E+00 -0.12459614864E+03  0.12459614864E+03  0.00000000000E+00 0.  1.
          6    1    1    2  501    0 -0.15794164712E+02  0.68811238881E+02  0.75935175115E+01  0.18700562490E+03  0.17300000000E+03 0.  1.
         -6    1    1    2    0  502  0.15794164712E+02 -0.68811238881E+02  0.21527719669E+03  0.28505738659E+03  0.17300000000E+03 0.  1.
<mgrwt>
<rscale>  2 0.18685139E+03</rscale>
<asrwt>0</asrwt>
<pdfrwt beam="1">  1       21 0.53456440E-01 0.18685139E+03</pdfrwt>
<pdfrwt beam="2">  1       21 0.19168638E-01 0.18685139E+03</pdfrwt>
<totfact> 0.82950884E+04</totfact>
</mgrwt>
</event>
<event>
 4    1  0.4067306E+000  0.1827915E+03  0.7546771E-02  0.1165128E+00
         21   -1    0    0  501  502  0.00000000000E+00  0.00000000000E+00  0.17568125579E+04  0.17568125579E+04  0.00000000000E+00 0.  1.
         21   -1    0    0  502  503 -0.00000000000E+00 -0.00000000000E+00 -0.27015663419E+02  0.27015663419E+02  0.00000000000E+00 0.  1.
          6    1    1    2  501    0 -0.16040583384E+02 -0.56801710122E+02  0.13501544480E+04  0.13624719330E+04  0.17300000000E+03 0.  1.
         -6    1    1    2    0  503  0.16040583384E+02  0.56801710122E+02  0.37964244647E+03  0.42135628837E+03  0.17300000000E+03 0.  1.
<mgrwt>
<rscale>  2 0.18279151E+03</rscale>
<asrwt>0</asrwt>
<pdfrwt beam="1">  1       21 0.27027877E+00 0.18279151E+03</pdfrwt>
<pdfrwt beam="2">  1       21 0.41562573E-02 0.18279151E+03</pdfrwt>
<totfact> 0.18785071E+04</totfact>
</mgrwt>
</event>
<event>
 4    1  0.4067306E+000  0.1861821E+03  0.7546771E-02  0.1161951E+00
         21   -1    0    0  501  502  0.00000000000E+00  0.00000000000E+00  0.62712147908E+02  0.62712147908E+02  0.00000000000E+00 0. -1.
         21   -1    0    0  502  503 -0.00000000000E+00 -0.00000000000E+00 -0.75893443817E+03  0.75893443817E+03  0.00000000000E+00 0.  1.
          6    1    1    2  501    0 -0.14897507720E+02 -0.67177582697E+02 -0.13397637467E+03  0.22937618081E+03  0.17300000000E+03 0. -1.
         -6    1    1    2    0  503  0.14897507720E+02  0.67177582697E+02 -0.56224591559E+03  0.59227040527E+03  0.17300000000E+03 0.  1.
<mgrwt>
<rscale>  2 0.18618207E+03</rscale>
<asrwt>0</asrwt>
<pdfrwt beam="1">  1       21 0.96480227E-02 0.18618207E+03</pdfrwt>
<pdfrwt beam="2">  1       21 0.11675915E+00 0.18618207E+03</pdfrwt>
<totfact> 0.48996133E+04</totfact>
</mgrwt>
</event>
<event>
 4    1  0.4067306E+000  0.2168993E+03  0.7546771E-02  0.1136216E+00
         21   -1    0    0  501  502  0.00000000000E+00  0.00000000000E+00  0.74597416916E+03  0.74597416916E+03  0.00000000000E+00 0.  1.
         21   -1    0    0  502  503 -0.00000000000E+00 -0.00000000000E+00 -0.63078090183E+02  0.63078090183E+02  0.00000000000E+00 0.  1.
          6    1    1    2  501    0  0.70163050229E+02  0.11042406132E+03  0.34713477587E+03  0.40932612860E+03  0.17300000000E+03 0.  1.
         -6    1    1    2    0  503 -0.70163050229E+02 -0.11042406132E+03  0.33576130311E+03  0.39972613074E+03  0.17300000000E+03 0.  1.
<mgrwt>
<rscale>  2 0.21689935E+03</rscale>
<asrwt>0</asrwt>
<pdfrwt beam="1">  1       21 0.11476525E+00 0.21689935E+03</pdfrwt>
<pdfrwt beam="2">  1       21 0.97043221E-02 0.21689935E+03</pdfrwt>
<totfact> 0.49785115E+04</totfact>
</mgrwt>
</event>
<event>
 4    1  0.4067306E+000  0.2006518E+03  0.7546771E-02  0.1149190E+00
         21   -1    0    0  503  502  0.00000000000E+00  0.00000000000E+00  0.47909516687E+02  0.47909516687E+02  0.00000000000E+00 0. -1.
         21   -1    0    0  501  503 -0.00000000000E+00 -0.00000000000E+00 -0.11744908964E+04  0.11744908964E+04  0.00000000000E+00 0. -1.
          6    1    1    2  501    0 -0.65132574401E+02 -0.78037846579E+02 -0.88929107872E+03  0.91164674104E+03  0.17300000000E+03 0. -1.
         -6    1    1    2    0  502  0.65132574401E+02  0.78037846579E+02 -0.23729030098E+03  0.31075367204E+03  0.17300000000E+03 0. -1.
<mgrwt>
<rscale>  2 0.20065183E+03</rscale>
<asrwt>0</asrwt>
<pdfrwt beam="1">  1       21 0.73706948E-02 0.20065183E+03</pdfrwt>
<pdfrwt beam="2">  1       21 0.18069091E+00 0.20065183E+03</pdfrwt>
<totfact> 0.24764433E+04</totfact>
</mgrwt>
</event>
<event>
 4    1  0.4067306E+000  0.2047714E+03  0.7546771E-02  0.1145775E+00
         21   -1    0    0  501  502  0.00000000000E+00  0.00000000000E+00  0.43105819220E+02  0.43105819220E+02  0.00000000000E+00 0. -1.
         21   -1    0    0  502  503 -0.00000000000E+00 -0.00000000000E+00 -0.15430189427E+04  0.15430189427E+04  0.00000000000E+00 0.  1.
          6    1    1    2  501    0 -0.76634136996E+02 -0.78291282885E+02 -0.26783069798E+03  0.33714180801E+03  0.17300000000E+03 0. -1.
         -6    1    1    2    0  503  0.76634136996E+02  0.78291282885E+02 -0.12320824255E+04  0.12489829539E+04  0.17300000000E+03 0.  1.
<mgrwt>
<rscale>  2 0.20477137E+03</rscale>
<asrwt>0</asrwt>
<pdfrwt beam="1">  1       21 0.66316648E-02 0.20477137E+03</pdfrwt>
<pdfrwt beam="2">  1       21 0.23738752E+00 0.20477137E+03</pdfrwt>
<totfact> 0.12972887E+04</totfact>
</mgrwt>
</event>
<event>
 4    1  0.4067306E+000  0.2238295E+03  0.7546771E-02  0.1131060E+00
         21   -1    0    0  501  502  0.00000000000E+00  0.00000000000E+00  0.10722214995E+04  0.10722214995E+04  0.00000000000E+00 0. -1.
         21   -1    0    0  502  503 -0.00000000000E+00 -0.00000000000E+00 -0.72688685037E+02  0.72688685037E+02  0.00000000000E+00 0. -1.
          6    1    1    2  501    0  0.62130709932E+02 -0.12771222114E+03  0.84189589276E+03  0.87114196936E+03  0.17300000000E+03 0. -1.
         -6    1    1    2    0  503 -0.62130709932E+02  0.12771222114E+03  0.15763692166E+03  0.27376821513E+03  0.17300000000E+03 0. -1.
<mgrwt>
<rscale>  2 0.22382948E+03</rscale>
<asrwt>0</asrwt>
<pdfrwt beam="1">  1       21 0.16495714E+00 0.22382948E+03</pdfrwt>
<pdfrwt beam="2">  1       21 0.11182875E-01 0.22382948E+03</pdfrwt>
<totfact> 0.15088144E+04</totfact>
</mgrwt>
</event>
<event>
 4    1  0.4067306E+000  0.2130799E+03  0.7546771E-02  0.1139150E+00
         21   -1    0    0  503  502  0.00000000000E+00  0.00000000000E+00  0.33732842571E+02  0.33732842571E+02  0.00000000000E+00 0. -1.
         21   -1    0    0  501  503 -0.00000000000E+00 -0.00000000000E+00 -0.17178952172E+04  0.17178952172E+04  0.00000000000E+00 0.  1.
          6    1    1    2  501    0 -0.12160298334E+03  0.26205902356E+02 -0.12495999350E+04  0.12676367904E+04  0.17300000000E+03 0.  1.
         -6    1    1    2    0  502  0.12160298334E+03 -0.26205902356E+02 -0.43456243970E+03  0.48399126942E+03  0.17300000000E+03 0. -1.
<mgrwt>
<rscale>  2 0.21307988E+03</rscale>
<asrwt>0</asrwt>
<pdfrwt beam="1">  1       21 0.51896690E-02 0.21307988E+03</pdfrwt>
<pdfrwt beam="2">  1       21 0.26429153E+00 0.21307988E+03</pdfrwt>
<totfact> 0.13595728E+04</totfact>
</mgrwt>
</event>
<event>
 4    1  0.4067306E+000  0.2409796E+03  0.7546771E-02  0.1119142E+00
         21   -1    0    0  503  502  0.00000000000E+00  0.00000000000E+00  0.28579667461E+03  0.28579667461E+03  0.00000000000E+00 0.  1.
         21   -1    0    0  501  503 -0.00000000000E+00 -0.00000000000E+00 -0.20844542583E+03  0.20844542583E+03  0.00000000000E+00 0.  1.
          6    1    1    2  501    0 -0.14285638086E+03  0.87944475508E+02 -0.56137821444E+00  0.24098027195E+03  0.17300000000E+03 0.  1.
         -6    1    1    2    0  502  0.14285638086E+03 -0.87944475508E+02  0.77912626993E+02  0.25326182849E+03  0.17300000000E+03 0.  1.
<mgrwt>
<rscale>  2 0.24097962E+03</rscale>
<asrwt>0</asrwt>
<pdfrwt beam="1">  1       21 0.43968719E-01 0.24097962E+03</pdfrwt>
<pdfrwt beam="2">  1       21 0.32068527E-01 0.24097962E+03</pdfrwt>
<totfact> 0.45448677E+04</totfact>
</mgrwt>
</event>
<event>
 4    1  0.4067306E+000  0.1944059E+03  0.7546771E-02  0.1154547E+00
         21   -1    0    0  503  502  0.00000000000E+00  0.00000000000E+00  0.16730203637E+04  0.16730203637E+04  0.00000000000E+00 0.  1.
         21   -1    0    0  501  503 -0.00000000000E+00 -0.00000000000E+00 -0.23395531859E+02  0.23395531859E+02  0.00000000000E+00 0. -1.
          6    1    1    2  501    0  0.88562875170E+02 -0.46102388194E+01  0.66742863574E+03  0.69516517531E+03  0.17300000000E+03 0. -1.
         -6    1    1    2    0  502 -0.88562875170E+02  0.46102388194E+01  0.98219619614E+03  0.10012507203E+04  0.17300000000E+03 0.  1.
<mgrwt>
<rscale>  2 0.19440586E+03</rscale>
<asrwt>0</asrwt>
<pdfrwt beam="1">  1       21 0.25738765E+00 0.19440586E+03</pdfrwt>
<pdfrwt beam="2">  1       21 0.35993139E-02 0.19440586E+03</pdfrwt>
<totfact> 0.28093998E+04</totfact>
</mgrwt>
</event>
<event>
 4    1  0.4067306E+000  0.1776920E+03  0.7546771E-02  0.1170056E+00
         21   -1    0    0  503  502  0.00000000000E+00  0.00000000000E+00  0.39559162934E+02  0.39559162934E+02  0.00000000000E+00 0. -1.
         21   -1    0    0  501  503 -0.00000000000E+00 -0.00000000000E+00 -0.10508702481E+04  0.10508702481E+04  0.00000000000E+00 0. -1.
          6    1    1    2  501    0  0.38755950909E+02 -0.11976199741E+02 -0.77302165408E+03  0.79318152448E+03  0.17300000000E+03 0. -1.
         -6    1    1    2    0  502 -0.38755950909E+02  0.11976199741E+02 -0.23828943104E+03  0.29724788651E+03  0.17300000000E+03 0. -1.
<mgrwt>
<rscale>  2 0.17769202E+03</rscale>
<asrwt>0</asrwt>
<pdfrwt beam="1">  1       21 0.60860246E-02 0.17769202E+03</pdfrwt>
<pdfrwt beam="2">  1       21 0.16167236E+00 0.17769202E+03</pdfrwt>
<totfact> 0.47510418E+04</totfact>
</mgrwt>
</event>
<event>
 4    1  0.4067306E+000  0.1956713E+03  0.7546771E-02  0.1153443E+00
         21   -1    0    0  503  502  0.00000000000E+00  0.00000000000E+00  0.13847610065E+04  0.13847610065E+04  0.00000000000E+00 0. -1.
         21   -1    0    0  501  503 -0.00000000000E+00 -0.00000000000E+00 -0.12344653359E+03  0.12344653359E+03  0.00000000000E+00 0. -1.
          6    1    1    2  501    0  0.91288240219E+02 -0.49721094022E+01 -0.33649740663E+02  0.19854362171E+03  0.17300000000E+03 0. -1.
         -6    1    1    2    0  502 -0.91288240219E+02  0.49721094022E+01  0.12949642136E+04  0.13096639184E+04  0.17300000000E+03 0. -1.
<mgrwt>
<rscale>  2 0.19567132E+03</rscale>
<asrwt>0</asrwt>
<pdfrwt beam="1">  1       21 0.21304014E+00 0.19567132E+03</pdfrwt>
<pdfrwt beam="2">  1       21 0.18991775E-01 0.19567132E+03</pdfrwt>
<totfact> 0.28147056E+03</totfact>
</mgrwt>
</event>
<event>
 4    1  0.4067306E+000  0.2577536E+03  0.7546771E-02  0.1108500E+00
         21   -1    0    0  503  502  0.00000000000E+00  0.00000000000E+00  0.95100754031E+03  0.95100754031E+03  0.00000000000E+00 0.  1.
         21   -1    0    0  501  503 -0.00000000000E+00 -0.00000000000E+00 -0.91627347133E+02  0.91627347133E+02  0.00000000000E+00 0. -1.
          6    1    1    2  501    0 -0.26544855124E+02  0.18921758598E+03  0.68378579016E+03  0.73075298905E+03  0.17300000000E+03 0.  1.
         -6    1    1    2    0  502  0.26544855124E+02 -0.18921758598E+03  0.17559440302E+03  0.31188189840E+03  0.17300000000E+03 0. -1.
<mgrwt>
<rscale>  2 0.25775361E+03</rscale>
<asrwt>0</asrwt>
<pdfrwt beam="1">  1       21 0.14630884E+00 0.25775361E+03</pdfrwt>
<pdfrwt beam="2">  1       21 0.14096516E-01 0.25775361E+03</pdfrwt>
<totfact> 0.13443205E+04</totfact>
</mgrwt>
</event>
<event>
 4    1  0.4067306E+000  0.2290622E+03  0.7546771E-02  0.1127302E+00
         21   -1    0    0  501  502  0.00000000000E+00  0.00000000000E+00  0.10101287716E+04  0.10101287716E+04  0.00000000000E+00 0.  1.
         21   -1    0    0  502  503 -0.00000000000E+00 -0.00000000000E+00 -0.51946927384E+02  0.51946927384E+02  0.00000000000E+00 0.  1.
          6    1    1    2  501    0 -0.14404540307E+03 -0.42325245143E+02  0.47470374624E+03  0.52707983382E+03  0.17300000000E+03 0.  1.
         -6    1    1    2    0  503  0.14404540307E+03  0.42325245143E+02  0.48347809797E+03  0.53499586516E+03  0.17300000000E+03 0.  1.
<mgrwt>
<rscale>  2 0.22906223E+03</rscale>
<asrwt>0</asrwt>
<pdfrwt beam="1">  1       21 0.15540441E+00 0.22906223E+03</pdfrwt>
<pdfrwt beam="2">  1       21 0.79918357E-02 0.22906223E+03</pdfrwt>
<totfact> 0.32015472E+04</totfact>
</mgrwt>
</event>
<event>
 4    1  0.4067306E+000  0.1905753E+03  0.7546771E-02  0.1157944E+00
         21   -1    0    0  501  502  0.00000000000E+00  0.00000000000E+00  0.19479675745E+03  0.19479675745E+03  0.00000000000E+00 0.  1.
         21   -1    0    0  502  503 -0.00000000000E+00 -0.00000000000E+00 -0.26997795224E+03  0.26997795224E+03  0.00000000000E+00 0.  1.
          6    1    1    2  501    0  0.76407394909E+02 -0.23491329018E+02  0.91673100752E+02  0.21147787103E+03  0.17300000000E+03 0.  1.
         -6    1    1    2    0  503 -0.76407394909E+02  0.23491329018E+02 -0.16685429554E+03  0.25329683866E+03  0.17300000000E+03 0.  1.
<mgrwt>
<rscale>  2 0.19057527E+03</rscale>
<asrwt>0</asrwt>
<pdfrwt beam="1">  1       21 0.29968732E-01 0.19057527E+03</pdfrwt>
<pdfrwt beam="2">  1       21 0.41535069E-01 0.19057527E+03</pdfrwt>
<totfact> 0.59651113E+04</totfact>
</mgrwt>
</event>
<event>
 4    1  0.4067306E+000  0.2255164E+03  0.7546771E-02  0.1129836E+00
         21   -1    0    0  503  502  0.00000000000E+00  0.00000000000E+00  0.90978277175E+03  0.90978277175E+03  0.00000000000E+00 0.  1.
         21   -1    0    0  501  503 -0.00000000000E+00 -0.00000000000E+00 -0.76183872433E+02  0.76183872433E+02  0.00000000000E+00 0.  1.
          6    1    1    2  501    0  0.95747325432E+02  0.10844862816E+03  0.16242894823E+03  0.27792232458E+03  0.17300000000E+03 0.  1.
         -6    1    1    2    0  502 -0.95747325432E+02 -0.10844862816E+03  0.67116995108E+03  0.70804431960E+03  0.17300000000E+03 0.  1.
<mgrwt>
<rscale>  2 0.22551642E+03</rscale>
<asrwt>0</asrwt>
<pdfrwt beam="1">  1       21 0.13996657E+00 0.22551642E+03</pdfrwt>
<pdfrwt beam="2">  1       21 0.11720596E-01 0.22551642E+03</pdfrwt>
<totfact> 0.21469103E+04</totfact>
</mgrwt>
</event>
<event>
 4    1  0.4067306E+000  0.3469103E+03  0.7546771E-02  0.1063890E+00
         21   -1    0    0  503  502  0.00000000000E+00  0.00000000000E+00  0.62005694019E+03  0.62005694019E+03  0.00000000000E+00 0. -1.
         21   -1    0    0  501  503 -0.00000000000E+00 -0.00000000000E+00 -0.45392479165E+03  0.45392479165E+03  0.00000000000E+00 0. -1.
          6    1    1    2  501    0 -0.69201871773E+02  0.29262412060E+03 -0.32321229567E+03  0.47414445382E+03  0.17300000000E+03 0. -1.
         -6    1    1    2    0  502  0.69201871773E+02 -0.29262412060E+03  0.48934444422E+03  0.59983727802E+03  0.17300000000E+03 0. -1.
<mgrwt>
<rscale>  2 0.34691033E+03</rscale>
<asrwt>0</asrwt>
<pdfrwt beam="1">  1       21 0.95393376E-01 0.34691033E+03</pdfrwt>
<pdfrwt beam="2">  1       21 0.69834583E-01 0.34691033E+03</pdfrwt>
<totfact> 0.15343584E+03</totfact>
</mgrwt>
</event>
<event>
 4    1  0.4067306E+000  0.3128395E+03  0.7546771E-02  0.1078993E+00
         21   -1    0    0  501  502  0.00000000000E+00  0.00000000000E+00  0.97016763844E+03  0.97016763844E+03  0.00000000000E+00 0.  1.
         21   -1    0    0  502  503 -0.00000000000E+00 -0.00000000000E+00 -0.10993980089E+03  0.10993980089E+03  0.00000000000E+00 0. -1.
          6    1    1    2  501    0  0.20214072576E+03  0.16455609259E+03  0.27506579704E+03  0.41656904989E+03  0.17300000000E+03 0. -1.
         -6    1    1    2    0  503 -0.20214072576E+03 -0.16455609259E+03  0.58516204050E+03  0.66353838945E+03  0.17300000000E+03 0.  1.
<mgrwt>
<rscale>  2 0.31283954E+03</rscale>
<asrwt>0</asrwt>
<pdfrwt beam="1">  1       21 0.14925655E+00 0.31283954E+03</pdfrwt>
<pdfrwt beam="2">  1       21 0.16913816E-01 0.31283954E+03</pdfrwt>
<totfact> 0.88591822E+03</totfact>
</mgrwt>
</event>
<event>
 4    1  0.4067306E+000  0.1895487E+03  0.7546771E-02  0.1158869E+00
         21   -1    0    0  501  502  0.00000000000E+00  0.00000000000E+00  0.90027646002E+03  0.90027646002E+03  0.00000000000E+00 0. -1.
         21   -1    0    0  502  503 -0.00000000000E+00 -0.00000000000E+00 -0.42504436351E+02  0.42504436351E+02  0.00000000000E+00 0.  1.
          6    1    1    2  501    0 -0.16190236235E+02 -0.75746820188E+02  0.54538138525E+03  0.57738164146E+03  0.17300000000E+03 0. -1.
         -6    1    1    2    0  503  0.16190236235E+02  0.75746820188E+02  0.31239063843E+03  0.36539925492E+03  0.17300000000E+03 0. -1.
<mgrwt>
<rscale>  2 0.18954869E+03</rscale>
<asrwt>0</asrwt>
<pdfrwt beam="1">  1       21 0.13850406E+00 0.18954869E+03</pdfrwt>
<pdfrwt beam="2">  1       21 0.65391447E-02 0.18954869E+03</pdfrwt>
<totfact> 0.62681582E+04</totfact>
</mgrwt>
</event>
<event>
 4    1  0.4067306E+000  0.1988709E+03  0.7546771E-02  0.1150695E+00
         21   -1    0    0  501  502  0.00000000000E+00  0.00000000000E+00  0.59627930584E+03  0.59627930584E+03  0.00000000000E+00 0. -1.
         21   -1    0    0  502  503 -0.00000000000E+00 -0.00000000000E+00 -0.18486363790E+03  0.18486363790E+03  0.00000000000E+00 0.  1.
          6    1    1    2  501    0 -0.95395070638E+02 -0.22812871890E+02  0.51846003114E+03  0.55529312126E+03  0.17300000000E+03 0. -1.
         -6    1    1    2    0  503  0.95395070638E+02  0.22812871890E+02 -0.10704436320E+03  0.22584982249E+03  0.17300000000E+03 0.  1.
<mgrwt>
<rscale>  2 0.19887093E+03</rscale>
<asrwt>0</asrwt>
<pdfrwt beam="1">  1       21 0.91735276E-01 0.19887093E+03</pdfrwt>
<pdfrwt beam="2">  1       21 0.28440560E-01 0.19887093E+03</pdfrwt>
<totfact> 0.11830605E+04</totfact>
</mgrwt>
</event>
<event>
 4    1  0.4067306E+000  0.1795734E+03  0.7546771E-02  0.1168217E+00
         21   -1    0    0  503  502  0.00000000000E+00  0.00000000000E+00  0.56596560607E+02  0.56596560607E+02  0.00000000000E+00 0.  1.
         21   -1    0    0  501  503 -0.00000000000E+00 -0.00000000000E+00 -0.11075551055E+04  0.11075551055E+04  0.00000000000E+00 0.  1.
          6    1    1    2  501    0 -0.45411911988E+02  0.15980564152E+02 -0.93108506692E+03  0.94824365119E+03  0.17300000000E+03 0.  1.
         -6    1    1    2    0  502  0.45411911988E+02 -0.15980564152E+02 -0.11987347796E+03  0.21590801490E+03  0.17300000000E+03 0.  1.
<mgrwt>
<rscale>  2 0.17957344E+03</rscale>
<asrwt>0</asrwt>
<pdfrwt beam="1">  1       21 0.87071632E-02 0.17957344E+03</pdfrwt>
<pdfrwt beam="2">  1       21 0.17039309E+00 0.17957344E+03</pdfrwt>
<totfact> 0.22149163E+04</totfact>
</mgrwt>
</event>
<event>
 4    1  0.4067306E+000  0.1978625E+03  0.7546771E-02  0.1151555E+00
         21   -1    0    0  501  502  0.00000000000E+00  0.00000000000E+00  0.66245091813E+03  0.66245091813E+03  0.00000000000E+00 0. -1.
         21   -1    0    0  502  503 -0.00000000000E+00 -0.00000000000E+00 -0.11203723205E+03  0.11203723205E+03  0.00000000000E+00 0. -1.
          6    1    1    2  501    0  0.15987887246E+02  0.94683389768E+02  0.54139713570E+03  0.57642034608E+03  0.17300000000E+03 0. -1.
         -6    1    1    2    0  503 -0.15987887246E+02 -0.94683389768E+02  0.90165503843E+01  0.19806780409E+03  0.17300000000E+03 0. -1.
<mgrwt>
<rscale>  2 0.19786247E+03</rscale>
<asrwt>0</asrwt>
<pdfrwt beam="1">  1       21 0.10191552E+00 0.19786247E+03</pdfrwt>
<pdfrwt beam="2">  1       21 0.17236498E-01 0.19786247E+03</pdfrwt>
<totfact> 0.23790124E+04</totfact>
</mgrwt>
</event>
<event>
 4    1  0.4067306E+000  0.1745770E+03  0.7546771E-02  0.1173157E+00
         21   -1    0    0  503  502  0.00000000000E+00  0.00000000000E+00  0.45110995140E+03  0.45110995140E+03  0.00000000000E+00 0.  1.
         21   -1    0    0  501  503 -0.00000000000E+00 -0.00000000000E+00 -0.96336457069E+02  0.96336457069E+02  0.00000000000E+00 0. -1.
          6    1    1    2  501    0  0.16421977990E+02  0.16686677975E+02  0.27786390596E+02  0.17677446107E+03  0.17300000000E+03 0. -1.
         -6    1    1    2    0  502 -0.16421977990E+02 -0.16686677975E+02  0.32698710374E+03  0.37067194741E+03  0.17300000000E+03 0.  1.
<mgrwt>
<rscale>  2 0.17457699E+03</rscale>
<asrwt>0</asrwt>
<pdfrwt beam="1">  1       21 0.69401530E-01 0.17457699E+03</pdfrwt>
<pdfrwt beam="2">  1       21 0.14820994E-01 0.17457699E+03</pdfrwt>
<totfact> 0.76298328E+04</totfact>
</mgrwt>
</event>
<event>
 4    1  0.4067306E+000  0.2052031E+03  0.7546771E-02  0.1145422E+00
         21   -1    0    0  501  502  0.00000000000E+00  0.00000000000E+00  0.57342444576E+02  0.57342444576E+02  0.00000000000E+00 0. -1.
         21   -1    0    0  502  503 -0.00000000000E+00 -0.00000000000E+00 -0.11839286451E+04  0.11839286451E+04  0.00000000000E+00 0. -1.
          6    1    1    2  501    0 -0.56872320584E+02 -0.94577246139E+02 -0.18083307548E+03  0.27351218899E+03  0.17300000000E+03 0. -1.
         -6    1    1    2    0  503  0.56872320584E+02  0.94577246139E+02 -0.94575312502E+03  0.96775890067E+03  0.17300000000E+03 0. -1.
<mgrwt>
<rscale>  2 0.20520311E+03</rscale>
<asrwt>0</asrwt>
<pdfrwt beam="1">  1       21 0.88219145E-02 0.20520311E+03</pdfrwt>
<pdfrwt beam="2">  1       21 0.18214287E+00 0.20520311E+03</pdfrwt>
<totfact> 0.17638769E+04</totfact>
</mgrwt>
</event>
<event>
 4    1  0.4067306E+000  0.1980532E+03  0.7546771E-02  0.1151392E+00
         21   -1    0    0  503  502  0.00000000000E+00  0.00000000000E+00  0.56579894673E+02  0.56579894673E+02  0.00000000000E+00 0.  1.
         21   -1    0    0  501  503 -0.00000000000E+00 -0.00000000000E+00 -0.92384590083E+03  0.92384590083E+03  0.00000000000E+00 0.  1.
          6    1    1    2  501    0 -0.67131265256E+02  0.69205905008E+02 -0.67853551862E+03  0.70684900375E+03  0.17300000000E+03 0.  1.
         -6    1    1    2    0  502  0.67131265256E+02 -0.69205905008E+02 -0.18873048753E+03  0.27357679176E+03  0.17300000000E+03 0.  1.
<mgrwt>
<rscale>  2 0.19805318E+03</rscale>
<asrwt>0</asrwt>
<pdfrwt beam="1">  1       21 0.87045994E-02 0.19805318E+03</pdfrwt>
<pdfrwt beam="2">  1       21 0.14213014E+00 0.19805318E+03</pdfrwt>
<totfact> 0.35522272E+04</totfact>
</mgrwt>
</event>
<event>
 4    1  0.4067306E+000  0.1864068E+03  0.7546771E-02  0.1161743E+00
         21   -1    0    0  503  502  0.00000000000E+00  0.00000000000E+00  0.23317372746E+03  0.23317372746E+03  0.00000000000E+00 0.  1.
         21   -1    0    0  501  503 -0.00000000000E+00 -0.00000000000E+00 -0.29522519381E+03  0.29522519381E+03  0.00000000000E+00 0.  1.
          6    1    1    2  501    0  0.54892370495E+02 -0.42489029494E+02 -0.21695039235E+03  0.28603314966E+03  0.17300000000E+03 0.  1.
         -6    1    1    2    0  502 -0.54892370495E+02  0.42489029494E+02  0.15489892600E+03  0.24236577160E+03  0.17300000000E+03 0.  1.
<mgrwt>
<rscale>  2 0.18640679E+03</rscale>
<asrwt>0</asrwt>
<pdfrwt beam="1">  1       21 0.35872881E-01 0.18640679E+03</pdfrwt>
<pdfrwt beam="2">  1       21 0.45419261E-01 0.18640679E+03</pdfrwt>
<totfact> 0.34950292E+04</totfact>
</mgrwt>
</event>
<event>
 4    1  0.4067306E+000  0.1870269E+03  0.7546771E-02  0.1161171E+00
         21   -1    0    0  503  502  0.00000000000E+00  0.00000000000E+00  0.48496568032E+02  0.48496568032E+02  0.00000000000E+00 0. -1.
         21   -1    0    0  501  503 -0.00000000000E+00 -0.00000000000E+00 -0.72537430638E+03  0.72537430638E+03  0.00000000000E+00 0. -1.
          6    1    1    2  501    0 -0.67988600511E+01  0.70737846580E+02 -0.30932940345E+03  0.36147440750E+03  0.17300000000E+03 0.  1.
         -6    1    1    2    0  502  0.67988600511E+01 -0.70737846580E+02 -0.36754833489E+03  0.41239646691E+03  0.17300000000E+03 0.  1.
<mgrwt>
<rscale>  2 0.18702692E+03</rscale>
<asrwt>0</asrwt>
<pdfrwt beam="1">  1       21 0.74610109E-02 0.18702692E+03</pdfrwt>
<pdfrwt beam="2">  1       21 0.11159604E+00 0.18702692E+03</pdfrwt>
<totfact> 0.85647069E+04</totfact>
</mgrwt>
</event>
<event>
 4    1  0.4067306E+000  0.2060754E+03  0.7546771E-02  0.1144712E+00
         21   -1    0    0  501  502  0.00000000000E+00  0.00000000000E+00  0.28685546946E+03  0.28685546946E+03  0.00000000000E+00 0.  1.
         21   -1    0    0  502  503 -0.00000000000E+00 -0.00000000000E+00 -0.25911366259E+03  0.25911366259E+03  0.00000000000E+00 0.  1.
          6    1    1    2  501    0  0.23665166402E+02  0.10944418682E+03  0.19259855981E+03  0.28206608334E+03  0.17300000000E+03 0.  1.
         -6    1    1    2    0  503 -0.23665166402E+02 -0.10944418682E+03 -0.16485675294E+03  0.26390304871E+03  0.17300000000E+03 0.  1.
<mgrwt>
<rscale>  2 0.20607540E+03</rscale>
<asrwt>0</asrwt>
<pdfrwt beam="1">  1       21 0.44131611E-01 0.20607540E+03</pdfrwt>
<pdfrwt beam="2">  1       21 0.39863640E-01 0.20607540E+03</pdfrwt>
<totfact> 0.29692967E+04</totfact>
</mgrwt>
</event>
<event>
 4    1  0.4067306E+000  0.1912977E+03  0.7546771E-02  0.1157296E+00
         21   -1    0    0  501  502  0.00000000000E+00  0.00000000000E+00  0.33960111941E+03  0.33960111941E+03  0.00000000000E+00 0. -1.
         21   -1    0    0  502  503 -0.00000000000E+00 -0.00000000000E+00 -0.25003953562E+03  0.25003953562E+03  0.00000000000E+00 0.  1.
          6    1    1    2  501    0 -0.79121734149E+02 -0.20138690511E+02  0.26717680775E+03  0.32860045993E+03  0.17300000000E+03 0. -1.
         -6    1    1    2    0  503  0.79121734149E+02  0.20138690511E+02 -0.17761522396E+03  0.26104019509E+03  0.17300000000E+03 0.  1.
<mgrwt>
<rscale>  2 0.19129771E+03</rscale>
<asrwt>0</asrwt>
<pdfrwt beam="1">  1       21 0.52246326E-01 0.19129771E+03</pdfrwt>
<pdfrwt beam="2">  1       21 0.38467621E-01 0.19129771E+03</pdfrwt>
<totfact> 0.22668690E+04</totfact>
</mgrwt>
</event>
<event>
 4    1  0.4067306E+000  0.1768221E+03  0.7546771E-02  0.1170915E+00
         21   -1    0    0  501  502  0.00000000000E+00  0.00000000000E+00  0.83779559687E+02  0.83779559687E+02  0.00000000000E+00 0.  1.
         21   -1    0    0  502  503 -0.00000000000E+00 -0.00000000000E+00 -0.11410183265E+04  0.11410183265E+04  0.00000000000E+00 0.  1.
          6    1    1    2  501    0 -0.26168101749E+02  0.25539911065E+02 -0.26254859052E+02  0.17876066186E+03  0.17300000000E+03 0.  1.
         -6    1    1    2    0  503  0.26168101749E+02 -0.25539911065E+02 -0.10309839077E+04  0.10460372243E+04  0.17300000000E+03 0.  1.
<mgrwt>
<rscale>  2 0.17682210E+03</rscale>
<asrwt>0</asrwt>
<pdfrwt beam="1">  1       21 0.12889164E-01 0.17682210E+03</pdfrwt>
<pdfrwt beam="2">  1       21 0.17554127E+00 0.17682210E+03</pdfrwt>
<totfact> 0.10208739E+04</totfact>
</mgrwt>
</event>
<event>
 4    1  0.4067306E+000  0.2254767E+03  0.7546771E-02  0.1129865E+00
         21   -1    0    0  501  502  0.00000000000E+00  0.00000000000E+00  0.12995921423E+04  0.12995921423E+04  0.00000000000E+00 0.  1.
         21   -1    0    0  502  503 -0.00000000000E+00 -0.00000000000E+00 -0.17448876667E+03  0.17448876667E+03  0.00000000000E+00 0.  1.
          6    1    1    2  501    0 -0.13937900180E+03 -0.38525513684E+02  0.12117348164E+04  0.12325343754E+04  0.17300000000E+03 0.  1.
         -6    1    1    2    0  503  0.13937900180E+03  0.38525513684E+02 -0.86631440749E+02  0.24154653356E+03  0.17300000000E+03 0.  1.
<mgrwt>
<rscale>  2 0.22547665E+03</rscale>
<asrwt>0</asrwt>
<pdfrwt beam="1">  1       21 0.19993725E+00 0.22547665E+03</pdfrwt>
<pdfrwt beam="2">  1       21 0.26844427E-01 0.22547665E+03</pdfrwt>
<totfact> 0.17187882E+03</totfact>
</mgrwt>
</event>
<event>
 4    1  0.4067306E+000  0.2129920E+03  0.7546771E-02  0.1139218E+00
         21   -1    0    0  503  502  0.00000000000E+00  0.00000000000E+00  0.64715474670E+02  0.64715474670E+02  0.00000000000E+00 0.  1.
         21   -1    0    0  501  503 -0.00000000000E+00 -0.00000000000E+00 -0.71250627357E+03  0.71250627357E+03  0.00000000000E+00 0.  1.
          6    1    1    2  501    0 -0.11292771262E+03 -0.51806556101E+02 -0.37327827184E+03  0.42977000332E+03  0.17300000000E+03 0.  1.
         -6    1    1    2    0  502  0.11292771262E+03  0.51806556101E+02 -0.27451252707E+03  0.34745174492E+03  0.17300000000E+03 0.  1.
<mgrwt>
<rscale>  2 0.21299199E+03</rscale>
<asrwt>0</asrwt>
<pdfrwt beam="1">  1       21 0.99562276E-02 0.21299199E+03</pdfrwt>
<pdfrwt beam="2">  1       21 0.10961634E+00 0.21299199E+03</pdfrwt>
<totfact> 0.53309972E+04</totfact>
</mgrwt>
</event>
<event>
 4    1  0.4067306E+000  0.2126218E+03  0.7546771E-02  0.1139506E+00
         21   -1    0    0  503  502  0.00000000000E+00  0.00000000000E+00  0.56236555995E+03  0.56236555995E+03  0.00000000000E+00 0. -1.
         21   -1    0    0  501  503 -0.00000000000E+00 -0.00000000000E+00 -0.39705630855E+03  0.39705630855E+03  0.00000000000E+00 0. -1.
          6    1    1    2  501    0 -0.36666487595E+02  0.11804496992E+03 -0.34575096770E+03  0.40589626495E+03  0.17300000000E+03 0. -1.
         -6    1    1    2    0  502  0.36666487595E+02 -0.11804496992E+03  0.51106021910E+03  0.55352560355E+03  0.17300000000E+03 0. -1.
<mgrwt>
<rscale>  2 0.21262184E+03</rscale>
<asrwt>0</asrwt>
<pdfrwt beam="1">  1       21 0.86517779E-01 0.21262184E+03</pdfrwt>
<pdfrwt beam="2">  1       21 0.61085586E-01 0.21262184E+03</pdfrwt>
<totfact> 0.28210241E+03</totfact>
</mgrwt>
</event>
<event>
 4    1  0.4067306E+000  0.1829538E+03  0.7546771E-02  0.1164975E+00
         21   -1    0    0  501  502  0.00000000000E+00  0.00000000000E+00  0.57256336481E+02  0.57256336481E+02  0.00000000000E+00 0.  1.
         21   -1    0    0  502  503 -0.00000000000E+00 -0.00000000000E+00 -0.59368851243E+03  0.59368851243E+03  0.00000000000E+00 0.  1.
          6    1    1    2  501    0 -0.27240422924E+02 -0.52925129890E+02 -0.22794827606E+03  0.29228843045E+03  0.17300000000E+03 0.  1.
         -6    1    1    2    0  503  0.27240422924E+02  0.52925129890E+02 -0.30848389989E+03  0.35865641847E+03  0.17300000000E+03 0.  1.
<mgrwt>
<rscale>  2 0.18295385E+03</rscale>
<asrwt>0</asrwt>
<pdfrwt beam="1">  1       21 0.88086666E-02 0.18295385E+03</pdfrwt>
<pdfrwt beam="2">  1       21 0.91336700E-01 0.18295385E+03</pdfrwt>
<totfact> 0.10338021E+05</totfact>
</mgrwt>
</event>
<event>
 4    1  0.4067306E+000  0.2382337E+03  0.7546771E-02  0.1120975E+00
         21   -1    0    0  503  502  0.00000000000E+00  0.00000000000E+00  0.41833017927E+03  0.41833017927E+03  0.00000000000E+00 0. -1.
         21   -1    0    0  501  503 -0.00000000000E+00 -0.00000000000E+00 -0.15567339998E+03  0.15567339998E+03  0.00000000000E+00 0.  1.
          6    1    1    2  501    0  0.15946201783E+03 -0.37391908994E+02  0.28451451106E+02  0.23992660348E+03  0.17300000000E+03 0.  1.
         -6    1    1    2    0  502 -0.15946201783E+03  0.37391908994E+02  0.23420532818E+03  0.33407697577E+03  0.17300000000E+03 0. -1.
<mgrwt>
<rscale>  2 0.23823369E+03</rscale>
<asrwt>0</asrwt>
<pdfrwt beam="1">  1       21 0.64358489E-01 0.23823369E+03</pdfrwt>
<pdfrwt beam="2">  1       21 0.23949754E-01 0.23823369E+03</pdfrwt>
<totfact> 0.35785424E+04</totfact>
</mgrwt>
</event>
<event>
 4    1  0.4067306E+000  0.2093757E+03  0.7546771E-02  0.1142061E+00
         21   -1    0    0  503  502  0.00000000000E+00  0.00000000000E+00  0.18505451278E+03  0.18505451278E+03  0.00000000000E+00 0. -1.
         21   -1    0    0  501  503 -0.00000000000E+00 -0.00000000000E+00 -0.23776303125E+03  0.23776303125E+03  0.00000000000E+00 0. -1.
          6    1    1    2  501    0  0.37540365265E+02 -0.11180288936E+03 -0.13567641486E+02  0.20981478973E+03  0.17300000000E+03 0. -1.
         -6    1    1    2    0  502 -0.37540365265E+02  0.11180288936E+03 -0.39140876983E+02  0.21300275431E+03  0.17300000000E+03 0. -1.
<mgrwt>
<rscale>  2 0.20937566E+03</rscale>
<asrwt>0</asrwt>
<pdfrwt beam="1">  1       21 0.28469925E-01 0.20937566E+03</pdfrwt>
<pdfrwt beam="2">  1       21 0.36578928E-01 0.20937566E+03</pdfrwt>
<totfact> 0.84436895E+04</totfact>
</mgrwt>
</event>
<event>
 4    1  0.4067306E+000  0.2791640E+03  0.7546771E-02  0.1096146E+00
         21   -1    0    0  503  502  0.00000000000E+00  0.00000000000E+00  0.14183048923E+03  0.14183048923E+03  0.00000000000E+00 0.  1.
         21   -1    0    0  501  503 -0.00000000000E+00 -0.00000000000E+00 -0.57158014228E+03  0.57158014228E+03  0.00000000000E+00 0. -1.
          6    1    1    2  501    0 -0.13819773591E+03 -0.17001455948E+03 -0.28502034038E+03  0.39896009710E+03  0.17300000000E+03 0. -1.
         -6    1    1    2    0  502  0.13819773591E+03  0.17001455948E+03 -0.14472931267E+03  0.31445053441E+03  0.17300000000E+03 0.  1.
<mgrwt>
<rscale>  2 0.27916405E+03</rscale>
<asrwt>0</asrwt>
<pdfrwt beam="1">  1       21 0.21820075E-01 0.27916405E+03</pdfrwt>
<pdfrwt beam="2">  1       21 0.87935407E-01 0.27916405E+03</pdfrwt>
<totfact> 0.20772487E+04</totfact>
</mgrwt>
</event>
<event>
 4    1  0.4067306E+000  0.2467959E+03  0.7546771E-02  0.1115347E+00
         21   -1    0    0  501  502  0.00000000000E+00  0.00000000000E+00  0.19959289988E+03  0.19959289988E+03  0.00000000000E+00 0.  1.
         21   -1    0    0  502  503 -0.00000000000E+00 -0.00000000000E+00 -0.63208401984E+03  0.63208401984E+03  0.00000000000E+00 0. -1.
          6    1    1    2  501    0  0.10496001863E+03 -0.14128914779E+03  0.82814994655E+02  0.26032009552E+03  0.17300000000E+03 0.  1.
         -6    1    1    2    0  503 -0.10496001863E+03  0.14128914779E+03 -0.51530611461E+03  0.57135682419E+03  0.17300000000E+03 0. -1.
<mgrwt>
<rscale>  2 0.24679593E+03</rscale>
<asrwt>0</asrwt>
<pdfrwt beam="1">  1       21 0.30706600E-01 0.24679593E+03</pdfrwt>
<pdfrwt beam="2">  1       21 0.97243695E-01 0.24679593E+03</pdfrwt>
<totfact> 0.86178713E+03</totfact>
</mgrwt>
</event>
<event>
 4    1  0.4067306E+000  0.2222683E+03  0.7546771E-02  0.1132203E+00
         21   -1    0    0  501  502  0.00000000000E+00  0.00000000000E+00  0.11954510826E+03  0.11954510826E+03  0.00000000000E+00 0.  1.
         21   -1    0    0  502  503 -0.00000000000E+00 -0.00000000000E+00 -0.41486265456E+03  0.41486265456E+03  0.00000000000E+00 0. -1.
          6    1    1    2  501    0 -0.56596463160E+01 -0.13943516735E+03 -0.13105042795E+03  0.25802599124E+03  0.17300000000E+03 0. -1.
         -6    1    1    2    0  503  0.56596463160E+01  0.13943516735E+03 -0.16426711835E+03  0.27638177158E+03  0.17300000000E+03 0.  1.
<mgrwt>
<rscale>  2 0.22226830E+03</rscale>
<asrwt>0</asrwt>
<pdfrwt beam="1">  1       21 0.18391555E-01 0.22226830E+03</pdfrwt>
<pdfrwt beam="2">  1       21 0.63825025E-01 0.22226830E+03</pdfrwt>
<totfact> 0.60361439E+04</totfact>
</mgrwt>
</event>
<event>
 4    1  0.4067306E+000  0.1888354E+03  0.7546771E-02  0.1159516E+00
         21   -1    0    0  503  502  0.00000000000E+00  0.00000000000E+00  0.31070415648E+03  0.31070415648E+03  0.00000000000E+00 0. -1.
         21   -1    0    0  501  503 -0.00000000000E+00 -0.00000000000E+00 -0.11480294132E+03  0.11480294132E+03  0.00000000000E+00 0. -1.
          6    1    1    2  501    0 -0.53919521033E+00 -0.75693541427E+02  0.10167792319E+03  0.21446958528E+03  0.17300000000E+03 0. -1.
         -6    1    1    2    0  502  0.53919521033E+00  0.75693541427E+02  0.94223291963E+02  0.21103751253E+03  0.17300000000E+03 0. -1.
<mgrwt>
<rscale>  2 0.18883539E+03</rscale>
<asrwt>0</asrwt>
<pdfrwt beam="1">  1       21 0.47800639E-01 0.18883539E+03</pdfrwt>
<pdfrwt beam="2">  1       21 0.17661991E-01 0.18883539E+03</pdfrwt>
<totfact> 0.12181573E+05</totfact>
</mgrwt>
</event>
<event>
 4    1  0.4067306E+000  0.1917555E+03  0.7546771E-02  0.1156887E+00
         21   -1    0    0  501  502  0.00000000000E+00  0.00000000000E+00  0.99744025646E+03  0.99744025646E+03  0.00000000000E+00 0.  1.
         21   -1    0    0  502  503 -0.00000000000E+00 -0.00000000000E+00 -0.45873011555E+02  0.45873011555E+02  0.00000000000E+00 0.  1.
          6    1    1    2  501    0  0.39896910150E+02  0.72452803117E+02  0.70695377720E+03  0.73249833803E+03  0.17300000000E+03 0.  1.
         -6    1    1    2    0  503 -0.39896910150E+02 -0.72452803117E+02  0.24461346771E+03  0.31081492999E+03  0.17300000000E+03 0.  1.
<mgrwt>
<rscale>  2 0.19175550E+03</rscale>
<asrwt>0</asrwt>
<pdfrwt beam="1">  1       21 0.15345233E+00 0.19175550E+03</pdfrwt>
<pdfrwt beam="2">  1       21 0.70573872E-02 0.19175550E+03</pdfrwt>
<totfact> 0.42004011E+04</totfact>
</mgrwt>
</event>
<event>
 4    1  0.4067306E+000  0.2103898E+03  0.7546771E-02  0.1141258E+00
         21   -1    0    0  503  502  0.00000000000E+00  0.00000000000E+00  0.51315530431E+02  0.51315530431E+02  0.00000000000E+00 0. -1.
         21   -1    0    0  501  503 -0.00000000000E+00 -0.00000000000E+00 -0.16449327218E+04  0.16449327218E+04  0.00000000000E+00 0. -1.
          6    1    1    2  501    0  0.10950117654E+03 -0.48418422303E+02 -0.21190256396E+03  0.29860768224E+03  0.17300000000E+03 0. -1.
         -6    1    1    2    0  502 -0.10950117654E+03  0.48418422303E+02 -0.13817146274E+04  0.13976405700E+04  0.17300000000E+03 0. -1.
<mgrwt>
<rscale>  2 0.21038976E+03</rscale>
<asrwt>0</asrwt>
<pdfrwt beam="1">  1       21 0.78946983E-02 0.21038976E+03</pdfrwt>
<pdfrwt beam="2">  1       21 0.25306653E+00 0.21038976E+03</pdfrwt>
<totfact> 0.77009748E+03</totfact>
</mgrwt>
</event>
<event>
 4    1  0.4067306E+000  0.2786072E+03  0.7546771E-02  0.1096452E+00
         21   -1    0    0  503  502  0.00000000000E+00  0.00000000000E+00  0.27174239787E+03  0.27174239787E+03  0.00000000000E+00 0. -1.
         21   -1    0    0  501  503 -0.00000000000E+00 -0.00000000000E+00 -0.29335075659E+03  0.29335075659E+03  0.00000000000E+00 0.  1.
          6    1    1    2  501    0 -0.65305922030E+02  0.20839409193E+03 -0.56596571037E+02  0.28429761317E+03  0.17300000000E+03 0.  1.
         -6    1    1    2    0  502  0.65305922030E+02 -0.20839409193E+03  0.34988212318E+02  0.28079554128E+03  0.17300000000E+03 0. -1.
<mgrwt>
<rscale>  2 0.27860718E+03</rscale>
<asrwt>0</asrwt>
<pdfrwt beam="1">  1       21 0.41806523E-01 0.27860718E+03</pdfrwt>
<pdfrwt beam="2">  1       21 0.45130886E-01 0.27860718E+03</pdfrwt>
<totfact> 0.24871769E+04</totfact>
</mgrwt>
</event>
<event>
 4    1  0.4067306E+000  0.2307089E+03  0.7546771E-02  0.1126142E+00
         21   -1    0    0  503  502  0.00000000000E+00  0.00000000000E+00  0.11328825623E+03  0.11328825623E+03  0.00000000000E+00 0.  1.
         21   -1    0    0  501  503 -0.00000000000E+00 -0.00000000000E+00 -0.84286533598E+03  0.84286533598E+03  0.00000000000E+00 0. -1.
          6    1    1    2  501    0  0.54633728766E+02 -0.14252277949E+03 -0.68283581315E+03  0.72075747288E+03  0.17300000000E+03 0. -1.
         -6    1    1    2    0  502 -0.54633728766E+02  0.14252277949E+03 -0.46741266608E+02  0.23539611933E+03  0.17300000000E+03 0.  1.
<mgrwt>
<rscale>  2 0.23070888E+03</rscale>
<asrwt>0</asrwt>
<pdfrwt beam="1">  1       21 0.17428962E-01 0.23070888E+03</pdfrwt>
<pdfrwt beam="2">  1       21 0.12967159E+00 0.23070888E+03</pdfrwt>
<totfact> 0.12638152E+04</totfact>
</mgrwt>
</event>
<event>
 4    1  0.4067306E+000  0.2163987E+03  0.7546771E-02  0.1136597E+00
         21   -1    0    0  501  502  0.00000000000E+00  0.00000000000E+00  0.11067042647E+04  0.11067042647E+04  0.00000000000E+00 0. -1.
         21   -1    0    0  502  503 -0.00000000000E+00 -0.00000000000E+00 -0.91909895632E+02  0.91909895632E+02  0.00000000000E+00 0.  1.
          6    1    1    2  501    0 -0.12721815691E+03 -0.26738018350E+02  0.94764166787E+03  0.97203555066E+03  0.17300000000E+03 0. -1.
         -6    1    1    2    0  503  0.12721815691E+03  0.26738018350E+02  0.67152701171E+02  0.22657860964E+03  0.17300000000E+03 0.  1.
<mgrwt>
<rscale>  2 0.21639866E+03</rscale>
<asrwt>0</asrwt>
<pdfrwt beam="1">  1       21 0.17026218E+00 0.21639866E+03</pdfrwt>
<pdfrwt beam="2">  1       21 0.14139985E-01 0.21639866E+03</pdfrwt>
<totfact> 0.91094832E+03</totfact>
</mgrwt>
</event>
<event>
 4    1  0.4067306E+000  0.1797646E+03  0.7546771E-02  0.1168031E+00
         21   -1    0    0  503  502  0.00000000000E+00  0.00000000000E+00  0.18643837096E+03  0.18643837096E+03  0.00000000000E+00 0.  1.
         21   -1    0    0  501  503 -0.00000000000E+00 -0.00000000000E+00 -0.18764614816E+03  0.18764614816E+03  0.00000000000E+00 0.  1.
          6    1    1    2  501    0 -0.25165926806E+02  0.41868847510E+02  0.51059887284E+02  0.18687545680E+03  0.17300000000E+03 0.  1.
         -6    1    1    2    0  502  0.25165926806E+02 -0.41868847510E+02 -0.52267664481E+02  0.18720906232E+03  0.17300000000E+03 0.  1.
<mgrwt>
<rscale>  2 0.17976464E+03</rscale>
<asrwt>0</asrwt>
<pdfrwt beam="1">  1       21 0.28682826E-01 0.17976464E+03</pdfrwt>
<pdfrwt beam="2">  1       21 0.28868638E-01 0.17976464E+03</pdfrwt>
<totfact> 0.13410892E+05</totfact>
</mgrwt>
</event>
<event>
 4    1  0.4067306E+000  0.1760512E+03  0.7546771E-02  0.1171680E+00
         21   -1    0    0  501  502  0.00000000000E+00  0.00000000000E+00  0.11863124179E+04  0.11863124179E+04  0.00000000000E+00 0.  1.
         21   -1    0    0  502  503 -0.00000000000E+00 -0.00000000000E+00 -0.38354726417E+02  0.38354726417E+02  0.00000000000E+00 0.  1.
          6    1    1    2  501    0  0.30796328162E+02 -0.10798781627E+02  0.91972934433E+03  0.93642730329E+03  0.17300000000E+03 0.  1.
         -6    1    1    2    0  503 -0.30796328162E+02  0.10798781627E+02  0.22822834714E+03  0.28823984102E+03  0.17300000000E+03 0.  1.
<mgrwt>
<rscale>  2 0.17605121E+03</rscale>
<asrwt>0</asrwt>
<pdfrwt beam="1">  1       21 0.18250957E+00 0.17605121E+03</pdfrwt>
<pdfrwt beam="2">  1       21 0.59007280E-02 0.17605121E+03</pdfrwt>
<totfact> 0.35895856E+04</totfact>
</mgrwt>
</event>
<event>
 4    1  0.4067306E+000  0.2062013E+03  0.7546771E-02  0.1144610E+00
         21   -1    0    0  501  502  0.00000000000E+00  0.00000000000E+00  0.44908786071E+03  0.44908786071E+03  0.00000000000E+00 0.  1.
         21   -1    0    0  502  503 -0.00000000000E+00 -0.00000000000E+00 -0.10571108665E+03  0.10571108665E+03  0.00000000000E+00 0.  1.
          6    1    1    2  501    0 -0.85042641904E+02  0.73196530445E+02  0.82072862899E+02  0.22193453502E+03  0.17300000000E+03 0.  1.
         -6    1    1    2    0  503  0.85042641904E+02 -0.73196530445E+02  0.26130391116E+03  0.33286441233E+03  0.17300000000E+03 0.  1.
<mgrwt>
<rscale>  2 0.20620132E+03</rscale>
<asrwt>0</asrwt>
<pdfrwt beam="1">  1       21 0.69090439E-01 0.20620132E+03</pdfrwt>
<pdfrwt beam="2">  1       21 0.16263244E-01 0.20620132E+03</pdfrwt>
<totfact> 0.64133305E+04</totfact>
</mgrwt>
</event>
<event>
 4    1  0.4067306E+000  0.1981329E+03  0.7546771E-02  0.1151324E+00
         21   -1    0    0  503  502  0.00000000000E+00  0.00000000000E+00  0.92147846374E+02  0.92147846374E+02  0.00000000000E+00 0. -1.
         21   -1    0    0  501  503 -0.00000000000E+00 -0.00000000000E+00 -0.77720078952E+03  0.77720078952E+03  0.00000000000E+00 0. -1.
          6    1    1    2  501    0 -0.68327142905E+02  0.68257138287E+02 -0.63471557514E+03  0.66492142145E+03  0.17300000000E+03 0. -1.
         -6    1    1    2    0  502  0.68327142905E+02 -0.68257138287E+02 -0.50337368004E+02  0.20442721444E+03  0.17300000000E+03 0. -1.
<mgrwt>
<rscale>  2 0.19813287E+03</rscale>
<asrwt>0</asrwt>
<pdfrwt beam="1">  1       21 0.14176592E-01 0.19813287E+03</pdfrwt>
<pdfrwt beam="2">  1       21 0.11956935E+00 0.19813287E+03</pdfrwt>
<totfact> 0.23080943E+04</totfact>
</mgrwt>
</event>
<event>
 4    1  0.4067306E+000  0.4006297E+03  0.7546771E-02  0.1043562E+00
         21   -1    0    0  503  502  0.00000000000E+00  0.00000000000E+00  0.66408784148E+02  0.66408784148E+02  0.00000000000E+00 0. -1.
         21   -1    0    0  501  503 -0.00000000000E+00 -0.00000000000E+00 -0.24583809656E+04  0.24583809656E+04  0.00000000000E+00 0.  1.
          6    1    1    2  501    0  0.11166431994E+03  0.34366589334E+03 -0.10320276175E+04  0.11070615023E+04  0.17300000000E+03 0. -1.
         -6    1    1    2    0  502 -0.11166431994E+03 -0.34366589334E+03 -0.13599445640E+04  0.14177282475E+04  0.17300000000E+03 0.  1.
<mgrwt>
<rscale>  2 0.40062971E+03</rscale>
<asrwt>0</asrwt>
<pdfrwt beam="1">  1       21 0.10216737E-01 0.40062971E+03</pdfrwt>
<pdfrwt beam="2">  1       21 0.37821242E+00 0.40062971E+03</pdfrwt>
<totfact> 0.75022563E+02</totfact>
</mgrwt>
</event>
<event>
 4    1  0.4067306E+000  0.2061893E+03  0.7546771E-02  0.1144620E+00
         21   -1    0    0  503  502  0.00000000000E+00  0.00000000000E+00  0.28350050589E+03  0.28350050589E+03  0.00000000000E+00 0.  1.
         21   -1    0    0  501  503 -0.00000000000E+00 -0.00000000000E+00 -0.20067280537E+03  0.20067280537E+03  0.00000000000E+00 0.  1.
          6    1    1    2  501    0 -0.10250825101E+03  0.45574961520E+02 -0.80283503992E+02  0.22126784596E+03  0.17300000000E+03 0.  1.
         -6    1    1    2    0  502  0.10250825101E+03 -0.45574961520E+02  0.16311120451E+03  0.26290546529E+03  0.17300000000E+03 0.  1.
<mgrwt>
<rscale>  2 0.20618928E+03</rscale>
<asrwt>0</asrwt>
<pdfrwt beam="1">  1       21 0.43615463E-01 0.20618928E+03</pdfrwt>
<pdfrwt beam="2">  1       21 0.30872739E-01 0.20618928E+03</pdfrwt>
<totfact> 0.50571586E+04</totfact>
</mgrwt>
</event>
<event>
 4    1  0.4067306E+000  0.1872446E+03  0.7546771E-02  0.1160970E+00
         21   -1    0    0  503  502  0.00000000000E+00  0.00000000000E+00  0.32967558721E+03  0.32967558721E+03  0.00000000000E+00 0. -1.
         21   -1    0    0  501  503 -0.00000000000E+00 -0.00000000000E+00 -0.21710408706E+03  0.21710408706E+03  0.00000000000E+00 0. -1.
          6    1    1    2  501    0 -0.33022962961E+02 -0.63569094936E+02 -0.13898218791E+03  0.23318789521E+03  0.17300000000E+03 0. -1.
         -6    1    1    2    0  502  0.33022962961E+02  0.63569094936E+02  0.25155368806E+03  0.31359177906E+03  0.17300000000E+03 0. -1.
<mgrwt>
<rscale>  2 0.18724462E+03</rscale>
<asrwt>0</asrwt>
<pdfrwt beam="1">  1       21 0.50719321E-01 0.18724462E+03</pdfrwt>
<pdfrwt beam="2">  1       21 0.33400629E-01 0.18724462E+03</pdfrwt>
<totfact> 0.32019288E+04</totfact>
</mgrwt>
</event>
<event>
 4    1  0.4067306E+000  0.1840167E+03  0.7546771E-02  0.1163971E+00
         21   -1    0    0  501  502  0.00000000000E+00  0.00000000000E+00  0.14630480584E+03  0.14630480584E+03  0.00000000000E+00 0.  1.
         21   -1    0    0  502  503 -0.00000000000E+00 -0.00000000000E+00 -0.24719275671E+03  0.24719275671E+03  0.00000000000E+00 0.  1.
          6    1    1    2  501    0 -0.56073899582E+02  0.28086876627E+02 -0.79122743196E+00  0.18401842542E+03  0.17300000000E+03 0.  1.
         -6    1    1    2    0  503  0.56073899582E+02 -0.28086876627E+02 -0.10009672343E+03  0.20947913714E+03  0.17300000000E+03 0.  1.
<mgrwt>
<rscale>  2 0.18401672E+03</rscale>
<asrwt>0</asrwt>
<pdfrwt beam="1">  1       21 0.22508432E-01 0.18401672E+03</pdfrwt>
<pdfrwt beam="2">  1       21 0.38029655E-01 0.18401672E+03</pdfrwt>
<totfact> 0.12365385E+05</totfact>
</mgrwt>
</event>
<event>
 4    1  0.4067306E+000  0.2246761E+03  0.7546771E-02  0.1130444E+00
         21   -1    0    0  503  502  0.00000000000E+00  0.00000000000E+00  0.60871970991E+03  0.60871970991E+03  0.00000000000E+00 0.  1.
         21   -1    0    0  501  503 -0.00000000000E+00 -0.00000000000E+00 -0.10268639074E+03  0.10268639074E+03  0.00000000000E+00 0.  1.
          6    1    1    2  501    0  0.14242127972E+03  0.16326358893E+02  0.96983598667E+02  0.24471450575E+03  0.17300000000E+03 0.  1.
         -6    1    1    2    0  502 -0.14242127972E+03 -0.16326358893E+02  0.40904972050E+03  0.46669159491E+03  0.17300000000E+03 0.  1.
<mgrwt>
<rscale>  2 0.22467615E+03</rscale>
<asrwt>0</asrwt>
<pdfrwt beam="1">  1       21 0.93649184E-01 0.22467615E+03</pdfrwt>
<pdfrwt beam="2">  1       21 0.15797907E-01 0.22467615E+03</pdfrwt>
<totfact> 0.33606185E+04</totfact>
</mgrwt>
</event>
<event>
 4    1  0.4067306E+000  0.2275679E+03  0.7546771E-02  0.1128363E+00
         21   -1    0    0  503  502  0.00000000000E+00  0.00000000000E+00  0.49223136836E+03  0.49223136836E+03  0.00000000000E+00 0.  1.
         21   -1    0    0  501  503 -0.00000000000E+00 -0.00000000000E+00 -0.13334166910E+03  0.13334166910E+03  0.00000000000E+00 0. -1.
          6    1    1    2  501    0  0.50000174859E+02 -0.13913354211E+03  0.35773322237E+02  0.23036251998E+03  0.17300000000E+03 0. -1.
         -6    1    1    2    0  502 -0.50000174859E+02  0.13913354211E+03  0.32311637702E+03  0.39521051748E+03  0.17300000000E+03 0.  1.
<mgrwt>
<rscale>  2 0.22756792E+03</rscale>
<asrwt>0</asrwt>
<pdfrwt beam="1">  1       21 0.75727902E-01 0.22756792E+03</pdfrwt>
<pdfrwt beam="2">  1       21 0.20514103E-01 0.22756792E+03</pdfrwt>
<totfact> 0.33635115E+04</totfact>
</mgrwt>
</event>
<event>
 4    1  0.4067306E+000  0.1909550E+03  0.7546771E-02  0.1157603E+00
         21   -1    0    0  501  502  0.00000000000E+00  0.00000000000E+00  0.54776864648E+03  0.54776864648E+03  0.00000000000E+00 0. -1.
         21   -1    0    0  502  503 -0.00000000000E+00 -0.00000000000E+00 -0.11911897355E+03  0.11911897355E+03  0.00000000000E+00 0. -1.
          6    1    1    2  501    0  0.10913425039E+02  0.80098114939E+02  0.43579894729E+03  0.47579883703E+03  0.17300000000E+03 0. -1.
         -6    1    1    2    0  503 -0.10913425039E+02 -0.80098114939E+02 -0.71492743585E+01  0.19108878300E+03  0.17300000000E+03 0. -1.
<mgrwt>
<rscale>  2 0.19095500E+03</rscale>
<asrwt>0</asrwt>
<pdfrwt beam="1">  1       21 0.84272098E-01 0.19095500E+03</pdfrwt>
<pdfrwt beam="2">  1       21 0.18325996E-01 0.19095500E+03</pdfrwt>
<totfact> 0.33220319E+04</totfact>
</mgrwt>
</event>
<event>
 4    1  0.4067306E+000  0.1943692E+03  0.7546771E-02  0.1154579E+00
         21   -1    0    0  501  502  0.00000000000E+00  0.00000000000E+00  0.56493788064E+02  0.56493788064E+02  0.00000000000E+00 0.  1.
         21   -1    0    0  502  503 -0.00000000000E+00 -0.00000000000E+00 -0.67155993034E+03  0.67155993034E+03  0.00000000000E+00 0. -1.
          6    1    1    2  501    0  0.74562856181E+02 -0.47861801967E+02 -0.28392299998E+03  0.34408086481E+03  0.17300000000E+03 0. -1.
         -6    1    1    2    0  503 -0.74562856181E+02  0.47861801967E+02 -0.33114314230E+03  0.38397285360E+03  0.17300000000E+03 0. -1.
<mgrwt>
<rscale>  2 0.19436916E+03</rscale>
<asrwt>0</asrwt>
<pdfrwt beam="1">  1       21 0.86913513E-02 0.19436916E+03</pdfrwt>
<pdfrwt beam="2">  1       21 0.10331692E+00 0.19436916E+03</pdfrwt>
<totfact> 0.78805148E+04</totfact>
</mgrwt>
</event>
<event>
 4    1  0.4067306E+000  0.2077866E+03  0.7546771E-02  0.1143331E+00
         21   -1    0    0  501  502  0.00000000000E+00  0.00000000000E+00  0.17844772758E+03  0.17844772758E+03  0.00000000000E+00 0.  1.
         21   -1    0    0  502  503 -0.00000000000E+00 -0.00000000000E+00 -0.26160882979E+03  0.26160882979E+03  0.00000000000E+00 0.  1.
          6    1    1    2  501    0 -0.11340830872E+03  0.19616618034E+02  0.18736728886E+02  0.20862962685E+03  0.17300000000E+03 0.  1.
         -6    1    1    2    0  503  0.11340830872E+03 -0.19616618034E+02 -0.10189783109E+03  0.23142693052E+03  0.17300000000E+03 0.  1.
<mgrwt>
<rscale>  2 0.20778656E+03</rscale>
<asrwt>0</asrwt>
<pdfrwt beam="1">  1       21 0.27453497E-01 0.20778656E+03</pdfrwt>
<pdfrwt beam="2">  1       21 0.40247512E-01 0.20778656E+03</pdfrwt>
<totfact> 0.74796243E+04</totfact>
</mgrwt>
</event>
<event>
 4    1  0.4067306E+000  0.1925212E+03  0.7546771E-02  0.1156207E+00
         21   -1    0    0  501  502  0.00000000000E+00  0.00000000000E+00  0.41040066630E+03  0.41040066630E+03  0.00000000000E+00 0. -1.
         21   -1    0    0  502  503 -0.00000000000E+00 -0.00000000000E+00 -0.11652940058E+03  0.11652940058E+03  0.00000000000E+00 0. -1.
          6    1    1    2  501    0  0.84470227173E+02  0.42655568190E+00  0.27190226460E+03  0.33315948542E+03  0.17300000000E+03 0. -1.
         -6    1    1    2    0  503 -0.84470227173E+02 -0.42655568190E+00  0.21969001111E+02  0.19377058146E+03  0.17300000000E+03 0. -1.
<mgrwt>
<rscale>  2 0.19252117E+03</rscale>
<asrwt>0</asrwt>
<pdfrwt beam="1">  1       21 0.63138563E-01 0.19252117E+03</pdfrwt>
<pdfrwt beam="2">  1       21 0.17927600E-01 0.19252117E+03</pdfrwt>
<totfact> 0.65670204E+04</totfact>
</mgrwt>
</event>
<event>
 4    1  0.4067306E+000  0.1800212E+03  0.7546771E-02  0.1167783E+00
         21   -1    0    0  501  502  0.00000000000E+00  0.00000000000E+00  0.67328252069E+03  0.67328252069E+03  0.00000000000E+00 0.  1.
         21   -1    0    0  502  503 -0.00000000000E+00 -0.00000000000E+00 -0.51046414609E+02  0.51046414609E+02  0.00000000000E+00 0.  1.
          6    1    1    2  501    0  0.20692276505E+02 -0.45281878609E+02  0.39762834111E+03  0.43648128997E+03  0.17300000000E+03 0. -1.
         -6    1    1    2    0  503 -0.20692276505E+02  0.45281878609E+02  0.22460776497E+03  0.28784764533E+03  0.17300000000E+03 0. -1.
<mgrwt>
<rscale>  2 0.18002116E+03</rscale>
<asrwt>0</asrwt>
<pdfrwt beam="1">  1       21 0.10358192E+00 0.18002116E+03</pdfrwt>
<pdfrwt beam="2">  1       21 0.78532950E-02 0.18002116E+03</pdfrwt>
<totfact> 0.94046069E+04</totfact>
</mgrwt>
</event>
<event>
 4    1  0.4067306E+000  0.1959260E+03  0.7546771E-02  0.1153223E+00
         21   -1    0    0  503  502  0.00000000000E+00  0.00000000000E+00  0.14960577342E+03  0.14960577342E+03  0.00000000000E+00 0.  1.
         21   -1    0    0  501  503 -0.00000000000E+00 -0.00000000000E+00 -0.26583758132E+03  0.26583758132E+03  0.00000000000E+00 0. -1.
          6    1    1    2  501    0  0.65529414714E+02  0.64528132676E+02 -0.19368339167E+02  0.19688097080E+03  0.17300000000E+03 0.  1.
         -6    1    1    2    0  502 -0.65529414714E+02 -0.64528132676E+02 -0.96863468729E+02  0.21856238394E+03  0.17300000000E+03 0.  1.
<mgrwt>
<rscale>  2 0.19592597E+03</rscale>
<asrwt>0</asrwt>
<pdfrwt beam="1">  1       21 0.23016273E-01 0.19592597E+03</pdfrwt>
<pdfrwt beam="2">  1       21 0.40898089E-01 0.19592597E+03</pdfrwt>
<totfact> 0.10194402E+05</totfact>
</mgrwt>
</event>
<event>
 4    1  0.4067306E+000  0.2367926E+03  0.7546771E-02  0.1121948E+00
         21   -1    0    0  501  502  0.00000000000E+00  0.00000000000E+00  0.49719445407E+03  0.49719445407E+03  0.00000000000E+00 0. -1.
         21   -1    0    0  502  503 -0.00000000000E+00 -0.00000000000E+00 -0.11394738928E+03  0.11394738928E+03  0.00000000000E+00 0.  1.
          6    1    1    2  501    0 -0.10175977879E+03 -0.12564507890E+03  0.16061850619E+03  0.28612766899E+03  0.17300000000E+03 0.  1.
         -6    1    1    2    0  503  0.10175977879E+03  0.12564507890E+03  0.22262855861E+03  0.32501417436E+03  0.17300000000E+03 0. -1.
<mgrwt>
<rscale>  2 0.23679261E+03</rscale>
<asrwt>0</asrwt>
<pdfrwt beam="1">  1       21 0.76491453E-01 0.23679261E+03</pdfrwt>
<pdfrwt beam="2">  1       21 0.17530368E-01 0.23679261E+03</pdfrwt>
<totfact> 0.43909790E+04</totfact>
</mgrwt>
</event>
<event>
 4    1  0.4067306E+000  0.1813668E+03  0.7546771E-02  0.1166487E+00
         21   -1    0    0  501  502  0.00000000000E+00  0.00000000000E+00  0.96464044365E+03  0.96464044365E+03  0.00000000000E+00 0. -1.
         21   -1    0    0  502  503 -0.00000000000E+00 -0.00000000000E+00 -0.43178661365E+02  0.43178661365E+02  0.00000000000E+00 0. -1.
          6    1    1    2  501    0  0.13306866314E+02 -0.52800119053E+02  0.69179723628E+03  0.71517644074E+03  0.17300000000E+03 0. -1.
         -6    1    1    2    0  503 -0.13306866314E+02  0.52800119053E+02  0.22966454601E+03  0.29264266428E+03  0.17300000000E+03 0. -1.
<mgrwt>
<rscale>  2 0.18136683E+03</rscale>
<asrwt>0</asrwt>
<pdfrwt beam="1">  1       21 0.14840621E+00 0.18136683E+03</pdfrwt>
<pdfrwt beam="2">  1       21 0.66428717E-02 0.18136683E+03</pdfrwt>
<totfact> 0.51215938E+04</totfact>
</mgrwt>
</event>
<event>
 4    1  0.4067306E+000  0.1730295E+03  0.7546771E-02  0.1174725E+00
         21   -1    0    0  501  502  0.00000000000E+00  0.00000000000E+00  0.20924166946E+04  0.20924166946E+04  0.00000000000E+00 0.  1.
         21   -1    0    0  502  503 -0.00000000000E+00 -0.00000000000E+00 -0.14896583365E+02  0.14896583365E+02  0.00000000000E+00 0.  1.
          6    1    1    2  501    0 -0.29103932343E+01  0.13208941613E+01  0.12481221262E+04  0.12600587514E+04  0.17300000000E+03 0.  1.
         -6    1    1    2    0  503  0.29103932343E+01 -0.13208941613E+01  0.82939798502E+03  0.84725452652E+03  0.17300000000E+03 0.  1.
<mgrwt>
<rscale>  2 0.17302952E+03</rscale>
<asrwt>0</asrwt>
<pdfrwt beam="1">  1       21 0.32191003E+00 0.17302952E+03</pdfrwt>
<pdfrwt beam="2">  1       21 0.22917837E-02 0.17302952E+03</pdfrwt>
<totfact> 0.25681054E+04</totfact>
</mgrwt>
</event>
<event>
 4    1  0.4067306E+000  0.1792870E+03  0.7546771E-02  0.1168495E+00
         21   -1    0    0  503  502  0.00000000000E+00  0.00000000000E+00  0.40415637134E+02  0.40415637134E+02  0.00000000000E+00 0.  1.
         21   -1    0    0  501  503 -0.00000000000E+00 -0.00000000000E+00 -0.80660280616E+03  0.80660280616E+03  0.00000000000E+00 0.  1.
          6    1    1    2  501    0 -0.26771021016E+02 -0.38705989709E+02 -0.43315630628E+03  0.46879443989E+03  0.17300000000E+03 0.  1.
         -6    1    1    2    0  502  0.26771021016E+02  0.38705989709E+02 -0.33303086274E+03  0.37822400340E+03  0.17300000000E+03 0.  1.
<mgrwt>
<rscale>  2 0.17928704E+03</rscale>
<asrwt>0</asrwt>
<pdfrwt beam="1">  1       21 0.62177907E-02 0.17928704E+03</pdfrwt>
<pdfrwt beam="2">  1       21 0.12409273E+00 0.17928704E+03</pdfrwt>
<totfact> 0.90656059E+04</totfact>
</mgrwt>
</event>
<event>
 4    1  0.4067306E+000  0.2025376E+03  0.7546771E-02  0.1147616E+00
         21   -1    0    0  503  502  0.00000000000E+00  0.00000000000E+00  0.26337509461E+03  0.26337509461E+03  0.00000000000E+00 0. -1.
         21   -1    0    0  501  503 -0.00000000000E+00 -0.00000000000E+00 -0.17126556430E+03  0.17126556430E+03  0.00000000000E+00 0.  1.
          6    1    1    2  501    0  0.35177016301E+02  0.99272651071E+02 -0.19349494113E+02  0.20345978632E+03  0.17300000000E+03 0. -1.
         -6    1    1    2    0  502 -0.35177016301E+02 -0.99272651071E+02  0.11145902442E+03  0.23118087259E+03  0.17300000000E+03 0. -1.
<mgrwt>
<rscale>  2 0.20253761E+03</rscale>
<asrwt>0</asrwt>
<pdfrwt beam="1">  1       21 0.40519245E-01 0.20253761E+03</pdfrwt>
<pdfrwt beam="2">  1       21 0.26348548E-01 0.20253761E+03</pdfrwt>
<totfact> 0.80041554E+04</totfact>
</mgrwt>
</event>
<event>
 4    1  0.4067306E+000  0.1860416E+03  0.7546771E-02  0.1162081E+00
         21   -1    0    0  501  502  0.00000000000E+00  0.00000000000E+00  0.25980782859E+03  0.25980782859E+03  0.00000000000E+00 0. -1.
         21   -1    0    0  502  503 -0.00000000000E+00 -0.00000000000E+00 -0.41194613445E+03  0.41194613445E+03  0.00000000000E+00 0.  1.
          6    1    1    2  501    0 -0.26187452214E+02  0.63219502757E+02  0.20021069200E+03  0.27330534092E+03  0.17300000000E+03 0. -1.
         -6    1    1    2    0  503  0.26187452214E+02 -0.63219502757E+02 -0.35234899786E+03  0.39844862213E+03  0.17300000000E+03 0.  1.
<mgrwt>
<rscale>  2 0.18604163E+03</rscale>
<asrwt>0</asrwt>
<pdfrwt beam="1">  1       21 0.39970435E-01 0.18604163E+03</pdfrwt>
<pdfrwt beam="2">  1       21 0.63376328E-01 0.18604163E+03</pdfrwt>
<totfact> 0.13949492E+04</totfact>
</mgrwt>
</event>
<event>
 4    1  0.4067306E+000  0.1731391E+03  0.7546771E-02  0.1174613E+00
         21   -1    0    0  501  502  0.00000000000E+00  0.00000000000E+00  0.20417580404E+02  0.20417580404E+02  0.00000000000E+00 0.  1.
         21   -1    0    0  502  503 -0.00000000000E+00 -0.00000000000E+00 -0.14715231728E+04  0.14715231728E+04  0.00000000000E+00 0.  1.
          6    1    1    2  501    0 -0.36431856852E+01  0.59044056519E+01 -0.69011424127E+03  0.71150179256E+03  0.17300000000E+03 0.  1.
         -6    1    1    2    0  503  0.36431856852E+01 -0.59044056519E+01 -0.76099135113E+03  0.78043896065E+03  0.17300000000E+03 0.  1.
<mgrwt>
<rscale>  2 0.17313906E+03</rscale>
<asrwt>0</asrwt>
<pdfrwt beam="1">  1       21 0.31411664E-02 0.17313906E+03</pdfrwt>
<pdfrwt beam="2">  1       21 0.22638817E+00 0.17313906E+03</pdfrwt>
<totfact> 0.54687718E+04</totfact>
</mgrwt>
</event>
<event>
 4    1  0.4067306E+000  0.1907493E+03  0.7546771E-02  0.1157787E+00
         21   -1    0    0  503  502  0.00000000000E+00  0.00000000000E+00  0.21422377775E+03  0.21422377775E+03  0.00000000000E+00 0. -1.
         21   -1    0    0  501  503 -0.00000000000E+00 -0.00000000000E+00 -0.72350695858E+03  0.72350695858E+03  0.00000000000E+00 0. -1.
          6    1    1    2  501    0 -0.30174792489E+02  0.74469876173E+02 -0.66479689304E+03  0.69162142069E+03  0.17300000000E+03 0. -1.
         -6    1    1    2    0  502  0.30174792489E+02 -0.74469876173E+02  0.15551371221E+03  0.24610931564E+03  0.17300000000E+03 0. -1.
<mgrwt>
<rscale>  2 0.19074926E+03</rscale>
<asrwt>0</asrwt>
<pdfrwt beam="1">  1       21 0.32957505E-01 0.19074926E+03</pdfrwt>
<pdfrwt beam="2">  1       21 0.11130876E+00 0.19074926E+03</pdfrwt>
<totfact> 0.56336295E+03</totfact>
</mgrwt>
</event>
<event>
 4    1  0.4067306E+000  0.2315105E+03  0.7546771E-02  0.1125581E+00
         21   -1    0    0  503  502  0.00000000000E+00  0.00000000000E+00  0.86025082990E+03  0.86025082990E+03  0.00000000000E+00 0. -1.
         21   -1    0    0  501  503 -0.00000000000E+00 -0.00000000000E+00 -0.62313832737E+02  0.62313832737E+02  0.00000000000E+00 0. -1.
          6    1    1    2  501    0 -0.12913398640E+03 -0.83621383208E+02  0.40474425716E+03  0.46627785266E+03  0.17300000000E+03 0. -1.
         -6    1    1    2    0  502  0.12913398640E+03  0.83621383208E+02  0.39319274000E+03  0.45628680998E+03  0.17300000000E+03 0. -1.
<mgrwt>
<rscale>  2 0.23151052E+03</rscale>
<asrwt>0</asrwt>
<pdfrwt beam="1">  1       21 0.13234627E+00 0.23151052E+03</pdfrwt>
<pdfrwt beam="2">  1       21 0.95867441E-02 0.23151052E+03</pdfrwt>
<totfact> 0.35344941E+04</totfact>
</mgrwt>
</event>
<event>
 4    1  0.4067306E+000  0.1912023E+03  0.7546771E-02  0.1157381E+00
         21   -1    0    0  501  502  0.00000000000E+00  0.00000000000E+00  0.20220029320E+03  0.20220029320E+03  0.00000000000E+00 0. -1.
         21   -1    0    0  502  503 -0.00000000000E+00 -0.00000000000E+00 -0.18080425584E+03  0.18080425584E+03  0.00000000000E+00 0. -1.
          6    1    1    2  501    0  0.63299832660E+02 -0.51209958381E+02  0.11286211214E+02  0.19153513311E+03  0.17300000000E+03 0. -1.
         -6    1    1    2    0  503 -0.63299832660E+02  0.51209958381E+02  0.10109826139E+02  0.19146941593E+03  0.17300000000E+03 0. -1.
<mgrwt>
<rscale>  2 0.19120232E+03</rscale>
<asrwt>0</asrwt>
<pdfrwt beam="1">  1       21 0.31107737E-01 0.19120232E+03</pdfrwt>
<pdfrwt beam="2">  1       21 0.27816039E-01 0.19120232E+03</pdfrwt>
<totfact> 0.12257214E+05</totfact>
</mgrwt>
</event>
<event>
 4    1  0.4067306E+000  0.3220211E+03  0.7546771E-02  0.1074723E+00
         21   -1    0    0  503  502  0.00000000000E+00  0.00000000000E+00  0.17136981273E+03  0.17136981273E+03  0.00000000000E+00 0.  1.
         21   -1    0    0  501  503 -0.00000000000E+00 -0.00000000000E+00 -0.13025048488E+04  0.13025048488E+04  0.00000000000E+00 0.  1.
          6    1    1    2  501    0  0.22976043027E+03  0.14484029915E+03 -0.11048052659E+04  0.11507789723E+04  0.17300000000E+03 0.  1.
         -6    1    1    2    0  502 -0.22976043027E+03 -0.14484029915E+03 -0.26329770163E+02  0.32309568919E+03  0.17300000000E+03 0.  1.
<mgrwt>
<rscale>  2 0.32202107E+03</rscale>
<asrwt>0</asrwt>
<pdfrwt beam="1">  1       21 0.26364588E-01 0.32202107E+03</pdfrwt>
<pdfrwt beam="2">  1       21 0.20038535E+00 0.32202107E+03</pdfrwt>
<totfact> 0.16431434E+03</totfact>
</mgrwt>
</event>
<event>
 4    1  0.4067306E+000  0.1858611E+03  0.7546771E-02  0.1162248E+00
         21   -1    0    0  501  502  0.00000000000E+00  0.00000000000E+00  0.17372317410E+03  0.17372317410E+03  0.00000000000E+00 0.  1.
         21   -1    0    0  502  503 -0.00000000000E+00 -0.00000000000E+00 -0.32515880953E+03  0.32515880953E+03  0.00000000000E+00 0.  1.
          6    1    1    2  501    0  0.55921693820E+02  0.38576171685E+02  0.79750462570E+02  0.20224859243E+03  0.17300000000E+03 0.  1.
         -6    1    1    2    0  503 -0.55921693820E+02 -0.38576171685E+02 -0.23118609800E+03  0.29663339119E+03  0.17300000000E+03 0.  1.
<mgrwt>
<rscale>  2 0.18586112E+03</rscale>
<asrwt>0</asrwt>
<pdfrwt beam="1">  1       21 0.26726642E-01 0.18586112E+03</pdfrwt>
<pdfrwt beam="2">  1       21 0.50024432E-01 0.18586112E+03</pdfrwt>
<totfact> 0.50893009E+04</totfact>
</mgrwt>
</event>
<event>
 4    1  0.4067306E+000  0.1849761E+03  0.7546771E-02  0.1163072E+00
         21   -1    0    0  503  502  0.00000000000E+00  0.00000000000E+00  0.12368273276E+04  0.12368273276E+04  0.00000000000E+00 0. -1.
         21   -1    0    0  501  503 -0.00000000000E+00 -0.00000000000E+00 -0.28535932978E+02  0.28535932978E+02  0.00000000000E+00 0. -1.
          6    1    1    2  501    0  0.59459448640E+02  0.27417793694E+02  0.49358115174E+03  0.52710389374E+03  0.17300000000E+03 0. -1.
         -6    1    1    2    0  502 -0.59459448640E+02 -0.27417793694E+02  0.71471024292E+03  0.73825936687E+03  0.17300000000E+03 0. -1.
<mgrwt>
<rscale>  2 0.18497611E+03</rscale>
<asrwt>0</asrwt>
<pdfrwt beam="1">  1       21 0.19028109E+00 0.18497611E+03</pdfrwt>
<pdfrwt beam="2">  1       21 0.43901445E-02 0.18497611E+03</pdfrwt>
<totfact> 0.52298071E+04</totfact>
</mgrwt>
</event>
<event>
 4    1  0.4067306E+000  0.1743904E+03  0.7546771E-02  0.1173345E+00
         21   -1    0    0  501  502  0.00000000000E+00  0.00000000000E+00  0.55018887287E+03  0.55018887287E+03  0.00000000000E+00 0.  1.
         21   -1    0    0  502  503 -0.00000000000E+00 -0.00000000000E+00 -0.22929835387E+03  0.22929835387E+03  0.00000000000E+00 0.  1.
          6    1    1    2  501    0 -0.87111807912E+01 -0.20177418141E+02  0.49997793334E+03  0.52951859901E+03  0.17300000000E+03 0.  1.
         -6    1    1    2    0  503  0.87111807912E+01  0.20177418141E+02 -0.17908741434E+03  0.24996862773E+03  0.17300000000E+03 0.  1.
<mgrwt>
<rscale>  2 0.17439040E+03</rscale>
<asrwt>0</asrwt>
<pdfrwt beam="1">  1       21 0.84644442E-01 0.17439040E+03</pdfrwt>
<pdfrwt beam="2">  1       21 0.35276670E-01 0.17439040E+03</pdfrwt>
<totfact> 0.94963637E+03</totfact>
</mgrwt>
</event>
<event>
 4    1  0.4067306E+000  0.1907896E+03  0.7546771E-02  0.1157751E+00
         21   -1    0    0  501  502  0.00000000000E+00  0.00000000000E+00  0.26448631233E+03  0.26448631233E+03  0.00000000000E+00 0.  1.
         21   -1    0    0  502  503 -0.00000000000E+00 -0.00000000000E+00 -0.13762911700E+03  0.13762911700E+03  0.00000000000E+00 0. -1.
          6    1    1    2  501    0  0.79792911519E+02 -0.10235243355E+02  0.62806321152E+02  0.20086140224E+03  0.17300000000E+03 0. -1.
         -6    1    1    2    0  503 -0.79792911519E+02  0.10235243355E+02  0.64050874182E+02  0.20125402709E+03  0.17300000000E+03 0.  1.
<mgrwt>
<rscale>  2 0.19078959E+03</rscale>
<asrwt>0</asrwt>
<pdfrwt beam="1">  1       21 0.40690202E-01 0.19078959E+03</pdfrwt>
<pdfrwt beam="2">  1       21 0.21173710E-01 0.19078959E+03</pdfrwt>
<totfact> 0.12078900E+05</totfact>
</mgrwt>
</event>
<event>
 4    1  0.4067306E+000  0.2267113E+03  0.7546771E-02  0.1128976E+00
         21   -1    0    0  501  502  0.00000000000E+00  0.00000000000E+00  0.28848184375E+03  0.28848184375E+03  0.00000000000E+00 0.  1.
         21   -1    0    0  502  503 -0.00000000000E+00 -0.00000000000E+00 -0.22761010651E+03  0.22761010651E+03  0.00000000000E+00 0. -1.
          6    1    1    2  501    0 -0.14176937583E+03  0.37019986008E+02  0.15070462316E+03  0.27223136985E+03  0.17300000000E+03 0. -1.
         -6    1    1    2    0  503  0.14176937583E+03 -0.37019986008E+02 -0.89832885910E+02  0.24386058041E+03  0.17300000000E+03 0. -1.
<mgrwt>
<rscale>  2 0.22671135E+03</rscale>
<asrwt>0</asrwt>
<pdfrwt beam="1">  1       21 0.44381822E-01 0.22671135E+03</pdfrwt>
<pdfrwt beam="2">  1       21 0.35016939E-01 0.22671135E+03</pdfrwt>
<totfact> 0.37680183E+04</totfact>
</mgrwt>
</event>
<event>
 4    1  0.4067306E+000  0.1858348E+03  0.7546771E-02  0.1162273E+00
         21   -1    0    0  503  502  0.00000000000E+00  0.00000000000E+00  0.14694060797E+03  0.14694060797E+03  0.00000000000E+00 0. -1.
         21   -1    0    0  501  503 -0.00000000000E+00 -0.00000000000E+00 -0.75414402611E+03  0.75414402611E+03  0.00000000000E+00 0. -1.
          6    1    1    2  501    0 -0.22385547766E+02 -0.64066188832E+02 -0.67740427274E+03  0.70243230138E+03  0.17300000000E+03 0. -1.
         -6    1    1    2    0  502  0.22385547766E+02  0.64066188832E+02  0.70200854592E+02  0.19865233270E+03  0.17300000000E+03 0. -1.
<mgrwt>
<rscale>  2 0.18583484E+03</rscale>
<asrwt>0</asrwt>
<pdfrwt beam="1">  1       21 0.22606247E-01 0.18583484E+03</pdfrwt>
<pdfrwt beam="2">  1       21 0.11602216E+00 0.18583484E+03</pdfrwt>
<totfact> 0.10572210E+04</totfact>
</mgrwt>
</event>
<event>
 4    1  0.4067306E+000  0.2090451E+03  0.7546771E-02  0.1142324E+00
         21   -1    0    0  501  502  0.00000000000E+00  0.00000000000E+00  0.22994242244E+03  0.22994242244E+03  0.00000000000E+00 0. -1.
         21   -1    0    0  502  503 -0.00000000000E+00 -0.00000000000E+00 -0.26478323753E+03  0.26478323753E+03  0.00000000000E+00 0. -1.
          6    1    1    2  501    0 -0.64499994088E+02 -0.98033604697E+02  0.11399769714E+03  0.23810777358E+03  0.17300000000E+03 0. -1.
         -6    1    1    2    0  503  0.64499994088E+02  0.98033604697E+02 -0.14883851223E+03  0.25661788638E+03  0.17300000000E+03 0. -1.
<mgrwt>
<rscale>  2 0.20904506E+03</rscale>
<asrwt>0</asrwt>
<pdfrwt beam="1">  1       21 0.35375758E-01 0.20904506E+03</pdfrwt>
<pdfrwt beam="2">  1       21 0.40735882E-01 0.20904506E+03</pdfrwt>
<totfact> 0.44362762E+04</totfact>
</mgrwt>
</event>
<event>
 4    1  0.4067306E+000  0.2862899E+03  0.7546771E-02  0.1092302E+00
         21   -1    0    0  503  502  0.00000000000E+00  0.00000000000E+00  0.35015698550E+03  0.35015698550E+03  0.00000000000E+00 0.  1.
         21   -1    0    0  501  503 -0.00000000000E+00 -0.00000000000E+00 -0.64750345433E+03  0.64750345433E+03  0.00000000000E+00 0. -1.
          6    1    1    2  501    0  0.19506525833E+03  0.11824734232E+03 -0.54726980148E+03  0.61762943954E+03  0.17300000000E+03 0. -1.
         -6    1    1    2    0  502 -0.19506525833E+03 -0.11824734232E+03  0.24992333266E+03  0.38003100029E+03  0.17300000000E+03 0.  1.
<mgrwt>
<rscale>  2 0.28628987E+03</rscale>
<asrwt>0</asrwt>
<pdfrwt beam="1">  1       21 0.53870306E-01 0.28628987E+03</pdfrwt>
<pdfrwt beam="2">  1       21 0.99615915E-01 0.28628987E+03</pdfrwt>
<totfact> 0.25212682E+03</totfact>
</mgrwt>
</event>
<event>
 4    1  0.4067306E+000  0.2710575E+03  0.7546771E-02  0.1100676E+00
         21   -1    0    0  501  502  0.00000000000E+00  0.00000000000E+00  0.36814934098E+03  0.36814934098E+03  0.00000000000E+00 0. -1.
         21   -1    0    0  502  503 -0.00000000000E+00 -0.00000000000E+00 -0.29065222513E+03  0.29065222513E+03  0.00000000000E+00 0.  1.
          6    1    1    2  501    0  0.89431727467E+02  0.18853418887E+03  0.22314420515E+03  0.35109188333E+03  0.17300000000E+03 0. -1.
         -6    1    1    2    0  503 -0.89431727467E+02 -0.18853418887E+03 -0.14564708930E+03  0.30770968277E+03  0.17300000000E+03 0.  1.
<mgrwt>
<rscale>  2 0.27105751E+03</rscale>
<asrwt>0</asrwt>
<pdfrwt beam="1">  1       21 0.56638360E-01 0.27105751E+03</pdfrwt>
<pdfrwt beam="2">  1       21 0.44715727E-01 0.27105751E+03</pdfrwt>
<totfact> 0.13462193E+04</totfact>
</mgrwt>
</event>
<event>
 4    1  0.4067306E+000  0.1985477E+03  0.7546771E-02  0.1150970E+00
         21   -1    0    0  501  502  0.00000000000E+00  0.00000000000E+00  0.74777081973E+03  0.74777081973E+03  0.00000000000E+00 0.  1.
         21   -1    0    0  502  503 -0.00000000000E+00 -0.00000000000E+00 -0.26556492589E+03  0.26556492589E+03  0.00000000000E+00 0. -1.
          6    1    1    2  501    0 -0.74542816473E+01 -0.97142275915E+02  0.69470124798E+03  0.72251713615E+03  0.17300000000E+03 0.  1.
         -6    1    1    2    0  503  0.74542816473E+01  0.97142275915E+02 -0.21249535414E+03  0.29081860947E+03  0.17300000000E+03 0. -1.
<mgrwt>
<rscale>  2 0.19854770E+03</rscale>
<asrwt>0</asrwt>
<pdfrwt beam="1">  1       21 0.11504166E+00 0.19854770E+03</pdfrwt>
<pdfrwt beam="2">  1       21 0.40856143E-01 0.19854770E+03</pdfrwt>
<totfact> 0.33632715E+03</totfact>
</mgrwt>
</event>
<event>
 4    1  0.4067306E+000  0.2167330E+03  0.7546771E-02  0.1136342E+00
         21   -1    0    0  503  502  0.00000000000E+00  0.00000000000E+00  0.86361672972E+02  0.86361672972E+02  0.00000000000E+00 0. -1.
         21   -1    0    0  501  503 -0.00000000000E+00 -0.00000000000E+00 -0.86370299499E+03  0.86370299499E+03  0.00000000000E+00 0. -1.
          6    1    1    2  501    0 -0.10942554452E+03  0.71205534049E+02 -0.67772124891E+03  0.71153304147E+03  0.17300000000E+03 0. -1.
         -6    1    1    2    0  502  0.10942554452E+03 -0.71205534049E+02 -0.99620073103E+02  0.23853162649E+03  0.17300000000E+03 0. -1.
<mgrwt>
<rscale>  2 0.21673296E+03</rscale>
<asrwt>0</asrwt>
<pdfrwt beam="1">  1       21 0.13286410E-01 0.21673296E+03</pdfrwt>
<pdfrwt beam="2">  1       21 0.13287739E+00 0.21673296E+03</pdfrwt>
<totfact> 0.19683084E+04</totfact>
</mgrwt>
</event>
<event>
 4    1  0.4067306E+000  0.2083567E+03  0.7546771E-02  0.1142874E+00
         21   -1    0    0  501  502  0.00000000000E+00  0.00000000000E+00  0.12364885462E+03  0.12364885462E+03  0.00000000000E+00 0. -1.
         21   -1    0    0  502  503 -0.00000000000E+00 -0.00000000000E+00 -0.13413102793E+04  0.13413102793E+04  0.00000000000E+00 0. -1.
          6    1    1    2  501    0  0.10735535079E+03 -0.44253084167E+02  0.20524274613E+02  0.20936511803E+03  0.17300000000E+03 0. -1.
         -6    1    1    2    0  503 -0.10735535079E+03  0.44253084167E+02 -0.12381856993E+04  0.12555940159E+04  0.17300000000E+03 0. -1.
<mgrwt>
<rscale>  2 0.20835668E+03</rscale>
<asrwt>0</asrwt>
<pdfrwt beam="1">  1       21 0.19022900E-01 0.20835668E+03</pdfrwt>
<pdfrwt beam="2">  1       21 0.20635543E+00 0.20835668E+03</pdfrwt>
<totfact> 0.30527079E+03</totfact>
</mgrwt>
</event>
<event>
 4    1  0.4067306E+000  0.1911833E+03  0.7546771E-02  0.1157398E+00
         21   -1    0    0  501  502  0.00000000000E+00  0.00000000000E+00  0.28063966215E+03  0.28063966215E+03  0.00000000000E+00 0. -1.
         21   -1    0    0  502  503 -0.00000000000E+00 -0.00000000000E+00 -0.18121712014E+03  0.18121712014E+03  0.00000000000E+00 0. -1.
          6    1    1    2  501    0 -0.81212092455E+02 -0.51611191698E+01  0.17218904893E+03  0.25729381976E+03  0.17300000000E+03 0. -1.
         -6    1    1    2    0  503  0.81212092455E+02  0.51611191698E+01 -0.72766506923E+02  0.20456296254E+03  0.17300000000E+03 0. -1.
<mgrwt>
<rscale>  2 0.19118327E+03</rscale>
<asrwt>0</asrwt>
<pdfrwt beam="1">  1       21 0.43175333E-01 0.19118327E+03</pdfrwt>
<pdfrwt beam="2">  1       21 0.27879557E-01 0.19118327E+03</pdfrwt>
<totfact> 0.63409492E+04</totfact>
</mgrwt>
</event>
<event>
 4    1  0.4067306E+000  0.1742608E+03  0.7546771E-02  0.1173476E+00
         21   -1    0    0  503  502  0.00000000000E+00  0.00000000000E+00  0.10677329756E+03  0.10677329756E+03  0.00000000000E+00 0.  1.
         21   -1    0    0  501  503 -0.00000000000E+00 -0.00000000000E+00 -0.30260754093E+03  0.30260754093E+03  0.00000000000E+00 0.  1.
          6    1    1    2  501    0 -0.20840696585E+02  0.18643473784E+01 -0.14812006212E+03  0.22870584433E+03  0.17300000000E+03 0. -1.
         -6    1    1    2    0  502  0.20840696585E+02 -0.18643473784E+01 -0.47714181244E+02  0.18067499417E+03  0.17300000000E+03 0. -1.
<mgrwt>
<rscale>  2 0.17426075E+03</rscale>
<asrwt>0</asrwt>
<pdfrwt beam="1">  1       21 0.16426662E-01 0.17426075E+03</pdfrwt>
<pdfrwt beam="2">  1       21 0.46555005E-01 0.17426075E+03</pdfrwt>
<totfact> 0.14770788E+05</totfact>
</mgrwt>
</event>
<event>
 4    1  0.4067306E+000  0.1814230E+03  0.7546771E-02  0.1166433E+00
         21   -1    0    0  503  502  0.00000000000E+00  0.00000000000E+00  0.21149418276E+03  0.21149418276E+03  0.00000000000E+00 0.  1.
         21   -1    0    0  501  503 -0.00000000000E+00 -0.00000000000E+00 -0.27692077910E+03  0.27692077910E+03  0.00000000000E+00 0.  1.
          6    1    1    2  501    0  0.22382250835E+02 -0.49843142887E+02 -0.19433497869E+03  0.26585783417E+03  0.17300000000E+03 0.  1.
         -6    1    1    2    0  502 -0.22382250835E+02  0.49843142887E+02  0.12890838235E+03  0.22255712769E+03  0.17300000000E+03 0.  1.
<mgrwt>
<rscale>  2 0.18142300E+03</rscale>
<asrwt>0</asrwt>
<pdfrwt beam="1">  1       21 0.32537567E-01 0.18142300E+03</pdfrwt>
<pdfrwt beam="2">  1       21 0.42603197E-01 0.18142300E+03</pdfrwt>
<totfact> 0.48433000E+04</totfact>
</mgrwt>
</event>
<event>
 4    1  0.4067306E+000  0.1844935E+03  0.7546771E-02  0.1163524E+00
         21   -1    0    0  501  502  0.00000000000E+00  0.00000000000E+00  0.44863597507E+03  0.44863597507E+03  0.00000000000E+00 0.  1.
         21   -1    0    0  502  503 -0.00000000000E+00 -0.00000000000E+00 -0.19359850916E+03  0.19359850916E+03  0.00000000000E+00 0.  1.
          6    1    1    2  501    0 -0.64084305264E+02 -0.14270655728E+01  0.37793017532E+03  0.42055802467E+03  0.17300000000E+03 0.  1.
         -6    1    1    2    0  503  0.64084305264E+02  0.14270655728E+01 -0.12289270941E+03  0.22167645956E+03  0.17300000000E+03 0.  1.
<mgrwt>
<rscale>  2 0.18449345E+03</rscale>
<asrwt>0</asrwt>
<pdfrwt beam="1">  1       21 0.69020919E-01 0.18449345E+03</pdfrwt>
<pdfrwt beam="2">  1       21 0.29784386E-01 0.18449345E+03</pdfrwt>
<totfact> 0.20755160E+04</totfact>
</mgrwt>
</event>
<event>
 4    1  0.4067306E+000  0.2376367E+03  0.7546771E-02  0.1121377E+00
         21   -1    0    0  501  502  0.00000000000E+00  0.00000000000E+00  0.57010544378E+03  0.57010544378E+03  0.00000000000E+00 0. -1.
         21   -1    0    0  502  503 -0.00000000000E+00 -0.00000000000E+00 -0.12425004636E+03  0.12425004636E+03  0.00000000000E+00 0.  1.
          6    1    1    2  501    0 -0.82996521033E+02 -0.14019188550E+03  0.37926779050E+03  0.44756591042E+03  0.17300000000E+03 0. -1.
         -6    1    1    2    0  503  0.82996521033E+02  0.14019188550E+03  0.66587606925E+02  0.24678957972E+03  0.17300000000E+03 0.  1.
<mgrwt>
<rscale>  2 0.23763667E+03</rscale>
<asrwt>0</asrwt>
<pdfrwt beam="1">  1       21 0.87708528E-01 0.23763667E+03</pdfrwt>
<pdfrwt beam="2">  1       21 0.19115392E-01 0.23763667E+03</pdfrwt>
<totfact> 0.27333493E+04</totfact>
</mgrwt>
</event>
<event>
 4    1  0.4067306E+000  0.2471059E+03  0.7546771E-02  0.1115148E+00
         21   -1    0    0  501  502  0.00000000000E+00  0.00000000000E+00  0.25828030493E+04  0.25828030493E+04  0.00000000000E+00 0.  1.
         21   -1    0    0  502  503 -0.00000000000E+00 -0.00000000000E+00 -0.29648518387E+02  0.29648518387E+02  0.00000000000E+00 0. -1.
          6    1    1    2  501    0 -0.16793017617E+03 -0.54146122958E+02  0.68861951804E+03  0.73161341385E+03  0.17300000000E+03 0.  1.
         -6    1    1    2    0  503  0.16793017617E+03  0.54146122958E+02  0.18645350128E+04  0.18808381538E+04  0.17300000000E+03 0.  1.
<mgrwt>
<rscale>  2 0.24710594E+03</rscale>
<asrwt>0</asrwt>
<pdfrwt beam="1">  1       21 0.39735414E+00 0.24710594E+03</pdfrwt>
<pdfrwt beam="2">  1       21 0.45613126E-02 0.24710594E+03</pdfrwt>
<totfact> 0.26545817E+03</totfact>
</mgrwt>
</event>
<event>
 4    1  0.4067306E+000  0.1856733E+03  0.7546771E-02  0.1162423E+00
         21   -1    0    0  503  502  0.00000000000E+00  0.00000000000E+00  0.66952412549E+02  0.66952412549E+02  0.00000000000E+00 0.  1.
         21   -1    0    0  501  503 -0.00000000000E+00 -0.00000000000E+00 -0.94488260571E+03  0.94488260571E+03  0.00000000000E+00 0.  1.
          6    1    1    2  501    0 -0.39097334717E+02  0.54927025294E+02 -0.78024469290E+03  0.80203264303E+03  0.17300000000E+03 0.  1.
         -6    1    1    2    0  502  0.39097334717E+02 -0.54927025294E+02 -0.97685500261E+02  0.20980237523E+03  0.17300000000E+03 0.  1.
<mgrwt>
<rscale>  2 0.18567331E+03</rscale>
<asrwt>0</asrwt>
<pdfrwt beam="1">  1       21 0.10300372E-01 0.18567331E+03</pdfrwt>
<pdfrwt beam="2">  1       21 0.14536654E+00 0.18567331E+03</pdfrwt>
<totfact> 0.25101869E+04</totfact>
</mgrwt>
</event>
<event>
 4    1  0.4067306E+000  0.1743190E+03  0.7546771E-02  0.1173417E+00
         21   -1    0    0  501  502  0.00000000000E+00  0.00000000000E+00  0.52338091747E+02  0.52338091747E+02  0.00000000000E+00 0. -1.
         21   -1    0    0  502  503 -0.00000000000E+00 -0.00000000000E+00 -0.10691481705E+04  0.10691481705E+04  0.00000000000E+00 0. -1.
          6    1    1    2  501    0  0.12898402380E+02  0.17080277238E+02 -0.12935021064E+03  0.21706814978E+03  0.17300000000E+03 0. -1.
         -6    1    1    2    0  503 -0.12898402380E+02 -0.17080277238E+02 -0.88745986809E+03  0.90441811245E+03  0.17300000000E+03 0. -1.
<mgrwt>
<rscale>  2 0.17431897E+03</rscale>
<asrwt>0</asrwt>
<pdfrwt beam="1">  1       21 0.80520139E-02 0.17431897E+03</pdfrwt>
<pdfrwt beam="2">  1       21 0.16448434E+00 0.17431897E+03</pdfrwt>
<totfact> 0.28051255E+04</totfact>
</mgrwt>
</event>
<event>
 4    1  0.4067306E+000  0.1749677E+03  0.7546771E-02  0.1172764E+00
         21   -1    0    0  503  502  0.00000000000E+00  0.00000000000E+00  0.13526714114E+03  0.13526714114E+03  0.00000000000E+00 0.  1.
         21   -1    0    0  501  503 -0.00000000000E+00 -0.00000000000E+00 -0.24413306002E+03  0.24413306002E+03  0.00000000000E+00 0.  1.
          6    1    1    2  501    0  0.56882272832E+01  0.25540789091E+02 -0.10567435686E+03  0.20440341860E+03  0.17300000000E+03 0.  1.
         -6    1    1    2    0  502 -0.56882272832E+01 -0.25540789091E+02 -0.31915620224E+01  0.17499678256E+03  0.17300000000E+03 0.  1.
<mgrwt>
<rscale>  2 0.17496768E+03</rscale>
<asrwt>0</asrwt>
<pdfrwt beam="1">  1       21 0.20810330E-01 0.17496768E+03</pdfrwt>
<pdfrwt beam="2">  1       21 0.37558932E-01 0.17496768E+03</pdfrwt>
<totfact> 0.14735773E+05</totfact>
</mgrwt>
</event>
<event>
 4    1  0.4067306E+000  0.1894608E+03  0.7546771E-02  0.1158949E+00
         21   -1    0    0  501  502  0.00000000000E+00  0.00000000000E+00  0.10744958809E+03  0.10744958809E+03  0.00000000000E+00 0.  1.
         21   -1    0    0  502  503 -0.00000000000E+00 -0.00000000000E+00 -0.44220741675E+03  0.44220741675E+03  0.00000000000E+00 0.  1.
          6    1    1    2  501    0 -0.59339397578E+02 -0.49449290707E+02 -0.31471820077E+02  0.19205694967E+03  0.17300000000E+03 0.  1.
         -6    1    1    2    0  503  0.59339397578E+02  0.49449290707E+02 -0.30328600859E+03  0.35760005518E+03  0.17300000000E+03 0.  1.
<mgrwt>
<rscale>  2 0.18946080E+03</rscale>
<asrwt>0</asrwt>
<pdfrwt beam="1">  1       21 0.16530706E-01 0.18946080E+03</pdfrwt>
<pdfrwt beam="2">  1       21 0.68031910E-01 0.18946080E+03</pdfrwt>
<totfact> 0.64888325E+04</totfact>
</mgrwt>
</event>
<event>
 4    1  0.4067306E+000  0.2250057E+03  0.7546771E-02  0.1130205E+00
         21   -1    0    0  503  502  0.00000000000E+00  0.00000000000E+00  0.45493353845E+03  0.45493353845E+03  0.00000000000E+00 0. -1.
         21   -1    0    0  501  503 -0.00000000000E+00 -0.00000000000E+00 -0.13153070721E+03  0.13153070721E+03  0.00000000000E+00 0.  1.
          6    1    1    2  501    0 -0.13002365959E+03  0.61582465905E+02  0.46658998365E+02  0.22979254620E+03  0.17300000000E+03 0.  1.
         -6    1    1    2    0  502  0.13002365959E+03 -0.61582465905E+02  0.27674383288E+03  0.35667169946E+03  0.17300000000E+03 0. -1.
<mgrwt>
<rscale>  2 0.22500567E+03</rscale>
<asrwt>0</asrwt>
<pdfrwt beam="1">  1       21 0.69989775E-01 0.22500567E+03</pdfrwt>
<pdfrwt beam="2">  1       21 0.20235494E-01 0.22500567E+03</pdfrwt>
<totfact> 0.41190236E+04</totfact>
</mgrwt>
</event>
<event>
 4    1  0.4067306E+000  0.1899760E+03  0.7546771E-02  0.1158483E+00
         21   -1    0    0  501  502  0.00000000000E+00  0.00000000000E+00  0.51575385272E+03  0.51575385272E+03  0.00000000000E+00 0. -1.
         21   -1    0    0  502  503 -0.00000000000E+00 -0.00000000000E+00 -0.81380800878E+02  0.81380800878E+02  0.00000000000E+00 0. -1.
          6    1    1    2  501    0  0.35587628245E+02  0.69967088856E+02  0.32895192884E+03  0.37986871982E+03  0.17300000000E+03 0. -1.
         -6    1    1    2    0  503 -0.35587628245E+02 -0.69967088856E+02  0.10542112300E+03  0.21726593378E+03  0.17300000000E+03 0. -1.
<mgrwt>
<rscale>  2 0.18997598E+03</rscale>
<asrwt>0</asrwt>
<pdfrwt beam="1">  1       21 0.79346744E-01 0.18997598E+03</pdfrwt>
<pdfrwt beam="2">  1       21 0.12520124E-01 0.18997598E+03</pdfrwt>
<totfact> 0.76286743E+04</totfact>
</mgrwt>
</event>
<event>
 4    1  0.4067306E+000  0.1991411E+03  0.7546771E-02  0.1150466E+00
         21   -1    0    0  503  502  0.00000000000E+00  0.00000000000E+00  0.29938198568E+03  0.29938198568E+03  0.00000000000E+00 0. -1.
         21   -1    0    0  501  503 -0.00000000000E+00 -0.00000000000E+00 -0.13455267085E+03  0.13455267085E+03  0.00000000000E+00 0. -1.
          6    1    1    2  501    0 -0.17127071065E+02  0.97133171090E+02  0.55379193329E+02  0.20669795486E+03  0.17300000000E+03 0.  1.
         -6    1    1    2    0  502  0.17127071065E+02 -0.97133171090E+02  0.10945012150E+03  0.22723670167E+03  0.17300000000E+03 0.  1.
<mgrwt>
<rscale>  2 0.19914113E+03</rscale>
<asrwt>0</asrwt>
<pdfrwt beam="1">  1       21 0.46058767E-01 0.19914113E+03</pdfrwt>
<pdfrwt beam="2">  1       21 0.20700411E-01 0.19914113E+03</pdfrwt>
<totfact> 0.97512390E+04</totfact>
</mgrwt>
</event>
<event>
 4    1  0.4067306E+000  0.1757877E+03  0.7546771E-02  0.1171943E+00
         21   -1    0    0  503  502  0.00000000000E+00  0.00000000000E+00  0.19137151137E+03  0.19137151137E+03  0.00000000000E+00 0.  1.
         21   -1    0    0  501  503 -0.00000000000E+00 -0.00000000000E+00 -0.23931417012E+03  0.23931417012E+03  0.00000000000E+00 0.  1.
          6    1    1    2  501    0 -0.14296978857E+02 -0.27711173756E+02 -0.14678626637E+03  0.22901423700E+03  0.17300000000E+03 0.  1.
         -6    1    1    2    0  502  0.14296978857E+02  0.27711173756E+02  0.98843607619E+02  0.20167144449E+03  0.17300000000E+03 0.  1.
<mgrwt>
<rscale>  2 0.17578769E+03</rscale>
<asrwt>0</asrwt>
<pdfrwt beam="1">  1       21 0.29441771E-01 0.17578769E+03</pdfrwt>
<pdfrwt beam="2">  1       21 0.36817564E-01 0.17578769E+03</pdfrwt>
<totfact> 0.79186891E+04</totfact>
</mgrwt>
</event>
<event>
 4    1  0.4067306E+000  0.2374986E+03  0.7546771E-02  0.1121470E+00
         21   -1    0    0  503  502  0.00000000000E+00  0.00000000000E+00  0.12369169015E+03  0.12369169015E+03  0.00000000000E+00 0. -1.
         21   -1    0    0  501  503 -0.00000000000E+00 -0.00000000000E+00 -0.46638090164E+03  0.46638090164E+03  0.00000000000E+00 0.  1.
          6    1    1    2  501    0 -0.12716573445E+03 -0.10151576895E+03 -0.21532470698E+03  0.32057807910E+03  0.17300000000E+03 0.  1.
         -6    1    1    2    0  502  0.12716573445E+03  0.10151576895E+03 -0.12736450450E+03  0.26949451269E+03  0.17300000000E+03 0. -1.
<mgrwt>
<rscale>  2 0.23749858E+03</rscale>
<asrwt>0</asrwt>
<pdfrwt beam="1">  1       21 0.19029491E-01 0.23749858E+03</pdfrwt>
<pdfrwt beam="2">  1       21 0.71750907E-01 0.23749858E+03</pdfrwt>
<totfact> 0.43487594E+04</totfact>
</mgrwt>
</event>
<event>
 4    1  0.4067306E+000  0.2162290E+03  0.7546771E-02  0.1136726E+00
         21   -1    0    0  503  502  0.00000000000E+00  0.00000000000E+00  0.42495775241E+02  0.42495775241E+02  0.00000000000E+00 0. -1.
         21   -1    0    0  501  503 -0.00000000000E+00 -0.00000000000E+00 -0.11021151403E+04  0.11021151403E+04  0.00000000000E+00 0. -1.
          6    1    1    2  501    0 -0.12960196158E+03  0.54156906149E+01 -0.55349802418E+03  0.59423485334E+03  0.17300000000E+03 0. -1.
         -6    1    1    2    0  502  0.12960196158E+03 -0.54156906149E+01 -0.50612134083E+03  0.55037606216E+03  0.17300000000E+03 0. -1.
<mgrwt>
<rscale>  2 0.21622904E+03</rscale>
<asrwt>0</asrwt>
<pdfrwt beam="1">  1       21 0.65378112E-02 0.21622904E+03</pdfrwt>
<pdfrwt beam="2">  1       21 0.16955618E+00 0.21622904E+03</pdfrwt>
<totfact> 0.36040871E+04</totfact>
</mgrwt>
</event>
<event>
 4    1  0.4067306E+000  0.1795982E+03  0.7546771E-02  0.1168192E+00
         21   -1    0    0  501  502  0.00000000000E+00  0.00000000000E+00  0.14313951051E+03  0.14313951051E+03  0.00000000000E+00 0. -1.
         21   -1    0    0  502  503 -0.00000000000E+00 -0.00000000000E+00 -0.25243729305E+03  0.25243729305E+03  0.00000000000E+00 0. -1.
          6    1    1    2  501    0  0.48232737820E+02  0.33417024413E+00  0.10149130422E+02  0.17988472285E+03  0.17300000000E+03 0. -1.
         -6    1    1    2    0  503 -0.48232737820E+02 -0.33417024413E+00 -0.11944691296E+03  0.21569208071E+03  0.17300000000E+03 0. -1.
<mgrwt>
<rscale>  2 0.17959819E+03</rscale>
<asrwt>0</asrwt>
<pdfrwt beam="1">  1       21 0.22021463E-01 0.17959819E+03</pdfrwt>
<pdfrwt beam="2">  1       21 0.38836506E-01 0.17959819E+03</pdfrwt>
<totfact> 0.12373547E+05</totfact>
</mgrwt>
</event>
<event>
 4    1  0.4067306E+000  0.1892182E+03  0.7546771E-02  0.1159168E+00
         21   -1    0    0  503  502  0.00000000000E+00  0.00000000000E+00  0.22680762074E+03  0.22680762074E+03  0.00000000000E+00 0. -1.
         21   -1    0    0  501  503 -0.00000000000E+00 -0.00000000000E+00 -0.18981561267E+03  0.18981561267E+03  0.00000000000E+00 0.  1.
          6    1    1    2  501    0 -0.35315818760E+02 -0.68024335327E+02 -0.66977419121E+02  0.20072242506E+03  0.17300000000E+03 0.  1.
         -6    1    1    2    0  502  0.35315818760E+02  0.68024335327E+02  0.10396942719E+03  0.21590080834E+03  0.17300000000E+03 0. -1.
<mgrwt>
<rscale>  2 0.18921817E+03</rscale>
<asrwt>0</asrwt>
<pdfrwt beam="1">  1       21 0.34893480E-01 0.18921817E+03</pdfrwt>
<pdfrwt beam="2">  1       21 0.29202402E-01 0.18921817E+03</pdfrwt>
<totfact> 0.89029405E+04</totfact>
</mgrwt>
</event>
<event>
 4    1  0.4067306E+000  0.1957674E+03  0.7546771E-02  0.1153360E+00
         21   -1    0    0  503  502  0.00000000000E+00  0.00000000000E+00  0.87652225924E+02  0.87652225924E+02  0.00000000000E+00 0. -1.
         21   -1    0    0  501  503 -0.00000000000E+00 -0.00000000000E+00 -0.45927916439E+03  0.45927916439E+03  0.00000000000E+00 0. -1.
          6    1    1    2  501    0 -0.91232478296E+02 -0.85141618940E+01 -0.24572147819E+03  0.31417176973E+03  0.17300000000E+03 0. -1.
         -6    1    1    2    0  502  0.91232478296E+02  0.85141618940E+01 -0.12590546028E+03  0.23275962059E+03  0.17300000000E+03 0. -1.
<mgrwt>
<rscale>  2 0.19576735E+03</rscale>
<asrwt>0</asrwt>
<pdfrwt beam="1">  1       21 0.13484958E-01 0.19576735E+03</pdfrwt>
<pdfrwt beam="2">  1       21 0.70658332E-01 0.19576735E+03</pdfrwt>
<totfact> 0.86250701E+04</totfact>
</mgrwt>
</event>
<event>
 4    1  0.4067306E+000  0.2391925E+03  0.7546771E-02  0.1120332E+00
         21   -1    0    0  501  502  0.00000000000E+00  0.00000000000E+00  0.13731353737E+03  0.13731353737E+03  0.00000000000E+00 0.  1.
         21   -1    0    0  502  503 -0.00000000000E+00 -0.00000000000E+00 -0.42879623554E+03  0.42879623554E+03  0.00000000000E+00 0.  1.
          6    1    1    2  501    0 -0.15174791645E+03 -0.65242918362E+02 -0.98121736066E+02  0.25853615537E+03  0.17300000000E+03 0.  1.
         -6    1    1    2    0  503  0.15174791645E+03  0.65242918362E+02 -0.19336096210E+03  0.30757361754E+03  0.17300000000E+03 0.  1.
<mgrwt>
<rscale>  2 0.23919253E+03</rscale>
<asrwt>0</asrwt>
<pdfrwt beam="1">  1       21 0.21125160E-01 0.23919253E+03</pdfrwt>
<pdfrwt beam="2">  1       21 0.65968651E-01 0.23919253E+03</pdfrwt>
<totfact> 0.43003698E+04</totfact>
</mgrwt>
</event>
<event>
 4    1  0.4067306E+000  0.1925747E+03  0.7546771E-02  0.1156159E+00
         21   -1    0    0  503  502  0.00000000000E+00  0.00000000000E+00  0.36070899883E+02  0.36070899883E+02  0.00000000000E+00 0.  1.
         21   -1    0    0  501  503 -0.00000000000E+00 -0.00000000000E+00 -0.12096068644E+04  0.12096068644E+04  0.00000000000E+00 0.  1.
          6    1    1    2  501    0  0.84442443601E+02 -0.50472608155E+01 -0.34550913896E+03  0.39555222946E+03  0.17300000000E+03 0.  1.
         -6    1    1    2    0  502 -0.84442443601E+02  0.50472608155E+01 -0.82802682553E+03  0.85012553480E+03  0.17300000000E+03 0.  1.
<mgrwt>
<rscale>  2 0.19257466E+03</rscale>
<asrwt>0</asrwt>
<pdfrwt beam="1">  1       21 0.55493694E-02 0.19257466E+03</pdfrwt>
<pdfrwt beam="2">  1       21 0.18609336E+00 0.19257466E+03</pdfrwt>
<totfact> 0.37302814E+04</totfact>
</mgrwt>
</event>
<event>
 4    1  0.4067306E+000  0.1820884E+03  0.7546771E-02  0.1165797E+00
         21   -1    0    0  501  502  0.00000000000E+00  0.00000000000E+00  0.23647271580E+04  0.23647271580E+04  0.00000000000E+00 0.  1.
         21   -1    0    0  502  503 -0.00000000000E+00 -0.00000000000E+00 -0.14090679576E+02  0.14090679576E+02  0.00000000000E+00 0.  1.
          6    1    1    2  501    0 -0.56723073106E+02 -0.31134261634E+01  0.10917691436E+04  0.11068496119E+04  0.17300000000E+03 0.  1.
         -6    1    1    2    0  503  0.56723073106E+02  0.31134261634E+01  0.12588673348E+04  0.12719682257E+04  0.17300000000E+03 0.  1.
<mgrwt>
<rscale>  2 0.18208844E+03</rscale>
<asrwt>0</asrwt>
<pdfrwt beam="1">  1       21 0.36380386E+00 0.18208844E+03</pdfrwt>
<pdfrwt beam="2">  1       21 0.21677987E-02 0.18208844E+03</pdfrwt>
<totfact> 0.15829113E+04</totfact>
</mgrwt>
</event>
<event>
 4    1  0.4067306E+000  0.1825010E+03  0.7546771E-02  0.1165404E+00
         21   -1    0    0  503  502  0.00000000000E+00  0.00000000000E+00  0.23344153379E+03  0.23344153379E+03  0.00000000000E+00 0. -1.
         21   -1    0    0  501  503 -0.00000000000E+00 -0.00000000000E+00 -0.14385649817E+03  0.14385649817E+03  0.00000000000E+00 0. -1.
          6    1    1    2  501    0  0.17638312989E+00 -0.58116845696E+02  0.27706222280E+02  0.18459207355E+03  0.17300000000E+03 0. -1.
         -6    1    1    2    0  502 -0.17638312989E+00  0.58116845696E+02  0.61878813339E+02  0.19270595841E+03  0.17300000000E+03 0. -1.
<mgrwt>
<rscale>  2 0.18250096E+03</rscale>
<asrwt>0</asrwt>
<pdfrwt beam="1">  1       21 0.35914082E-01 0.18250096E+03</pdfrwt>
<pdfrwt beam="2">  1       21 0.22131769E-01 0.18250096E+03</pdfrwt>
<totfact> 0.14317234E+05</totfact>
</mgrwt>
</event>
<event>
 4    1  0.4067306E+000  0.2310071E+03  0.7546771E-02  0.1125933E+00
         21   -1    0    0  503  502  0.00000000000E+00  0.00000000000E+00  0.11917705421E+03  0.11917705421E+03  0.00000000000E+00 0. -1.
         21   -1    0    0  501  503 -0.00000000000E+00 -0.00000000000E+00 -0.45000673962E+03  0.45000673962E+03  0.00000000000E+00 0. -1.
          6    1    1    2  501    0  0.14117811646E+02 -0.15243350268E+03 -0.14536484136E+03  0.27293812934E+03  0.17300000000E+03 0. -1.
         -6    1    1    2    0  502 -0.14117811646E+02  0.15243350268E+03 -0.18546484406E+03  0.29624566449E+03  0.17300000000E+03 0. -1.
<mgrwt>
<rscale>  2 0.23100711E+03</rscale>
<asrwt>0</asrwt>
<pdfrwt beam="1">  1       21 0.18334932E-01 0.23100711E+03</pdfrwt>
<pdfrwt beam="2">  1       21 0.69231805E-01 0.23100711E+03</pdfrwt>
<totfact> 0.50597232E+04</totfact>
</mgrwt>
</event>
<event>
 4    1  0.4067306E+000  0.3242779E+03  0.7546771E-02  0.1073697E+00
         21   -1    0    0  501  502  0.00000000000E+00  0.00000000000E+00  0.65660685814E+02  0.65660685814E+02  0.00000000000E+00 0. -1.
         21   -1    0    0  502  503 -0.00000000000E+00 -0.00000000000E+00 -0.20196856571E+04  0.20196856571E+04  0.00000000000E+00 0. -1.
          6    1    1    2  501    0 -0.27419937659E+03 -0.64675004631E+01 -0.50256667345E+03  0.59810483023E+03  0.17300000000E+03 0. -1.
         -6    1    1    2    0  503  0.27419937659E+03  0.64675004631E+01 -0.14514582979E+04  0.14872415127E+04  0.17300000000E+03 0. -1.
<mgrwt>
<rscale>  2 0.32427785E+03</rscale>
<asrwt>0</asrwt>
<pdfrwt beam="1">  1       21 0.10101643E-01 0.32427785E+03</pdfrwt>
<pdfrwt beam="2">  1       21 0.31072089E+00 0.32427785E+03</pdfrwt>
<totfact> 0.20767602E+03</totfact>
</mgrwt>
</event>
<event>
 4    1  0.4067306E+000  0.1977702E+03  0.7546771E-02  0.1151634E+00
         21   -1    0    0  503  502  0.00000000000E+00  0.00000000000E+00  0.41649209188E+03  0.41649209188E+03  0.00000000000E+00 0. -1.
         21   -1    0    0  501  503 -0.00000000000E+00 -0.00000000000E+00 -0.94655621993E+02  0.94655621993E+02  0.00000000000E+00 0. -1.
          6    1    1    2  501    0 -0.95727423488E+02 -0.45066996504E+01  0.18359120307E+03  0.26984955030E+03  0.17300000000E+03 0. -1.
         -6    1    1    2    0  502  0.95727423488E+02  0.45066996504E+01  0.13824526682E+03  0.24129816358E+03  0.17300000000E+03 0. -1.
<mgrwt>
<rscale>  2 0.19777019E+03</rscale>
<asrwt>0</asrwt>
<pdfrwt beam="1">  1       21 0.64075706E-01 0.19777019E+03</pdfrwt>
<pdfrwt beam="2">  1       21 0.14562404E-01 0.19777019E+03</pdfrwt>
<totfact> 0.92883042E+04</totfact>
</mgrwt>
</event>
<event>
 4    1  0.4067306E+000  0.1798088E+03  0.7546771E-02  0.1167988E+00
         21   -1    0    0  503  502  0.00000000000E+00  0.00000000000E+00  0.35238534515E+04  0.35238534515E+04  0.00000000000E+00 0. -1.
         21   -1    0    0  501  503 -0.00000000000E+00 -0.00000000000E+00 -0.20870521494E+02  0.20870521494E+02  0.00000000000E+00 0. -1.
          6    1    1    2  501    0  0.46016206319E+02  0.16873012823E+02  0.42471901624E+03  0.46121300129E+03  0.17300000000E+03 0. -1.
         -6    1    1    2    0  502 -0.46016206319E+02 -0.16873012823E+02  0.30782639138E+04  0.30835109717E+04  0.17300000000E+03 0. -1.
<mgrwt>
<rscale>  2 0.17980876E+03</rscale>
<asrwt>0</asrwt>
<pdfrwt beam="1">  1       21 0.54213083E+00 0.17980876E+03</pdfrwt>
<pdfrwt beam="2">  1       21 0.32108523E-02 0.17980876E+03</pdfrwt>
<totfact> 0.54314420E+02</totfact>
</mgrwt>
</event>
<event>
 4    1  0.4067306E+000  0.2173587E+03  0.7546771E-02  0.1135868E+00
         21   -1    0    0  501  502  0.00000000000E+00  0.00000000000E+00  0.31514773725E+03  0.31514773725E+03  0.00000000000E+00 0. -1.
         21   -1    0    0  502  503 -0.00000000000E+00 -0.00000000000E+00 -0.16277502466E+03  0.16277502466E+03  0.00000000000E+00 0.  1.
          6    1    1    2  501    0 -0.12056685684E+03  0.52720242172E+02  0.14335799182E+03  0.26037723542E+03  0.17300000000E+03 0. -1.
         -6    1    1    2    0  503  0.12056685684E+03 -0.52720242172E+02  0.90147207678E+01  0.21754552649E+03  0.17300000000E+03 0.  1.
<mgrwt>
<rscale>  2 0.21735867E+03</rscale>
<asrwt>0</asrwt>
<pdfrwt beam="1">  1       21 0.48484267E-01 0.21735867E+03</pdfrwt>
<pdfrwt beam="2">  1       21 0.25042312E-01 0.21735867E+03</pdfrwt>
<totfact> 0.60649952E+04</totfact>
</mgrwt>
</event>
<event>
 4    1  0.4067306E+000  0.1779077E+03  0.7546771E-02  0.1169844E+00
         21   -1    0    0  503  502  0.00000000000E+00  0.00000000000E+00  0.35709659099E+02  0.35709659099E+02  0.00000000000E+00 0. -1.
         21   -1    0    0  501  503 -0.00000000000E+00 -0.00000000000E+00 -0.10993093210E+04  0.10993093210E+04  0.00000000000E+00 0. -1.
          6    1    1    2  501    0  0.31540722443E+02 -0.26968873675E+02 -0.28201566853E+03  0.33344261068E+03  0.17300000000E+03 0. -1.
         -6    1    1    2    0  502 -0.31540722443E+02  0.26968873675E+02 -0.78158399340E+03  0.80157636945E+03  0.17300000000E+03 0. -1.
<mgrwt>
<rscale>  2 0.17790767E+03</rscale>
<asrwt>0</asrwt>
<pdfrwt beam="1">  1       21 0.54937941E-02 0.17790767E+03</pdfrwt>
<pdfrwt beam="2">  1       21 0.16912450E+00 0.17790767E+03</pdfrwt>
<totfact> 0.50046389E+04</totfact>
</mgrwt>
</event>
<event>
 4    1  0.4067306E+000  0.1986355E+03  0.7546771E-02  0.1150895E+00
         21   -1    0    0  503  502  0.00000000000E+00  0.00000000000E+00  0.28240499879E+02  0.28240499879E+02  0.00000000000E+00 0.  1.
         21   -1    0    0  501  503 -0.00000000000E+00 -0.00000000000E+00 -0.19468092693E+04  0.19468092693E+04  0.00000000000E+00 0.  1.
          6    1    1    2  501    0  0.26372314809E+02  0.93976290437E+02 -0.14840139482E+04  0.14972486235E+04  0.17300000000E+03 0.  1.
         -6    1    1    2    0  502 -0.26372314809E+02 -0.93976290437E+02 -0.43455482119E+03  0.47780114564E+03  0.17300000000E+03 0.  1.
<mgrwt>
<rscale>  2 0.19863545E+03</rscale>
<asrwt>0</asrwt>
<pdfrwt beam="1">  1       21 0.43446929E-02 0.19863545E+03</pdfrwt>
<pdfrwt beam="2">  1       21 0.29950908E+00 0.19863545E+03</pdfrwt>
<totfact> 0.11644675E+04</totfact>
</mgrwt>
</event>
<event>
 4    1  0.4067306E+000  0.2162990E+03  0.7546771E-02  0.1136673E+00
         21   -1    0    0  503  502  0.00000000000E+00  0.00000000000E+00  0.51993774519E+03  0.51993774519E+03  0.00000000000E+00 0. -1.
         21   -1    0    0  501  503 -0.00000000000E+00 -0.00000000000E+00 -0.13868559627E+03  0.13868559627E+03  0.00000000000E+00 0. -1.
          6    1    1    2  501    0 -0.99990072456E+02  0.82814607799E+02 -0.45245465671E+01  0.21634635513E+03  0.17300000000E+03 0. -1.
         -6    1    1    2    0  502  0.99990072456E+02 -0.82814607799E+02  0.38577669549E+03  0.44227698633E+03  0.17300000000E+03 0. -1.
<mgrwt>
<rscale>  2 0.21629904E+03</rscale>
<asrwt>0</asrwt>
<pdfrwt beam="1">  1       21 0.79990421E-01 0.21629904E+03</pdfrwt>
<pdfrwt beam="2">  1       21 0.21336246E-01 0.21629904E+03</pdfrwt>
<totfact> 0.27764078E+04</totfact>
</mgrwt>
</event>
<event>
 4    1  0.4067306E+000  0.2266357E+03  0.7546771E-02  0.1129030E+00
         21   -1    0    0  501  502  0.00000000000E+00  0.00000000000E+00  0.23026008730E+04  0.23026008730E+04  0.00000000000E+00 0. -1.
         21   -1    0    0  502  503 -0.00000000000E+00 -0.00000000000E+00 -0.36002415220E+02  0.36002415220E+02  0.00000000000E+00 0.  1.
          6    1    1    2  501    0 -0.55085537527E+02  0.13564777930E+03  0.18544913424E+04  0.18682884883E+04  0.17300000000E+03 0. -1.
         -6    1    1    2    0  503  0.55085537527E+02 -0.13564777930E+03  0.41210711534E+03  0.47031479988E+03  0.17300000000E+03 0.  1.
<mgrwt>
<rscale>  2 0.22663569E+03</rscale>
<asrwt>0</asrwt>
<pdfrwt beam="1">  1       21 0.35424617E+00 0.22663569E+03</pdfrwt>
<pdfrwt beam="2">  1       21 0.55388349E-02 0.22663569E+03</pdfrwt>
<totfact> 0.35782462E+03</totfact>
</mgrwt>
</event>
<event>
 4    1  0.4067306E+000  0.2120412E+03  0.7546771E-02  0.1139960E+00
         21   -1    0    0  501  502  0.00000000000E+00  0.00000000000E+00  0.28323105035E+03  0.28323105035E+03  0.00000000000E+00 0.  1.
         21   -1    0    0  502  503 -0.00000000000E+00 -0.00000000000E+00 -0.15900405829E+03  0.15900405829E+03  0.00000000000E+00 0.  1.
          6    1    1    2  501    0  0.62201423575E+02  0.10565723603E+03  0.71041398383E+02  0.22362546569E+03  0.17300000000E+03 0.  1.
         -6    1    1    2    0  503 -0.62201423575E+02 -0.10565723603E+03  0.53185593673E+02  0.21860964296E+03  0.17300000000E+03 0.  1.
<mgrwt>
<rscale>  2 0.21204120E+03</rscale>
<asrwt>0</asrwt>
<pdfrwt beam="1">  1       21 0.43574008E-01 0.21204120E+03</pdfrwt>
<pdfrwt beam="2">  1       21 0.24462163E-01 0.21204120E+03</pdfrwt>
<totfact> 0.79259415E+04</totfact>
</mgrwt>
</event>
<event>
 4    1  0.4067306E+000  0.1847404E+03  0.7546771E-02  0.1163293E+00
         21   -1    0    0  503  502  0.00000000000E+00  0.00000000000E+00  0.37333538762E+02  0.37333538762E+02  0.00000000000E+00 0.  1.
         21   -1    0    0  501  503 -0.00000000000E+00 -0.00000000000E+00 -0.96761216769E+03  0.96761216769E+03  0.00000000000E+00 0.  1.
          6    1    1    2  501    0 -0.59561325867E+02  0.25543377867E+02 -0.34704631405E+03  0.39315411709E+03  0.17300000000E+03 0.  1.
         -6    1    1    2    0  502  0.59561325867E+02 -0.25543377867E+02 -0.58323231488E+03  0.61179158936E+03  0.17300000000E+03 0.  1.
<mgrwt>
<rscale>  2 0.18474040E+03</rscale>
<asrwt>0</asrwt>
<pdfrwt beam="1">  1       21 0.57436208E-02 0.18474040E+03</pdfrwt>
<pdfrwt beam="2">  1       21 0.14886342E+00 0.18474040E+03</pdfrwt>
<totfact> 0.65057526E+04</totfact>
</mgrwt>
</event>
<event>
 4    1  0.4067306E+000  0.2013998E+03  0.7546771E-02  0.1148563E+00
         21   -1    0    0  503  502  0.00000000000E+00  0.00000000000E+00  0.73589821467E+03  0.73589821467E+03  0.00000000000E+00 0.  1.
         21   -1    0    0  501  503 -0.00000000000E+00 -0.00000000000E+00 -0.66212978030E+02  0.66212978030E+02  0.00000000000E+00 0. -1.
          6    1    1    2  501    0  0.47112014120E+02 -0.91724307127E+02  0.17067825504E+03  0.26399423694E+03  0.17300000000E+03 0.  1.
         -6    1    1    2    0  502 -0.47112014120E+02  0.91724307127E+02  0.49900698160E+03  0.53811695576E+03  0.17300000000E+03 0.  1.
<mgrwt>
<rscale>  2 0.20139983E+03</rscale>
<asrwt>0</asrwt>
<pdfrwt beam="1">  1       21 0.11321510E+00 0.20139983E+03</pdfrwt>
<pdfrwt beam="2">  1       21 0.10186613E-01 0.20139983E+03</pdfrwt>
<totfact> 0.47608093E+04</totfact>
</mgrwt>
</event>
<event>
 4    1  0.4067306E+000  0.1819815E+03  0.7546771E-02  0.1165899E+00
         21   -1    0    0  501  502  0.00000000000E+00  0.00000000000E+00  0.56903893617E+03  0.56903893617E+03  0.00000000000E+00 0. -1.
         21   -1    0    0  502  503 -0.00000000000E+00 -0.00000000000E+00 -0.62193623263E+02  0.62193623263E+02  0.00000000000E+00 0. -1.
          6    1    1    2  501    0 -0.49012744225E+02  0.28035799729E+02  0.33341482789E+03  0.37984562999E+03  0.17300000000E+03 0. -1.
         -6    1    1    2    0  503  0.49012744225E+02 -0.28035799729E+02  0.17343048502E+03  0.25138692944E+03  0.17300000000E+03 0. -1.
<mgrwt>
<rscale>  2 0.18198147E+03</rscale>
<asrwt>0</asrwt>
<pdfrwt beam="1">  1       21 0.87544448E-01 0.18198147E+03</pdfrwt>
<pdfrwt beam="2">  1       21 0.95682501E-02 0.18198147E+03</pdfrwt>
<totfact> 0.98647854E+04</totfact>
</mgrwt>
</event>
<event>
 4    1  0.4067306E+000  0.2719933E+03  0.7546771E-02  0.1100144E+00
         21   -1    0    0  503  502  0.00000000000E+00  0.00000000000E+00  0.16306265061E+04  0.16306265061E+04  0.00000000000E+00 0.  1.
         21   -1    0    0  501  503 -0.00000000000E+00 -0.00000000000E+00 -0.75936013242E+02  0.75936013242E+02  0.00000000000E+00 0.  1.
          6    1    1    2  501    0 -0.88870302847E+02 -0.19014047830E+03  0.23597684343E+03  0.36009082584E+03  0.17300000000E+03 0.  1.
         -6    1    1    2    0  502  0.88870302847E+02  0.19014047830E+03  0.13187136494E+04  0.13464716935E+04  0.17300000000E+03 0.  1.
<mgrwt>
<rscale>  2 0.27199326E+03</rscale>
<asrwt>0</asrwt>
<pdfrwt beam="1">  1       21 0.25086559E+00 0.27199326E+03</pdfrwt>
<pdfrwt beam="2">  1       21 0.11682465E-01 0.27199326E+03</pdfrwt>
<totfact> 0.37643561E+03</totfact>
</mgrwt>
</event>
<event>
 4    1  0.4067306E+000  0.1817457E+03  0.7546771E-02  0.1166124E+00
         21   -1    0    0  501  502  0.00000000000E+00  0.00000000000E+00  0.10789986681E+03  0.10789986681E+03  0.00000000000E+00 0. -1.
         21   -1    0    0  502  503 -0.00000000000E+00 -0.00000000000E+00 -0.34597367877E+03  0.34597367877E+03  0.00000000000E+00 0. -1.
          6    1    1    2  501    0 -0.17567988919E+02  0.52856975951E+02 -0.19604876533E+03  0.26733240082E+03  0.17300000000E+03 0. -1.
         -6    1    1    2    0  503  0.17567988919E+02 -0.52856975951E+02 -0.42025046634E+02  0.18654114475E+03  0.17300000000E+03 0. -1.
<mgrwt>
<rscale>  2 0.18174569E+03</rscale>
<asrwt>0</asrwt>
<pdfrwt beam="1">  1       21 0.16599979E-01 0.18174569E+03</pdfrwt>
<pdfrwt beam="2">  1       21 0.53226720E-01 0.18174569E+03</pdfrwt>
<totfact> 0.10937921E+05</totfact>
</mgrwt>
</event>
<event>
 4    1  0.4067306E+000  0.1950966E+03  0.7546771E-02  0.1153943E+00
         21   -1    0    0  501  502  0.00000000000E+00  0.00000000000E+00  0.65967919385E+03  0.65967919385E+03  0.00000000000E+00 0.  1.
         21   -1    0    0  502  503 -0.00000000000E+00 -0.00000000000E+00 -0.17888310560E+03  0.17888310560E+03  0.00000000000E+00 0.  1.
          6    1    1    2  501    0 -0.63263414033E+02 -0.64276146638E+02  0.58549720667E+03  0.61714638588E+03  0.17300000000E+03 0.  1.
         -6    1    1    2    0  503  0.63263414033E+02  0.64276146638E+02 -0.10470111842E+03  0.22141591357E+03  0.17300000000E+03 0.  1.
<mgrwt>
<rscale>  2 0.19509660E+03</rscale>
<asrwt>0</asrwt>
<pdfrwt beam="1">  1       21 0.10148911E+00 0.19509660E+03</pdfrwt>
<pdfrwt beam="2">  1       21 0.27520478E-01 0.19509660E+03</pdfrwt>
<totfact> 0.99670550E+03</totfact>
</mgrwt>
</event>
<event>
 4    1  0.4067306E+000  0.2194209E+03  0.7546771E-02  0.1134316E+00
         21   -1    0    0  501  502  0.00000000000E+00  0.00000000000E+00  0.36941943374E+03  0.36941943374E+03  0.00000000000E+00 0.  1.
         21   -1    0    0  502  503 -0.00000000000E+00 -0.00000000000E+00 -0.13087589435E+03  0.13087589435E+03  0.00000000000E+00 0.  1.
          6    1    1    2  501    0  0.13453463849E+03  0.10814525398E+02  0.13546377373E+03  0.25786809982E+03  0.17300000000E+03 0.  1.
         -6    1    1    2    0  503 -0.13453463849E+03 -0.10814525398E+02  0.10307976567E+03  0.24242722827E+03  0.17300000000E+03 0.  1.
<mgrwt>
<rscale>  2 0.21942088E+03</rscale>
<asrwt>0</asrwt>
<pdfrwt beam="1">  1       21 0.56833759E-01 0.21942088E+03</pdfrwt>
<pdfrwt beam="2">  1       21 0.20134753E-01 0.21942088E+03</pdfrwt>
<totfact> 0.65538368E+04</totfact>
</mgrwt>
</event>
<event>
 4    1  0.4067306E+000  0.1738290E+03  0.7546771E-02  0.1173913E+00
         21   -1    0    0  501  502  0.00000000000E+00  0.00000000000E+00  0.36650856935E+03  0.36650856935E+03  0.00000000000E+00 0.  1.
         21   -1    0    0  502  503 -0.00000000000E+00 -0.00000000000E+00 -0.16392931011E+03  0.16392931011E+03  0.00000000000E+00 0.  1.
          6    1    1    2  501    0 -0.17206327071E+01  0.16868903352E+02  0.28827828152E+03  0.33663168014E+03  0.17300000000E+03 0.  1.
         -6    1    1    2    0  503  0.17206327071E+01 -0.16868903352E+02 -0.85699022275E+02  0.19380619932E+03  0.17300000000E+03 0.  1.
<mgrwt>
<rscale>  2 0.17382900E+03</rscale>
<asrwt>0</asrwt>
<pdfrwt beam="1">  1       21 0.56385933E-01 0.17382900E+03</pdfrwt>
<pdfrwt beam="2">  1       21 0.25219894E-01 0.17382900E+03</pdfrwt>
<totfact> 0.44487177E+04</totfact>
</mgrwt>
</event>
<event>
 4    1  0.4067306E+000  0.1834323E+03  0.7546771E-02  0.1164522E+00
         21   -1    0    0  501  502  0.00000000000E+00  0.00000000000E+00  0.45786889340E+02  0.45786889340E+02  0.00000000000E+00 0.  1.
         21   -1    0    0  502  503 -0.00000000000E+00 -0.00000000000E+00 -0.75605220655E+03  0.75605220655E+03  0.00000000000E+00 0.  1.
          6    1    1    2  501    0 -0.35613741679E+02 -0.49498077238E+02 -0.42223997576E+03  0.46036289530E+03  0.17300000000E+03 0.  1.
         -6    1    1    2    0  503  0.35613741679E+02  0.49498077238E+02 -0.28802534145E+03  0.34147620058E+03  0.17300000000E+03 0.  1.
<mgrwt>
<rscale>  2 0.18343227E+03</rscale>
<asrwt>0</asrwt>
<pdfrwt beam="1">  1       21 0.70441375E-02 0.18343227E+03</pdfrwt>
<pdfrwt beam="2">  1       21 0.11631571E+00 0.18343227E+03</pdfrwt>
<totfact> 0.85672925E+04</totfact>
</mgrwt>
</event>
<event>
 4    1  0.4067306E+000  0.2452262E+03  0.7546771E-02  0.1116359E+00
         21   -1    0    0  501  502  0.00000000000E+00  0.00000000000E+00  0.69687334096E+02  0.69687334096E+02  0.00000000000E+00 0. -1.
         21   -1    0    0  502  503 -0.00000000000E+00 -0.00000000000E+00 -0.14030865044E+04  0.14030865044E+04  0.00000000000E+00 0. -1.
          6    1    1    2  501    0 -0.10455881818E+03  0.13883213453E+03 -0.20980071052E+03  0.32272627128E+03  0.17300000000E+03 0. -1.
         -6    1    1    2    0  503  0.10455881818E+03 -0.13883213453E+03 -0.11235984597E+04  0.11500475672E+04  0.17300000000E+03 0. -1.
<mgrwt>
<rscale>  2 0.24522624E+03</rscale>
<asrwt>0</asrwt>
<pdfrwt beam="1">  1       21 0.10721129E-01 0.24522624E+03</pdfrwt>
<pdfrwt beam="2">  1       21 0.21585945E+00 0.24522624E+03</pdfrwt>
<totfact> 0.73277030E+03</totfact>
</mgrwt>
</event>
<event>
 4    1  0.4067306E+000  0.2779187E+03  0.7546771E-02  0.1096831E+00
         21   -1    0    0  503  502  0.00000000000E+00  0.00000000000E+00  0.30276298672E+04  0.30276298672E+04  0.00000000000E+00 0.  1.
         21   -1    0    0  501  503 -0.00000000000E+00 -0.00000000000E+00 -0.28865725881E+02  0.28865725881E+02  0.00000000000E+00 0. -1.
          6    1    1    2  501    0  0.13831238256E+03 -0.16786752900E+03  0.97841461154E+03  0.10171204327E+04  0.17300000000E+03 0. -1.
         -6    1    1    2    0  502 -0.13831238256E+03  0.16786752900E+03  0.20203495298E+04  0.20393751604E+04  0.17300000000E+03 0.  1.
<mgrwt>
<rscale>  2 0.27791873E+03</rscale>
<asrwt>0</asrwt>
<pdfrwt beam="1">  1       21 0.46578896E+00 0.27791873E+03</pdfrwt>
<pdfrwt beam="2">  1       21 0.44408833E-02 0.27791873E+03</pdfrwt>
<totfact> 0.95825932E+02</totfact>
</mgrwt>
</event>
<event>
 4    1  0.4067306E+000  0.2147901E+03  0.7546771E-02  0.1137828E+00
         21   -1    0    0  501  502  0.00000000000E+00  0.00000000000E+00  0.19215458327E+04  0.19215458327E+04  0.00000000000E+00 0. -1.
         21   -1    0    0  502  503 -0.00000000000E+00 -0.00000000000E+00 -0.25317179622E+02  0.25317179622E+02  0.00000000000E+00 0.  1.
          6    1    1    2  501    0  0.57769297577E+02  0.11343944908E+03  0.72685768655E+03  0.75792934819E+03  0.17300000000E+03 0.  1.
         -6    1    1    2    0  503 -0.57769297577E+02 -0.11343944908E+03  0.11693709665E+04  0.11889336641E+04  0.17300000000E+03 0. -1.
<mgrwt>
<rscale>  2 0.21479013E+03</rscale>
<asrwt>0</asrwt>
<pdfrwt beam="1">  1       21 0.29562232E+00 0.21479013E+03</pdfrwt>
<pdfrwt beam="2">  1       21 0.38949522E-02 0.21479013E+03</pdfrwt>
<totfact> 0.14502800E+04</totfact>
</mgrwt>
</event>
<event>
 4    1  0.4067306E+000  0.2435658E+03  0.7546771E-02  0.1117440E+00
         21   -1    0    0  501  502  0.00000000000E+00  0.00000000000E+00  0.71387012156E+02  0.71387012156E+02  0.00000000000E+00 0.  1.
         21   -1    0    0  502  503 -0.00000000000E+00 -0.00000000000E+00 -0.83337723057E+03  0.83337723057E+03  0.00000000000E+00 0.  1.
          6    1    1    2  501    0  0.19454880031E+02  0.17034321285E+03 -0.35695480531E+03  0.43213543659E+03  0.17300000000E+03 0.  1.
         -6    1    1    2    0  503 -0.19454880031E+02 -0.17034321285E+03 -0.40503541310E+03  0.47262880613E+03  0.17300000000E+03 0.  1.
<mgrwt>
<rscale>  2 0.24356581E+03</rscale>
<asrwt>0</asrwt>
<pdfrwt beam="1">  1       21 0.10982617E-01 0.24356581E+03</pdfrwt>
<pdfrwt beam="2">  1       21 0.12821188E+00 0.24356581E+03</pdfrwt>
<totfact> 0.29908124E+04</totfact>
</mgrwt>
</event>
<event>
 4    1  0.4067306E+000  0.1959611E+03  0.7546771E-02  0.1153192E+00
         21   -1    0    0  503  502  0.00000000000E+00  0.00000000000E+00  0.15218038772E+03  0.15218038772E+03  0.00000000000E+00 0. -1.
         21   -1    0    0  501  503 -0.00000000000E+00 -0.00000000000E+00 -0.70486818895E+03  0.70486818895E+03  0.00000000000E+00 0. -1.
          6    1    1    2  501    0 -0.40652264809E+02  0.82578121615E+02 -0.61970074791E+03  0.64994597450E+03  0.17300000000E+03 0. -1.
         -6    1    1    2    0  502  0.40652264809E+02 -0.82578121615E+02  0.67012946678E+02  0.20710260217E+03  0.17300000000E+03 0. -1.
<mgrwt>
<rscale>  2 0.19596110E+03</rscale>
<asrwt>0</asrwt>
<pdfrwt beam="1">  1       21 0.23412368E-01 0.19596110E+03</pdfrwt>
<pdfrwt beam="2">  1       21 0.10844126E+00 0.19596110E+03</pdfrwt>
<totfact> 0.11574761E+04</totfact>
</mgrwt>
</event>
<event>
 4    1  0.4067306E+000  0.1750921E+03  0.7546771E-02  0.1172639E+00
         21   -1    0    0  501  502  0.00000000000E+00  0.00000000000E+00  0.19046583617E+03  0.19046583617E+03  0.00000000000E+00 0.  1.
         21   -1    0    0  502  503 -0.00000000000E+00 -0.00000000000E+00 -0.25868246853E+03  0.25868246853E+03  0.00000000000E+00 0.  1.
          6    1    1    2  501    0  0.10899290716E+02 -0.24687055840E+02  0.10392218623E+03  0.20361008338E+03  0.17300000000E+03 0.  1.
         -6    1    1    2    0  503 -0.10899290716E+02  0.24687055840E+02 -0.17213881859E+03  0.24553822132E+03  0.17300000000E+03 0.  1.
<mgrwt>
<rscale>  2 0.17509211E+03</rscale>
<asrwt>0</asrwt>
<pdfrwt beam="1">  1       21 0.29302436E-01 0.17509211E+03</pdfrwt>
<pdfrwt beam="2">  1       21 0.39797303E-01 0.17509211E+03</pdfrwt>
<totfact> 0.68404989E+04</totfact>
</mgrwt>
</event>
<event>
 4    1  0.4067306E+000  0.1754437E+03  0.7546771E-02  0.1172287E+00
         21   -1    0    0  501  502  0.00000000000E+00  0.00000000000E+00  0.43245763548E+03  0.43245763548E+03  0.00000000000E+00 0.  1.
         21   -1    0    0  502  503 -0.00000000000E+00 -0.00000000000E+00 -0.72672437854E+02  0.72672437854E+02  0.00000000000E+00 0. -1.
          6    1    1    2  501    0 -0.65760248117E+01 -0.28429798276E+02  0.21613806183E+03  0.27838131996E+03  0.17300000000E+03 0.  1.
         -6    1    1    2    0  503  0.65760248117E+01  0.28429798276E+02  0.14364713579E+03  0.22674875337E+03  0.17300000000E+03 0. -1.
<mgrwt>
<rscale>  2 0.17544372E+03</rscale>
<asrwt>0</asrwt>
<pdfrwt beam="1">  1       21 0.66531942E-01 0.17544372E+03</pdfrwt>
<pdfrwt beam="2">  1       21 0.11180375E-01 0.17544372E+03</pdfrwt>
<totfact> 0.13874519E+05</totfact>
</mgrwt>
</event>
<event>
 4    1  0.4067306E+000  0.1929239E+03  0.7546771E-02  0.1155850E+00
         21   -1    0    0  503  502  0.00000000000E+00  0.00000000000E+00  0.35025935330E+03  0.35025935330E+03  0.00000000000E+00 0.  1.
         21   -1    0    0  501  503 -0.00000000000E+00 -0.00000000000E+00 -0.33782541556E+03  0.33782541556E+03  0.00000000000E+00 0.  1.
          6    1    1    2  501    0 -0.63759979609E+02 -0.56791859078E+02 -0.27862220405E+03  0.33889523875E+03  0.17300000000E+03 0.  1.
         -6    1    1    2    0  502  0.63759979609E+02  0.56791859078E+02  0.29105614180E+03  0.34918953011E+03  0.17300000000E+03 0.  1.
<mgrwt>
<rscale>  2 0.19292395E+03</rscale>
<asrwt>0</asrwt>
<pdfrwt beam="1">  1       21 0.53886054E-01 0.19292395E+03</pdfrwt>
<pdfrwt beam="2">  1       21 0.51973141E-01 0.19292395E+03</pdfrwt>
<totfact> 0.11444201E+04</totfact>
</mgrwt>
</event>
<event>
 4    1  0.4067306E+000  0.2075913E+03  0.7546771E-02  0.1143488E+00
         21   -1    0    0  503  502  0.00000000000E+00  0.00000000000E+00  0.36163618872E+03  0.36163618872E+03  0.00000000000E+00 0.  1.
         21   -1    0    0  501  503 -0.00000000000E+00 -0.00000000000E+00 -0.12245681568E+03  0.12245681568E+03  0.00000000000E+00 0.  1.
          6    1    1    2  501    0  0.11337988492E+03  0.17611269796E+02  0.79901116783E+02  0.22243728013E+03  0.17300000000E+03 0. -1.
         -6    1    1    2    0  502 -0.11337988492E+03 -0.17611269796E+02  0.15927825625E+03  0.26165572427E+03  0.17300000000E+03 0. -1.
<mgrwt>
<rscale>  2 0.20759132E+03</rscale>
<asrwt>0</asrwt>
<pdfrwt beam="1">  1       21 0.55636336E-01 0.20759132E+03</pdfrwt>
<pdfrwt beam="2">  1       21 0.18839510E-01 0.20759132E+03</pdfrwt>
<totfact> 0.78035917E+04</totfact>
</mgrwt>
</event>
<event>
 4    1  0.4067306E+000  0.1954874E+03  0.7546771E-02  0.1153603E+00
         21   -1    0    0  501  502  0.00000000000E+00  0.00000000000E+00  0.63588179162E+03  0.63588179162E+03  0.00000000000E+00 0.  1.
         21   -1    0    0  502  503 -0.00000000000E+00 -0.00000000000E+00 -0.66345511978E+02  0.66345511978E+02  0.00000000000E+00 0. -1.
          6    1    1    2  501    0 -0.70968770940E+02  0.57006761706E+02  0.39251119596E+03  0.43849786349E+03  0.17300000000E+03 0.  1.
         -6    1    1    2    0  503  0.70968770940E+02 -0.57006761706E+02  0.17702508368E+03  0.26372944011E+03  0.17300000000E+03 0. -1.
<mgrwt>
<rscale>  2 0.19548744E+03</rscale>
<asrwt>0</asrwt>
<pdfrwt beam="1">  1       21 0.97827964E-01 0.19548744E+03</pdfrwt>
<pdfrwt beam="2">  1       21 0.10207002E-01 0.19548744E+03</pdfrwt>
<totfact> 0.67579184E+04</totfact>
</mgrwt>
</event>
<event>
 4    1  0.4067306E+000  0.2014387E+03  0.7546771E-02  0.1148531E+00
         21   -1    0    0  501  502  0.00000000000E+00  0.00000000000E+00  0.95150430528E+02  0.95150430528E+02  0.00000000000E+00 0. -1.
         21   -1    0    0  502  503 -0.00000000000E+00 -0.00000000000E+00 -0.61822615759E+03  0.61822615759E+03  0.00000000000E+00 0. -1.
          6    1    1    2  501    0 -0.10131578420E+03  0.19587397026E+02 -0.62880484078E+02  0.21102490263E+03  0.17300000000E+03 0. -1.
         -6    1    1    2    0  503  0.10131578420E+03 -0.19587397026E+02 -0.46019524298E+03  0.50235168549E+03  0.17300000000E+03 0. -1.
<mgrwt>
<rscale>  2 0.20143871E+03</rscale>
<asrwt>0</asrwt>
<pdfrwt beam="1">  1       21 0.14638528E-01 0.20143871E+03</pdfrwt>
<pdfrwt beam="2">  1       21 0.95111715E-01 0.20143871E+03</pdfrwt>
<totfact> 0.37702998E+04</totfact>
</mgrwt>
</event>
<event>
 4    1  0.4067306E+000  0.2666188E+03  0.7546771E-02  0.1103230E+00
         21   -1    0    0  503  502  0.00000000000E+00  0.00000000000E+00  0.73766820538E+02  0.73766820538E+02  0.00000000000E+00 0.  1.
         21   -1    0    0  501  503 -0.00000000000E+00 -0.00000000000E+00 -0.11754684397E+04  0.11754684397E+04  0.00000000000E+00 0.  1.
          6    1    1    2  501    0  0.20113136032E+03  0.26509496755E+02 -0.81599866554E+03  0.85845174569E+03  0.17300000000E+03 0.  1.
         -6    1    1    2    0  502 -0.20113136032E+03 -0.26509496755E+02 -0.28570295358E+03  0.39078351450E+03  0.17300000000E+03 0.  1.
<mgrwt>
<rscale>  2 0.26661879E+03</rscale>
<asrwt>0</asrwt>
<pdfrwt beam="1">  1       21 0.11348743E-01 0.26661879E+03</pdfrwt>
<pdfrwt beam="2">  1       21 0.18084128E+00 0.26661879E+03</pdfrwt>
<totfact> 0.11062412E+04</totfact>
</mgrwt>
</event>
<event>
 4    1  0.4067306E+000  0.1821492E+03  0.7546771E-02  0.1165739E+00
         21   -1    0    0  503  502  0.00000000000E+00  0.00000000000E+00  0.57099861442E+03  0.57099861442E+03  0.00000000000E+00 0. -1.
         21   -1    0    0  501  503 -0.00000000000E+00 -0.00000000000E+00 -0.21931565089E+03  0.21931565089E+03  0.00000000000E+00 0. -1.
          6    1    1    2  501    0 -0.49137800362E+01  0.56790769870E+02 -0.16294867833E+03  0.24439846265E+03  0.17300000000E+03 0. -1.
         -6    1    1    2    0  502  0.49137800362E+01 -0.56790769870E+02  0.51463164186E+03  0.54591580265E+03  0.17300000000E+03 0. -1.
<mgrwt>
<rscale>  2 0.18214922E+03</rscale>
<asrwt>0</asrwt>
<pdfrwt beam="1">  1       21 0.87845940E-01 0.18214922E+03</pdfrwt>
<pdfrwt beam="2">  1       21 0.33740870E-01 0.18214922E+03</pdfrwt>
<totfact> 0.94711596E+03</totfact>
</mgrwt>
</event>
<event>
 4    1  0.4067306E+000  0.2231797E+03  0.7546771E-02  0.1131534E+00
         21   -1    0    0  503  502  0.00000000000E+00  0.00000000000E+00  0.81477375752E+03  0.81477375752E+03  0.00000000000E+00 0. -1.
         21   -1    0    0  501  503 -0.00000000000E+00 -0.00000000000E+00 -0.12037581006E+03  0.12037581006E+03  0.00000000000E+00 0. -1.
          6    1    1    2  501    0  0.13441082411E+03  0.42589895726E+02  0.19178407774E+02  0.22400218789E+03  0.17300000000E+03 0. -1.
         -6    1    1    2    0  502 -0.13441082411E+03 -0.42589895726E+02  0.67521953969E+03  0.71114737969E+03  0.17300000000E+03 0. -1.
<mgrwt>
<rscale>  2 0.22317968E+03</rscale>
<asrwt>0</asrwt>
<pdfrwt beam="1">  1       21 0.12534981E+00 0.22317968E+03</pdfrwt>
<pdfrwt beam="2">  1       21 0.18519356E-01 0.22317968E+03</pdfrwt>
<totfact> 0.12360208E+04</totfact>
</mgrwt>
</event>
<event>
 4    1  0.4067306E+000  0.1941768E+03  0.7546771E-02  0.1154747E+00
         21   -1    0    0  501  502  0.00000000000E+00  0.00000000000E+00  0.25423977329E+03  0.25423977329E+03  0.00000000000E+00 0.  1.
         21   -1    0    0  502  503 -0.00000000000E+00 -0.00000000000E+00 -0.18770784431E+03  0.18770784431E+03  0.00000000000E+00 0.  1.
          6    1    1    2  501    0 -0.85733980717E+02  0.20623474497E+02  0.13451053742E+03  0.23621542673E+03  0.17300000000E+03 0.  1.
         -6    1    1    2    0  503  0.85733980717E+02 -0.20623474497E+02 -0.67978608444E+02  0.20573219086E+03  0.17300000000E+03 0.  1.
<mgrwt>
<rscale>  2 0.19417683E+03</rscale>
<asrwt>0</asrwt>
<pdfrwt beam="1">  1       21 0.39113811E-01 0.19417683E+03</pdfrwt>
<pdfrwt beam="2">  1       21 0.28878130E-01 0.19417683E+03</pdfrwt>
<totfact> 0.72277481E+04</totfact>
</mgrwt>
</event>
<event>
 4    1  0.4067306E+000  0.1934267E+03  0.7546771E-02  0.1155407E+00
         21   -1    0    0  503  502  0.00000000000E+00  0.00000000000E+00  0.13783770009E+03  0.13783770009E+03  0.00000000000E+00 0.  1.
         21   -1    0    0  501  503 -0.00000000000E+00 -0.00000000000E+00 -0.28159065293E+03  0.28159065293E+03  0.00000000000E+00 0. -1.
          6    1    1    2  501    0  0.81647080341E+01 -0.86129055693E+02 -0.11170443264E+03  0.22336462783E+03  0.17300000000E+03 0. -1.
         -6    1    1    2    0  502 -0.81647080341E+01  0.86129055693E+02 -0.32048520201E+02  0.19606372520E+03  0.17300000000E+03 0.  1.
<mgrwt>
<rscale>  2 0.19342667E+03</rscale>
<asrwt>0</asrwt>
<pdfrwt beam="1">  1       21 0.21205800E-01 0.19342667E+03</pdfrwt>
<pdfrwt beam="2">  1       21 0.43321639E-01 0.19342667E+03</pdfrwt>
<totfact> 0.10593445E+05</totfact>
</mgrwt>
</event>
<event>
 4    1  0.4067306E+000  0.1762176E+03  0.7546771E-02  0.1171515E+00
         21   -1    0    0  501  502  0.00000000000E+00  0.00000000000E+00  0.21538603615E+03  0.21538603615E+03  0.00000000000E+00 0.  1.
         21   -1    0    0  502  503 -0.00000000000E+00 -0.00000000000E+00 -0.14466792752E+03  0.14466792752E+03  0.00000000000E+00 0.  1.
          6    1    1    2  501    0  0.31905317446E+02 -0.10280783116E+02  0.45899135272E+02  0.18209715649E+03  0.17300000000E+03 0.  1.
         -6    1    1    2    0  503 -0.31905317446E+02  0.10280783116E+02  0.24818973351E+02  0.17795680718E+03  0.17300000000E+03 0.  1.
<mgrwt>
<rscale>  2 0.17621760E+03</rscale>
<asrwt>0</asrwt>
<pdfrwt beam="1">  1       21 0.33136313E-01 0.17621760E+03</pdfrwt>
<pdfrwt beam="2">  1       21 0.22256604E-01 0.17621760E+03</pdfrwt>
<totfact> 0.16645165E+05</totfact>
</mgrwt>
</event>
<event>
 4    1  0.4067306E+000  0.2005207E+03  0.7546771E-02  0.1149300E+00
         21   -1    0    0  503  502  0.00000000000E+00  0.00000000000E+00  0.81974781548E+02  0.81974781548E+02  0.00000000000E+00 0.  1.
         21   -1    0    0  501  503 -0.00000000000E+00 -0.00000000000E+00 -0.51471786954E+03  0.51471786954E+03  0.00000000000E+00 0.  1.
          6    1    1    2  501    0  0.62109281745E+02  0.80137286148E+02 -0.28108775746E+03  0.34528086380E+03  0.17300000000E+03 0.  1.
         -6    1    1    2    0  502 -0.62109281745E+02 -0.80137286148E+02 -0.15165533053E+03  0.25141178729E+03  0.17300000000E+03 0.  1.
<mgrwt>
<rscale>  2 0.20052069E+03</rscale>
<asrwt>0</asrwt>
<pdfrwt beam="1">  1       21 0.12611505E-01 0.20052069E+03</pdfrwt>
<pdfrwt beam="2">  1       21 0.79187363E-01 0.20052069E+03</pdfrwt>
<totfact> 0.75283755E+04</totfact>
</mgrwt>
</event>
<event>
 4    1  0.4067306E+000  0.3048882E+03  0.7546771E-02  0.1082822E+00
         21   -1    0    0  503  502  0.00000000000E+00  0.00000000000E+00  0.83066154294E+03  0.83066154294E+03  0.00000000000E+00 0. -1.
         21   -1    0    0  501  503 -0.00000000000E+00 -0.00000000000E+00 -0.20669071889E+03  0.20669071889E+03  0.00000000000E+00 0.  1.
          6    1    1    2  501    0  0.22191884540E+03  0.11738765992E+03 -0.39253529485E+02  0.30740474333E+03  0.17300000000E+03 0.  1.
         -6    1    1    2    0  502 -0.22191884540E+03 -0.11738765992E+03  0.66322435354E+03  0.72994751850E+03  0.17300000000E+03 0. -1.
<mgrwt>
<rscale>  2 0.30488824E+03</rscale>
<asrwt>0</asrwt>
<pdfrwt beam="1">  1       21 0.12779408E+00 0.30488824E+03</pdfrwt>
<pdfrwt beam="2">  1       21 0.31798573E-01 0.30488824E+03</pdfrwt>
<totfact> 0.39773286E+03</totfact>
</mgrwt>
</event>
<event>
 4    1  0.4067306E+000  0.2091906E+03  0.7546771E-02  0.1142209E+00
         21   -1    0    0  501  502  0.00000000000E+00  0.00000000000E+00  0.90657349124E+03  0.90657349124E+03  0.00000000000E+00 0. -1.
         21   -1    0    0  502  503 -0.00000000000E+00 -0.00000000000E+00 -0.48707719509E+02  0.48707719509E+02  0.00000000000E+00 0.  1.
          6    1    1    2  501    0 -0.43845622841E+02  0.10912954136E+03  0.47418981931E+03  0.51828243283E+03  0.17300000000E+03 0. -1.
         -6    1    1    2    0  503  0.43845622841E+02 -0.10912954136E+03  0.38367595242E+03  0.43699877792E+03  0.17300000000E+03 0.  1.
<mgrwt>
<rscale>  2 0.20919057E+03</rscale>
<asrwt>0</asrwt>
<pdfrwt beam="1">  1       21 0.13947283E+00 0.20919057E+03</pdfrwt>
<pdfrwt beam="2">  1       21 0.74934960E-02 0.20919057E+03</pdfrwt>
<totfact> 0.48136583E+04</totfact>
</mgrwt>
</event>
<event>
 4    1  0.4067306E+000  0.1734508E+03  0.7546771E-02  0.1174296E+00
         21   -1    0    0  501  502  0.00000000000E+00  0.00000000000E+00  0.35278213169E+03  0.35278213169E+03  0.00000000000E+00 0. -1.
         21   -1    0    0  502  503 -0.00000000000E+00 -0.00000000000E+00 -0.22048156006E+03  0.22048156006E+03  0.00000000000E+00 0. -1.
          6    1    1    2  501    0 -0.68140983469E+01  0.10475978399E+02  0.29060541243E+03  0.33843268724E+03  0.17300000000E+03 0. -1.
         -6    1    1    2    0  503  0.68140983469E+01 -0.10475978399E+02 -0.15830484080E+03  0.23483100451E+03  0.17300000000E+03 0. -1.
<mgrwt>
<rscale>  2 0.17345079E+03</rscale>
<asrwt>0</asrwt>
<pdfrwt beam="1">  1       21 0.54274174E-01 0.17345079E+03</pdfrwt>
<pdfrwt beam="2">  1       21 0.33920240E-01 0.17345079E+03</pdfrwt>
<totfact> 0.27153902E+04</totfact>
</mgrwt>
</event>
<event>
 4    1  0.4067306E+000  0.1743517E+03  0.7546771E-02  0.1173384E+00
         21   -1    0    0  501  502  0.00000000000E+00  0.00000000000E+00  0.65744740703E+03  0.65744740703E+03  0.00000000000E+00 0.  1.
         21   -1    0    0  502  503 -0.00000000000E+00 -0.00000000000E+00 -0.53907309159E+02  0.53907309159E+02  0.00000000000E+00 0.  1.
          6    1    1    2  501    0  0.17655537773E+02  0.12562086549E+02  0.43593321650E+03  0.46950643583E+03  0.17300000000E+03 0. -1.
         -6    1    1    2    0  503 -0.17655537773E+02 -0.12562086549E+02  0.16760688137E+03  0.24184828036E+03  0.17300000000E+03 0. -1.
<mgrwt>
<rscale>  2 0.17435173E+03</rscale>
<asrwt>0</asrwt>
<pdfrwt beam="1">  1       21 0.10114575E+00 0.17435173E+03</pdfrwt>
<pdfrwt beam="2">  1       21 0.82934327E-02 0.17435173E+03</pdfrwt>
<totfact> 0.90758187E+04</totfact>
</mgrwt>
</event>
<event>
 4    1  0.4067306E+000  0.1984711E+03  0.7546771E-02  0.1151035E+00
         21   -1    0    0  503  502  0.00000000000E+00  0.00000000000E+00  0.39786204780E+03  0.39786204780E+03  0.00000000000E+00 0.  1.
         21   -1    0    0  501  503 -0.00000000000E+00 -0.00000000000E+00 -0.12636067862E+03  0.12636067862E+03  0.00000000000E+00 0.  1.
          6    1    1    2  501    0  0.96742729265E+02  0.10129884168E+02  0.13797013437E+02  0.19895006358E+03  0.17300000000E+03 0.  1.
         -6    1    1    2    0  502 -0.96742729265E+02 -0.10129884168E+02  0.25770435575E+03  0.32527266284E+03  0.17300000000E+03 0.  1.
<mgrwt>
<rscale>  2 0.19847108E+03</rscale>
<asrwt>0</asrwt>
<pdfrwt beam="1">  1       21 0.61209545E-01 0.19847108E+03</pdfrwt>
<pdfrwt beam="2">  1       21 0.19440105E-01 0.19847108E+03</pdfrwt>
<totfact> 0.60252109E+04</totfact>
</mgrwt>
</event>
<event>
 4    1  0.4067306E+000  0.2133138E+03  0.7546771E-02  0.1138968E+00
         21   -1    0    0  501  502  0.00000000000E+00  0.00000000000E+00  0.54257475056E+03  0.54257475056E+03  0.00000000000E+00 0.  1.
         21   -1    0    0  502  503 -0.00000000000E+00 -0.00000000000E+00 -0.23797539807E+03  0.23797539807E+03  0.00000000000E+00 0.  1.
          6    1    1    2  501    0 -0.10845361166E+03  0.61737924763E+02  0.46636606969E+03  0.51283532269E+03  0.17300000000E+03 0.  1.
         -6    1    1    2    0  503  0.10845361166E+03 -0.61737924763E+02 -0.16176671719E+03  0.26771482594E+03  0.17300000000E+03 0.  1.
<mgrwt>
<rscale>  2 0.21331375E+03</rscale>
<asrwt>0</asrwt>
<pdfrwt beam="1">  1       21 0.83473038E-01 0.21331375E+03</pdfrwt>
<pdfrwt beam="2">  1       21 0.36611600E-01 0.21331375E+03</pdfrwt>
<totfact> 0.88572742E+03</totfact>
</mgrwt>
</event>
<event>
 4    1  0.4067306E+000  0.1862047E+03  0.7546771E-02  0.1161930E+00
         21   -1    0    0  503  502  0.00000000000E+00  0.00000000000E+00  0.61419260069E+03  0.61419260069E+03  0.00000000000E+00 0.  1.
         21   -1    0    0  501  503 -0.00000000000E+00 -0.00000000000E+00 -0.57072171163E+02  0.57072171163E+02  0.00000000000E+00 0.  1.
          6    1    1    2  501    0  0.14004342818E+02  0.67432082429E+02  0.31355615261E+03  0.36467748518E+03  0.17300000000E+03 0.  1.
         -6    1    1    2    0  502 -0.14004342818E+02 -0.67432082429E+02  0.24356427692E+03  0.30658728667E+03  0.17300000000E+03 0.  1.
<mgrwt>
<rscale>  2 0.18620475E+03</rscale>
<asrwt>0</asrwt>
<pdfrwt beam="1">  1       21 0.94491165E-01 0.18620475E+03</pdfrwt>
<pdfrwt beam="2">  1       21 0.87803344E-02 0.18620475E+03</pdfrwt>
<totfact> 0.95940438E+04</totfact>
</mgrwt>
</event>
<event>
 4    1  0.4067306E+000  0.1986099E+03  0.7546771E-02  0.1150917E+00
         21   -1    0    0  503  502  0.00000000000E+00  0.00000000000E+00  0.17741679093E+03  0.17741679093E+03  0.00000000000E+00 0.  1.
         21   -1    0    0  501  503 -0.00000000000E+00 -0.00000000000E+00 -0.22264616985E+03  0.22264616985E+03  0.00000000000E+00 0. -1.
          6    1    1    2  501    0  0.49763479372E+01 -0.97427601953E+02 -0.30096858717E+02  0.20087738192E+03  0.17300000000E+03 0. -1.
         -6    1    1    2    0  502 -0.49763479372E+01  0.97427601953E+02 -0.15132520203E+02  0.19918557887E+03  0.17300000000E+03 0.  1.
<mgrwt>
<rscale>  2 0.19860992E+03</rscale>
<asrwt>0</asrwt>
<pdfrwt beam="1">  1       21 0.27294891E-01 0.19860992E+03</pdfrwt>
<pdfrwt beam="2">  1       21 0.34253257E-01 0.19860992E+03</pdfrwt>
<totfact> 0.10486953E+05</totfact>
</mgrwt>
</event>
<event>
 4    1  0.4067306E+000  0.2002924E+03  0.7546771E-02  0.1149493E+00
         21   -1    0    0  501  502  0.00000000000E+00  0.00000000000E+00  0.45316538474E+02  0.45316538474E+02  0.00000000000E+00 0.  1.
         21   -1    0    0  502  503 -0.00000000000E+00 -0.00000000000E+00 -0.94987137053E+03  0.94987137053E+03  0.00000000000E+00 0.  1.
          6    1    1    2  501    0  0.67669064127E+02  0.74892827588E+02 -0.58205161182E+03  0.61554944292E+03  0.17300000000E+03 0.  1.
         -6    1    1    2    0  503 -0.67669064127E+02 -0.74892827588E+02 -0.32250322024E+03  0.37963846608E+03  0.17300000000E+03 0.  1.
<mgrwt>
<rscale>  2 0.20029238E+03</rscale>
<asrwt>0</asrwt>
<pdfrwt beam="1">  1       21 0.69717758E-02 0.20029238E+03</pdfrwt>
<pdfrwt beam="2">  1       21 0.14613404E+00 0.20029238E+03</pdfrwt>
<totfact> 0.48546638E+04</totfact>
</mgrwt>
</event>
<event>
 4    1  0.4067306E+000  0.2047380E+03  0.7546771E-02  0.1145802E+00
         21   -1    0    0  501  502  0.00000000000E+00  0.00000000000E+00  0.45715849159E+03  0.45715849159E+03  0.00000000000E+00 0.  1.
         21   -1    0    0  502  503 -0.00000000000E+00 -0.00000000000E+00 -0.26730053073E+03  0.26730053073E+03  0.00000000000E+00 0.  1.
          6    1    1    2  501    0 -0.91150153287E+02  0.60665392735E+02  0.38852968402E+03  0.43917303616E+03  0.17300000000E+03 0.  1.
         -6    1    1    2    0  503  0.91150153287E+02 -0.60665392735E+02 -0.19867172316E+03  0.28528598617E+03  0.17300000000E+03 0.  1.
<mgrwt>
<rscale>  2 0.20473798E+03</rscale>
<asrwt>0</asrwt>
<pdfrwt beam="1">  1       21 0.70332075E-01 0.20473798E+03</pdfrwt>
<pdfrwt beam="2">  1       21 0.41123159E-01 0.20473798E+03</pdfrwt>
<totfact> 0.10356947E+04</totfact>
</mgrwt>
</event>
<event>
 4    1  0.4067306E+000  0.2020130E+03  0.7546771E-02  0.1148052E+00
         21   -1    0    0  503  502  0.00000000000E+00  0.00000000000E+00  0.20514793915E+03  0.20514793915E+03  0.00000000000E+00 0.  1.
         21   -1    0    0  501  503 -0.00000000000E+00 -0.00000000000E+00 -0.20069515499E+03  0.20069515499E+03  0.00000000000E+00 0. -1.
          6    1    1    2  501    0 -0.48598174825E+02 -0.92295458332E+02 -0.16826348286E+02  0.20271250633E+03  0.17300000000E+03 0.  1.
         -6    1    1    2    0  502  0.48598174825E+02  0.92295458332E+02  0.21279132446E+02  0.20313058781E+03  0.17300000000E+03 0. -1.
<mgrwt>
<rscale>  2 0.20201296E+03</rscale>
<asrwt>0</asrwt>
<pdfrwt beam="1">  1       21 0.31561222E-01 0.20201296E+03</pdfrwt>
<pdfrwt beam="2">  1       21 0.30876178E-01 0.20201296E+03</pdfrwt>
<totfact> 0.96845282E+04</totfact>
</mgrwt>
</event>
<event>
 4    1  0.4067306E+000  0.2045756E+03  0.7546771E-02  0.1145935E+00
         21   -1    0    0  501  502  0.00000000000E+00  0.00000000000E+00  0.84279025562E+03  0.84279025562E+03  0.00000000000E+00 0. -1.
         21   -1    0    0  502  503 -0.00000000000E+00 -0.00000000000E+00 -0.55434042730E+02  0.55434042730E+02  0.00000000000E+00 0. -1.
          6    1    1    2  501    0 -0.78200445689E+02 -0.76202762362E+02  0.24870530361E+03  0.32203338141E+03  0.17300000000E+03 0. -1.
         -6    1    1    2    0  503  0.78200445689E+02  0.76202762362E+02  0.53865090928E+03  0.57619091694E+03  0.17300000000E+03 0. -1.
<mgrwt>
<rscale>  2 0.20457559E+03</rscale>
<asrwt>0</asrwt>
<pdfrwt beam="1">  1       21 0.12966003E+00 0.20457559E+03</pdfrwt>
<pdfrwt beam="2">  1       21 0.85283149E-02 0.20457559E+03</pdfrwt>
<totfact> 0.46398962E+04</totfact>
</mgrwt>
</event>
<event>
 4    1  0.4067306E+000  0.2983575E+03  0.7546771E-02  0.1086065E+00
         21   -1    0    0  501  502  0.00000000000E+00  0.00000000000E+00  0.28605066885E+03  0.28605066885E+03  0.00000000000E+00 0.  1.
         21   -1    0    0  502  503 -0.00000000000E+00 -0.00000000000E+00 -0.35054179061E+03  0.35054179061E+03  0.00000000000E+00 0. -1.
          6    1    1    2  501    0 -0.24148844343E+03  0.27776830914E+02  0.74394987990E+02  0.30749282086E+03  0.17300000000E+03 0.  1.
         -6    1    1    2    0  503  0.24148844343E+03 -0.27776830914E+02 -0.13888610974E+03  0.32909963860E+03  0.17300000000E+03 0. -1.
<mgrwt>
<rscale>  2 0.29835754E+03</rscale>
<asrwt>0</asrwt>
<pdfrwt beam="1">  1       21 0.44007795E-01 0.29835754E+03</pdfrwt>
<pdfrwt beam="2">  1       21 0.53929506E-01 0.29835754E+03</pdfrwt>
<totfact> 0.15263469E+04</totfact>
</mgrwt>
</event>
<event>
 4    1  0.4067306E+000  0.2568879E+03  0.7546771E-02  0.1109028E+00
         21   -1    0    0  501  502  0.00000000000E+00  0.00000000000E+00  0.26010290036E+04  0.26010290036E+04  0.00000000000E+00 0. -1.
         21   -1    0    0  502  503 -0.00000000000E+00 -0.00000000000E+00 -0.25503032522E+02  0.25503032522E+02  0.00000000000E+00 0.  1.
          6    1    1    2  501    0 -0.12212311842E+03 -0.14542464493E+03  0.13821623433E+04  0.14058321829E+04  0.17300000000E+03 0.  1.
         -6    1    1    2    0  503  0.12212311842E+03  0.14542464493E+03  0.11933636278E+04  0.12206998531E+04  0.17300000000E+03 0. -1.
<mgrwt>
<rscale>  2 0.25688788E+03</rscale>
<asrwt>0</asrwt>
<pdfrwt beam="1">  1       21 0.40015810E+00 0.25688788E+03</pdfrwt>
<pdfrwt beam="2">  1       21 0.39235455E-02 0.25688788E+03</pdfrwt>
<totfact> 0.32544603E+03</totfact>
</mgrwt>
</event>
<event>
 4    1  0.4067306E+000  0.2231843E+03  0.7546771E-02  0.1131531E+00
         21   -1    0    0  501  502  0.00000000000E+00  0.00000000000E+00  0.87469884460E+02  0.87469884460E+02  0.00000000000E+00 0.  1.
         21   -1    0    0  502  503 -0.00000000000E+00 -0.00000000000E+00 -0.63974233770E+03  0.63974233770E+03  0.00000000000E+00 0.  1.
          6    1    1    2  501    0 -0.32479867744E+02 -0.13721264322E+03 -0.39664779409E+03  0.45512715127E+03  0.17300000000E+03 0.  1.
         -6    1    1    2    0  503  0.32479867744E+02  0.13721264322E+03 -0.15562465916E+03  0.27208507090E+03  0.17300000000E+03 0.  1.
<mgrwt>
<rscale>  2 0.22318434E+03</rscale>
<asrwt>0</asrwt>
<pdfrwt beam="1">  1       21 0.13456905E-01 0.22318434E+03</pdfrwt>
<pdfrwt beam="2">  1       21 0.98421898E-01 0.22318434E+03</pdfrwt>
<totfact> 0.40073375E+04</totfact>
</mgrwt>
</event>
<event>
 4    1  0.4067306E+000  0.1920917E+03  0.7546771E-02  0.1156588E+00
         21   -1    0    0  503  502  0.00000000000E+00  0.00000000000E+00  0.50381261646E+03  0.50381261646E+03  0.00000000000E+00 0.  1.
         21   -1    0    0  501  503 -0.00000000000E+00 -0.00000000000E+00 -0.40449354296E+03  0.40449354296E+03  0.00000000000E+00 0.  1.
          6    1    1    2  501    0  0.44932462424E+02  0.70365461448E+02 -0.36132619831E+03  0.40921369225E+03  0.17300000000E+03 0.  1.
         -6    1    1    2    0  502 -0.44932462424E+02 -0.70365461448E+02  0.46064527181E+03  0.49909246717E+03  0.17300000000E+03 0.  1.
<mgrwt>
<rscale>  2 0.19209171E+03</rscale>
<asrwt>0</asrwt>
<pdfrwt beam="1">  1       21 0.77509633E-01 0.19209171E+03</pdfrwt>
<pdfrwt beam="2">  1       21 0.62229776E-01 0.19209171E+03</pdfrwt>
<totfact> 0.35396325E+03</totfact>
</mgrwt>
</event>
<event>
 4    1  0.4067306E+000  0.1822416E+03  0.7546771E-02  0.1165651E+00
         21   -1    0    0  503  502  0.00000000000E+00  0.00000000000E+00  0.15683834099E+03  0.15683834099E+03  0.00000000000E+00 0.  1.
         21   -1    0    0  501  503 -0.00000000000E+00 -0.00000000000E+00 -0.52471033035E+03  0.52471033035E+03  0.00000000000E+00 0.  1.
          6    1    1    2  501    0  0.57291485599E+02 -0.82605656268E+00 -0.44711132678E+03  0.48282557433E+03  0.17300000000E+03 0.  1.
         -6    1    1    2    0  502 -0.57291485599E+02  0.82605656268E+00  0.79239337425E+02  0.19872309701E+03  0.17300000000E+03 0.  1.
<mgrwt>
<rscale>  2 0.18224159E+03</rscale>
<asrwt>0</asrwt>
<pdfrwt beam="1">  1       21 0.24128976E-01 0.18224159E+03</pdfrwt>
<pdfrwt beam="2">  1       21 0.80724665E-01 0.18224159E+03</pdfrwt>
<totfact> 0.21973345E+04</totfact>
</mgrwt>
</event>
<event>
 4    1  0.4067306E+000  0.2420931E+03  0.7546771E-02  0.1118406E+00
         21   -1    0    0  501  502  0.00000000000E+00  0.00000000000E+00  0.13776824976E+03  0.13776824976E+03  0.00000000000E+00 0. -1.
         21   -1    0    0  502  503 -0.00000000000E+00 -0.00000000000E+00 -0.42542097658E+03  0.42542097658E+03  0.00000000000E+00 0.  1.
          6    1    1    2  501    0  0.13571778441E+03 -0.10129525160E+03 -0.14461384412E+03  0.28199682430E+03  0.17300000000E+03 0. -1.
         -6    1    1    2    0  503 -0.13571778441E+03  0.10129525160E+03 -0.14303888271E+03  0.28119240205E+03  0.17300000000E+03 0.  1.
<mgrwt>
<rscale>  2 0.24209305E+03</rscale>
<asrwt>0</asrwt>
<pdfrwt beam="1">  1       21 0.21195116E-01 0.24209305E+03</pdfrwt>
<pdfrwt beam="2">  1       21 0.65449379E-01 0.24209305E+03</pdfrwt>
<totfact> 0.43429554E+04</totfact>
</mgrwt>
</event>
<event>
 4    1  0.4067306E+000  0.2186344E+03  0.7546771E-02  0.1134905E+00
         21   -1    0    0  503  502  0.00000000000E+00  0.00000000000E+00  0.21013489553E+03  0.21013489553E+03  0.00000000000E+00 0. -1.
         21   -1    0    0  501  503 -0.00000000000E+00 -0.00000000000E+00 -0.23034138538E+03  0.23034138538E+03  0.00000000000E+00 0. -1.
          6    1    1    2  501    0  0.60404148293E+02  0.11926160848E+03 -0.34660110031E+02  0.22136466659E+03  0.17300000000E+03 0. -1.
         -6    1    1    2    0  502 -0.60404148293E+02 -0.11926160848E+03  0.14453620181E+02  0.21911161431E+03  0.17300000000E+03 0. -1.
<mgrwt>
<rscale>  2 0.21863438E+03</rscale>
<asrwt>0</asrwt>
<pdfrwt beam="1">  1       21 0.32328446E-01 0.21863438E+03</pdfrwt>
<pdfrwt beam="2">  1       21 0.35437136E-01 0.21863438E+03</pdfrwt>
<totfact> 0.69885136E+04</totfact>
</mgrwt>
</event>
<event>
 4    1  0.4067306E+000  0.3440435E+03  0.7546771E-02  0.1065087E+00
         21   -1    0    0  503  502  0.00000000000E+00  0.00000000000E+00  0.11454840931E+03  0.11454840931E+03  0.00000000000E+00 0.  1.
         21   -1    0    0  501  503 -0.00000000000E+00 -0.00000000000E+00 -0.10349335397E+04  0.10349335397E+04  0.00000000000E+00 0. -1.
          6    1    1    2  501    0  0.25287102827E+03 -0.15650288250E+03 -0.43754473929E+03  0.55660696012E+03  0.17300000000E+03 0. -1.
         -6    1    1    2    0  502 -0.25287102827E+03  0.15650288250E+03 -0.48284039107E+03  0.59287498886E+03  0.17300000000E+03 0.  1.
<mgrwt>
<rscale>  2 0.34404347E+03</rscale>
<asrwt>0</asrwt>
<pdfrwt beam="1">  1       21 0.17622832E-01 0.34404347E+03</pdfrwt>
<pdfrwt beam="2">  1       21 0.15922054E+00 0.34404347E+03</pdfrwt>
<totfact> 0.67852720E+03</totfact>
</mgrwt>
</event>
<event>
 4    1  0.4067306E+000  0.2445141E+03  0.7546771E-02  0.1116822E+00
         21   -1    0    0  503  502  0.00000000000E+00  0.00000000000E+00  0.93767801903E+02  0.93767801903E+02  0.00000000000E+00 0. -1.
         21   -1    0    0  501  503 -0.00000000000E+00 -0.00000000000E+00 -0.83182872370E+03  0.83182872370E+03  0.00000000000E+00 0. -1.
          6    1    1    2  501    0  0.61777433729E+02  0.16137445950E+03 -0.14540474161E+03  0.28448146931E+03  0.17300000000E+03 0. -1.
         -6    1    1    2    0  502 -0.61777433729E+02 -0.16137445950E+03 -0.59265618019E+03  0.64111505630E+03  0.17300000000E+03 0. -1.
<mgrwt>
<rscale>  2 0.24451415E+03</rscale>
<asrwt>0</asrwt>
<pdfrwt beam="1">  1       21 0.14425815E-01 0.24451415E+03</pdfrwt>
<pdfrwt beam="2">  1       21 0.12797365E+00 0.24451415E+03</pdfrwt>
<totfact> 0.18355275E+04</totfact>
</mgrwt>
</event>
<event>
 4    1  0.4067306E+000  0.1799995E+03  0.7546771E-02  0.1167804E+00
         21   -1    0    0  503  502  0.00000000000E+00  0.00000000000E+00  0.84154173052E+03  0.84154173052E+03  0.00000000000E+00 0. -1.
         21   -1    0    0  501  503 -0.00000000000E+00 -0.00000000000E+00 -0.43009435370E+02  0.43009435370E+02  0.00000000000E+00 0.  1.
          6    1    1    2  501    0  0.16821395824E+02  0.46774608828E+02  0.54246695480E+03  0.57155071555E+03  0.17300000000E+03 0.  1.
         -6    1    1    2    0  502 -0.16821395824E+02 -0.46774608828E+02  0.25606534035E+03  0.31300045035E+03  0.17300000000E+03 0.  1.
<mgrwt>
<rscale>  2 0.17999951E+03</rscale>
<asrwt>0</asrwt>
<pdfrwt beam="1">  1       21 0.12946795E+00 0.17999951E+03</pdfrwt>
<pdfrwt beam="2">  1       21 0.66168368E-02 0.17999951E+03</pdfrwt>
<totfact> 0.73246740E+04</totfact>
</mgrwt>
</event>
<event>
 4    1  0.4067306E+000  0.1762998E+03  0.7546771E-02  0.1171433E+00
         21   -1    0    0  501  502  0.00000000000E+00  0.00000000000E+00  0.13053303442E+03  0.13053303442E+03  0.00000000000E+00 0.  1.
         21   -1    0    0  502  503 -0.00000000000E+00 -0.00000000000E+00 -0.10344982750E+04  0.10344982750E+04  0.00000000000E+00 0.  1.
          6    1    1    2  501    0 -0.26495983018E+02 -0.21226703003E+02  0.59115556233E+02  0.18594692529E+03  0.17300000000E+03 0.  1.
         -6    1    1    2    0  503  0.26495983018E+02  0.21226703003E+02 -0.96308079680E+03  0.97908438410E+03  0.17300000000E+03 0.  1.
<mgrwt>
<rscale>  2 0.17629977E+03</rscale>
<asrwt>0</asrwt>
<pdfrwt beam="1">  1       21 0.20082006E-01 0.17629977E+03</pdfrwt>
<pdfrwt beam="2">  1       21 0.15915358E+00 0.17629977E+03</pdfrwt>
<totfact> 0.59313401E+03</totfact>
</mgrwt>
</event>
<event>
 4    1  0.4067306E+000  0.1805326E+03  0.7546771E-02  0.1167289E+00
         21   -1    0    0  503  502  0.00000000000E+00  0.00000000000E+00  0.18479359171E+03  0.18479359171E+03  0.00000000000E+00 0.  1.
         21   -1    0    0  501  503 -0.00000000000E+00 -0.00000000000E+00 -0.17771008939E+03  0.17771008939E+03  0.00000000000E+00 0.  1.
          6    1    1    2  501    0 -0.19581262077E+02  0.47745235888E+02 -0.12198227367E+02  0.18094427354E+03  0.17300000000E+03 0.  1.
         -6    1    1    2    0  502  0.19581262077E+02 -0.47745235888E+02  0.19281729695E+02  0.18155940756E+03  0.17300000000E+03 0.  1.
<mgrwt>
<rscale>  2 0.18053264E+03</rscale>
<asrwt>0</asrwt>
<pdfrwt beam="1">  1       21 0.28429784E-01 0.18053264E+03</pdfrwt>
<pdfrwt beam="2">  1       21 0.27340014E-01 0.18053264E+03</pdfrwt>
<totfact> 0.15150470E+05</totfact>
</mgrwt>
</event>
<event>
 4    1  0.4067306E+000  0.1764178E+03  0.7546771E-02  0.1171316E+00
         21   -1    0    0  503  502  0.00000000000E+00  0.00000000000E+00  0.34928794587E+02  0.34928794587E+02  0.00000000000E+00 0.  1.
         21   -1    0    0  501  503 -0.00000000000E+00 -0.00000000000E+00 -0.92264188567E+03  0.92264188567E+03  0.00000000000E+00 0.  1.
          6    1    1    2  501    0  0.23689647799E+02 -0.25160099860E+02 -0.53245502699E+03  0.56092030254E+03  0.17300000000E+03 0.  1.
         -6    1    1    2    0  502 -0.23689647799E+02  0.25160099860E+02 -0.35525806410E+03  0.39665037772E+03  0.17300000000E+03 0.  1.
<mgrwt>
<rscale>  2 0.17641777E+03</rscale>
<asrwt>0</asrwt>
<pdfrwt beam="1">  1       21 0.53736610E-02 0.17641777E+03</pdfrwt>
<pdfrwt beam="2">  1       21 0.14194490E+00 0.17641777E+03</pdfrwt>
<totfact> 0.82830478E+04</totfact>
</mgrwt>
</event>
<event>
 4    1  0.4067306E+000  0.2578924E+03  0.7546771E-02  0.1108416E+00
         21   -1    0    0  501  502  0.00000000000E+00  0.00000000000E+00  0.38743157308E+03  0.38743157308E+03  0.00000000000E+00 0. -1.
         21   -1    0    0  502  503 -0.00000000000E+00 -0.00000000000E+00 -0.25210076767E+03  0.25210076767E+03  0.00000000000E+00 0.  1.
          6    1    1    2  501    0 -0.77072081851E+02 -0.17504101991E+03  0.24828708115E+03  0.35798734492E+03  0.17300000000E+03 0. -1.
         -6    1    1    2    0  503  0.77072081851E+02  0.17504101991E+03 -0.11295627574E+03  0.28154499584E+03  0.17300000000E+03 0.  1.
<mgrwt>
<rscale>  2 0.25789235E+03</rscale>
<asrwt>0</asrwt>
<pdfrwt beam="1">  1       21 0.59604857E-01 0.25789235E+03</pdfrwt>
<pdfrwt beam="2">  1       21 0.38784733E-01 0.25789235E+03</pdfrwt>
<totfact> 0.16243217E+04</totfact>
</mgrwt>
</event>
<event>
 4    1  0.4067306E+000  0.1791144E+03  0.7546771E-02  0.1168663E+00
         21   -1    0    0  501  502  0.00000000000E+00  0.00000000000E+00  0.66853150367E+03  0.66853150367E+03  0.00000000000E+00 0.  1.
         21   -1    0    0  502  503 -0.00000000000E+00 -0.00000000000E+00 -0.48836901867E+02  0.48836901867E+02  0.00000000000E+00 0.  1.
          6    1    1    2  501    0  0.42487308628E+02  0.18649516724E+02  0.35711678675E+03  0.39951767827E+03  0.17300000000E+03 0.  1.
         -6    1    1    2    0  503 -0.42487308628E+02 -0.18649516724E+02  0.26257781506E+03  0.31785072727E+03  0.17300000000E+03 0.  1.
<mgrwt>
<rscale>  2 0.17911442E+03</rscale>
<asrwt>0</asrwt>
<pdfrwt beam="1">  1       21 0.10285099E+00 0.17911442E+03</pdfrwt>
<pdfrwt beam="2">  1       21 0.75133700E-02 0.17911442E+03</pdfrwt>
<totfact> 0.10331641E+05</totfact>
</mgrwt>
</event>
<event>
 4    1  0.4067306E+000  0.1757322E+03  0.7546771E-02  0.1171999E+00
         21   -1    0    0  501  502  0.00000000000E+00  0.00000000000E+00  0.19024105159E+03  0.19024105159E+03  0.00000000000E+00 0. -1.
         21   -1    0    0  502  503 -0.00000000000E+00 -0.00000000000E+00 -0.20344781394E+03  0.20344781394E+03  0.00000000000E+00 0. -1.
          6    1    1    2  501    0 -0.26403098627E+02 -0.15990187053E+02  0.81890285865E+02  0.19387580720E+03  0.17300000000E+03 0. -1.
         -6    1    1    2    0  503  0.26403098627E+02  0.15990187053E+02 -0.95097048213E+02  0.19981305833E+03  0.17300000000E+03 0. -1.
<mgrwt>
<rscale>  2 0.17573221E+03</rscale>
<asrwt>0</asrwt>
<pdfrwt beam="1">  1       21 0.29267854E-01 0.17573221E+03</pdfrwt>
<pdfrwt beam="2">  1       21 0.31299664E-01 0.17573221E+03</pdfrwt>
<totfact> 0.11035337E+05</totfact>
</mgrwt>
</event>
<event>
 4    1  0.4067306E+000  0.1988971E+03  0.7546771E-02  0.1150673E+00
         21   -1    0    0  503  502  0.00000000000E+00  0.00000000000E+00  0.21424612409E+03  0.21424612409E+03  0.00000000000E+00 0.  1.
         21   -1    0    0  501  503 -0.00000000000E+00 -0.00000000000E+00 -0.21116955396E+03  0.21116955396E+03  0.00000000000E+00 0.  1.
          6    1    1    2  501    0 -0.92764062201E+02 -0.32029526153E+02 -0.73844032997E+02  0.21216268049E+03  0.17300000000E+03 0.  1.
         -6    1    1    2    0  502  0.92764062201E+02  0.32029526153E+02  0.76920603131E+02  0.21325299756E+03  0.17300000000E+03 0.  1.
<mgrwt>
<rscale>  2 0.19889711E+03</rscale>
<asrwt>0</asrwt>
<pdfrwt beam="1">  1       21 0.32960942E-01 0.19889711E+03</pdfrwt>
<pdfrwt beam="2">  1       21 0.32487623E-01 0.19889711E+03</pdfrwt>
<totfact> 0.80574559E+04</totfact>
</mgrwt>
</event>
<event>
 4    1  0.4067306E+000  0.1820420E+03  0.7546771E-02  0.1165841E+00
         21   -1    0    0  501  502  0.00000000000E+00  0.00000000000E+00  0.33087868461E+03  0.33087868461E+03  0.00000000000E+00 0. -1.
         21   -1    0    0  502  503 -0.00000000000E+00 -0.00000000000E+00 -0.13928581843E+03  0.13928581843E+03  0.00000000000E+00 0. -1.
          6    1    1    2  501    0 -0.42872675758E+02 -0.37043318355E+02  0.22039810206E+03  0.28585765190E+03  0.17300000000E+03 0.  1.
         -6    1    1    2    0  503  0.42872675758E+02  0.37043318355E+02 -0.28805235881E+02  0.18430685114E+03  0.17300000000E+03 0.  1.
<mgrwt>
<rscale>  2 0.18204196E+03</rscale>
<asrwt>0</asrwt>
<pdfrwt beam="1">  1       21 0.50904413E-01 0.18204196E+03</pdfrwt>
<pdfrwt beam="2">  1       21 0.21428588E-01 0.18204196E+03</pdfrwt>
<totfact> 0.74779024E+04</totfact>
</mgrwt>
</event>
<event>
 4    1  0.4067306E+000  0.1964980E+03  0.7546771E-02  0.1152728E+00
         21   -1    0    0  503  502  0.00000000000E+00  0.00000000000E+00  0.23178219049E+04  0.23178219049E+04  0.00000000000E+00 0.  1.
         21   -1    0    0  501  503 -0.00000000000E+00 -0.00000000000E+00 -0.26983252572E+02  0.26983252572E+02  0.00000000000E+00 0.  1.
          6    1    1    2  501    0  0.88474416704E+02 -0.29235929408E+02  0.42020026838E+03  0.46387468947E+03  0.17300000000E+03 0.  1.
         -6    1    1    2    0  502 -0.88474416704E+02  0.29235929408E+02  0.18706383839E+04  0.18809304680E+04  0.17300000000E+03 0.  1.
<mgrwt>
<rscale>  2 0.19649799E+03</rscale>
<asrwt>0</asrwt>
<pdfrwt beam="1">  1       21 0.35658783E+00 0.19649799E+03</pdfrwt>
<pdfrwt beam="2">  1       21 0.41512714E-02 0.19649799E+03</pdfrwt>
<totfact> 0.58571655E+03</totfact>
</mgrwt>
</event>
<event>
 4    1  0.4067306E+000  0.1933518E+03  0.7546771E-02  0.1155473E+00
         21   -1    0    0  501  502  0.00000000000E+00  0.00000000000E+00  0.90018668251E+02  0.90018668251E+02  0.00000000000E+00 0. -1.
         21   -1    0    0  502  503 -0.00000000000E+00 -0.00000000000E+00 -0.17216364465E+04  0.17216364465E+04  0.00000000000E+00 0. -1.
          6    1    1    2  501    0 -0.10176146670E+02  0.85745888161E+02 -0.26763412956E+02  0.19519526524E+03  0.17300000000E+03 0. -1.
         -6    1    1    2    0  503  0.10176146670E+02 -0.85745888161E+02 -0.16048543653E+04  0.16164598496E+04  0.17300000000E+03 0. -1.
<mgrwt>
<rscale>  2 0.19335178E+03</rscale>
<asrwt>0</asrwt>
<pdfrwt beam="1">  1       21 0.13849026E-01 0.19335178E+03</pdfrwt>
<pdfrwt beam="2">  1       21 0.26486714E+00 0.19335178E+03</pdfrwt>
<totfact> 0.24667000E+03</totfact>
</mgrwt>
</event>
<event>
 4    1  0.4067306E+000  0.1932271E+03  0.7546771E-02  0.1155583E+00
         21   -1    0    0  503  502  0.00000000000E+00  0.00000000000E+00  0.33054152877E+02  0.33054152877E+02  0.00000000000E+00 0.  1.
         21   -1    0    0  501  503 -0.00000000000E+00 -0.00000000000E+00 -0.11940809194E+04  0.11940809194E+04  0.00000000000E+00 0.  1.
          6    1    1    2  501    0 -0.70525181146E+02 -0.49334499817E+02 -0.72313691044E+03  0.74850763876E+03  0.17300000000E+03 0.  1.
         -6    1    1    2    0  502  0.70525181146E+02  0.49334499817E+02 -0.43788985606E+03  0.47862743349E+03  0.17300000000E+03 0.  1.
<mgrwt>
<rscale>  2 0.19322705E+03</rscale>
<asrwt>0</asrwt>
<pdfrwt beam="1">  1       21 0.50852551E-02 0.19322705E+03</pdfrwt>
<pdfrwt beam="2">  1       21 0.18370473E+00 0.19322705E+03</pdfrwt>
<totfact> 0.44880857E+04</totfact>
</mgrwt>
</event>
<event>
 4    1  0.4067306E+000  0.1778217E+03  0.7546771E-02  0.1169928E+00
         21   -1    0    0  501  502  0.00000000000E+00  0.00000000000E+00  0.17059849966E+04  0.17059849966E+04  0.00000000000E+00 0. -1.
         21   -1    0    0  502  503 -0.00000000000E+00 -0.00000000000E+00 -0.10659466735E+03  0.10659466735E+03  0.00000000000E+00 0. -1.
          6    1    1    2  501    0  0.10635123717E+02  0.39729810763E+02  0.16234305035E+04  0.16331402767E+04  0.17300000000E+03 0. -1.
         -6    1    1    2    0  503 -0.10635123717E+02 -0.39729810763E+02 -0.24040174244E+02  0.17943938725E+03  0.17300000000E+03 0. -1.
<mgrwt>
<rscale>  2 0.17782172E+03</rscale>
<asrwt>0</asrwt>
<pdfrwt beam="1">  1       21 0.26245921E+00 0.17782172E+03</pdfrwt>
<pdfrwt beam="2">  1       21 0.16399181E-01 0.17782172E+03</pdfrwt>
<totfact> 0.19084189E+03</totfact>
</mgrwt>
</event>
<event>
 4    1  0.4067306E+000  0.1795730E+03  0.7546771E-02  0.1168217E+00
         21   -1    0    0  503  502  0.00000000000E+00  0.00000000000E+00  0.33588884079E+03  0.33588884079E+03  0.00000000000E+00 0. -1.
         21   -1    0    0  501  503 -0.00000000000E+00 -0.00000000000E+00 -0.13331310613E+03  0.13331310613E+03  0.00000000000E+00 0. -1.
          6    1    1    2  501    0 -0.11343693332E+02  0.46784314904E+02 -0.22821520565E+02  0.18101732873E+03  0.17300000000E+03 0. -1.
         -6    1    1    2    0  502  0.11343693332E+02 -0.46784314904E+02  0.22539725523E+03  0.28818461819E+03  0.17300000000E+03 0. -1.
<mgrwt>
<rscale>  2 0.17957297E+03</rscale>
<asrwt>0</asrwt>
<pdfrwt beam="1">  1       21 0.51675206E-01 0.17957297E+03</pdfrwt>
<pdfrwt beam="2">  1       21 0.20509709E-01 0.17957297E+03</pdfrwt>
<totfact> 0.78749592E+04</totfact>
</mgrwt>
</event>
<event>
 4    1  0.4067306E+000  0.1822418E+03  0.7546771E-02  0.1165651E+00
         21   -1    0    0  503  502  0.00000000000E+00  0.00000000000E+00  0.16194364855E+03  0.16194364855E+03  0.00000000000E+00 0. -1.
         21   -1    0    0  501  503 -0.00000000000E+00 -0.00000000000E+00 -0.29264433884E+03  0.29264433884E+03  0.00000000000E+00 0. -1.
          6    1    1    2  501    0  0.57128573208E+02 -0.44031117845E+01 -0.18967906409E+03  0.26304031749E+03  0.17300000000E+03 0. -1.
         -6    1    1    2    0  502 -0.57128573208E+02  0.44031117845E+01  0.58978373795E+02  0.19154766990E+03  0.17300000000E+03 0. -1.
<mgrwt>
<rscale>  2 0.18224177E+03</rscale>
<asrwt>0</asrwt>
<pdfrwt beam="1">  1       21 0.24914407E-01 0.18224177E+03</pdfrwt>
<pdfrwt beam="2">  1       21 0.45022206E-01 0.18224177E+03</pdfrwt>
<totfact> 0.72488867E+04</totfact>
</mgrwt>
</event>
<event>
 4    1  0.4067306E+000  0.1842980E+03  0.7546771E-02  0.1163707E+00
         21   -1    0    0  503  502  0.00000000000E+00  0.00000000000E+00  0.15351754970E+03  0.15351754970E+03  0.00000000000E+00 0.  1.
         21   -1    0    0  501  503 -0.00000000000E+00 -0.00000000000E+00 -0.22642491029E+03  0.22642491029E+03  0.00000000000E+00 0. -1.
          6    1    1    2  501    0  0.60402206632E+02 -0.19705601003E+02 -0.65173570433E+02  0.19548230498E+03  0.17300000000E+03 0.  1.
         -6    1    1    2    0  502 -0.60402206632E+02  0.19705601003E+02 -0.77337901528E+01  0.18446015501E+03  0.17300000000E+03 0.  1.
<mgrwt>
<rscale>  2 0.18429796E+03</rscale>
<asrwt>0</asrwt>
<pdfrwt beam="1">  1       21 0.23618085E-01 0.18429796E+03</pdfrwt>
<pdfrwt beam="2">  1       21 0.34834602E-01 0.18429796E+03</pdfrwt>
<totfact> 0.13445159E+05</totfact>
</mgrwt>
</event>
<event>
 4    1  0.4067306E+000  0.1996112E+03  0.7546771E-02  0.1150067E+00
         21   -1    0    0  501  502  0.00000000000E+00  0.00000000000E+00  0.43774876276E+02  0.43774876276E+02  0.00000000000E+00 0. -1.
         21   -1    0    0  502  503 -0.00000000000E+00 -0.00000000000E+00 -0.92054724879E+03  0.92054724879E+03  0.00000000000E+00 0. -1.
          6    1    1    2  501    0  0.77830459934E+02  0.62113317828E+02 -0.48946261841E+03  0.52860032119E+03  0.17300000000E+03 0. -1.
         -6    1    1    2    0  503 -0.77830459934E+02 -0.62113317828E+02 -0.38730975410E+03  0.43572180387E+03  0.17300000000E+03 0. -1.
<mgrwt>
<rscale>  2 0.19961123E+03</rscale>
<asrwt>0</asrwt>
<pdfrwt beam="1">  1       21 0.67345968E-02 0.19961123E+03</pdfrwt>
<pdfrwt beam="2">  1       21 0.14162265E+00 0.19961123E+03</pdfrwt>
<totfact> 0.55946972E+04</totfact>
</mgrwt>
</event>
<event>
 4    1  0.4067306E+000  0.2399397E+03  0.7546771E-02  0.1119833E+00
         21   -1    0    0  501  502  0.00000000000E+00  0.00000000000E+00  0.12829402002E+03  0.12829402002E+03  0.00000000000E+00 0. -1.
         21   -1    0    0  502  503 -0.00000000000E+00 -0.00000000000E+00 -0.48337631779E+03  0.48337631779E+03  0.00000000000E+00 0.  1.
          6    1    1    2  501    0  0.42961957153E+02  0.16061238515E+03 -0.95677596419E+02  0.25831235062E+03  0.17300000000E+03 0. -1.
         -6    1    1    2    0  503 -0.42961957153E+02 -0.16061238515E+03 -0.25940470135E+03  0.35335798719E+03  0.17300000000E+03 0.  1.
<mgrwt>
<rscale>  2 0.23993972E+03</rscale>
<asrwt>0</asrwt>
<pdfrwt beam="1">  1       21 0.19737541E-01 0.23993972E+03</pdfrwt>
<pdfrwt beam="2">  1       21 0.74365590E-01 0.23993972E+03</pdfrwt>
<totfact> 0.37451188E+04</totfact>
</mgrwt>
</event>
<event>
 4    1  0.4067306E+000  0.2671463E+03  0.7546771E-02  0.1102924E+00
         21   -1    0    0  501  502  0.00000000000E+00  0.00000000000E+00  0.24874649642E+03  0.24874649642E+03  0.00000000000E+00 0. -1.
         21   -1    0    0  502  503 -0.00000000000E+00 -0.00000000000E+00 -0.30067268797E+03  0.30067268797E+03  0.00000000000E+00 0. -1.
          6    1    1    2  501    0  0.12797160205E+03 -0.15830800190E+03  0.32816019592E+02  0.26915431547E+03  0.17300000000E+03 0. -1.
         -6    1    1    2    0  503 -0.12797160205E+03  0.15830800190E+03 -0.84742211143E+02  0.28026486891E+03  0.17300000000E+03 0. -1.
<mgrwt>
<rscale>  2 0.26714632E+03</rscale>
<asrwt>0</asrwt>
<pdfrwt beam="1">  1       21 0.38268692E-01 0.26714632E+03</pdfrwt>
<pdfrwt beam="2">  1       21 0.46257336E-01 0.26714632E+03</pdfrwt>
<totfact> 0.28430437E+04</totfact>
</mgrwt>
</event>
<event>
 4    1  0.4067306E+000  0.1732012E+03  0.7546771E-02  0.1174550E+00
         21   -1    0    0  501  502  0.00000000000E+00  0.00000000000E+00  0.93121263150E+03  0.93121263150E+03  0.00000000000E+00 0.  1.
         21   -1    0    0  502  503 -0.00000000000E+00 -0.00000000000E+00 -0.37950754826E+02  0.37950754826E+02  0.00000000000E+00 0.  1.
          6    1    1    2  501    0  0.63047030972E+01  0.54697367573E+01  0.63502456896E+03  0.65822098909E+03  0.17300000000E+03 0. -1.
         -6    1    1    2    0  503 -0.63047030972E+01 -0.54697367573E+01  0.25823730772E+03  0.31094239724E+03  0.17300000000E+03 0. -1.
<mgrwt>
<rscale>  2 0.17320123E+03</rscale>
<asrwt>0</asrwt>
<pdfrwt beam="1">  1       21 0.14326346E+00 0.17320123E+03</pdfrwt>
<pdfrwt beam="2">  1       21 0.58385784E-02 0.17320123E+03</pdfrwt>
<totfact> 0.70341146E+04</totfact>
</mgrwt>
</event>
<event>
 4    1  0.4067306E+000  0.2721333E+03  0.7546771E-02  0.1100065E+00
         21   -1    0    0  503  502  0.00000000000E+00  0.00000000000E+00  0.23526822744E+04  0.23526822744E+04  0.00000000000E+00 0.  1.
         21   -1    0    0  501  503 -0.00000000000E+00 -0.00000000000E+00 -0.31695339528E+02  0.31695339528E+02  0.00000000000E+00 0. -1.
          6    1    1    2  501    0  0.20997010761E+03 -0.63293562063E+01  0.12593343538E+04  0.12884019255E+04  0.17300000000E+03 0.  1.
         -6    1    1    2    0  502 -0.20997010761E+03  0.63293562063E+01  0.10616525811E+04  0.10959756885E+04  0.17300000000E+03 0. -1.
<mgrwt>
<rscale>  2 0.27213325E+03</rscale>
<asrwt>0</asrwt>
<pdfrwt beam="1">  1       21 0.36195098E+00 0.27213325E+03</pdfrwt>
<pdfrwt beam="2">  1       21 0.48762079E-02 0.27213325E+03</pdfrwt>
<totfact> 0.38166715E+03</totfact>
</mgrwt>
</event>
<event>
 4    1  0.4067306E+000  0.2428157E+03  0.7546771E-02  0.1117931E+00
         21   -1    0    0  501  502  0.00000000000E+00  0.00000000000E+00  0.24160723696E+03  0.24160723696E+03  0.00000000000E+00 0. -1.
         21   -1    0    0  502  503 -0.00000000000E+00 -0.00000000000E+00 -0.31866380291E+03  0.31866380291E+03  0.00000000000E+00 0. -1.
          6    1    1    2  501    0 -0.10850030774E+03  0.13137017919E+03  0.97043489927E+02  0.26148973153E+03  0.17300000000E+03 0. -1.
         -6    1    1    2    0  503  0.10850030774E+03 -0.13137017919E+03 -0.17410005588E+03  0.29878130834E+03  0.17300000000E+03 0. -1.
<mgrwt>
<rscale>  2 0.24281565E+03</rscale>
<asrwt>0</asrwt>
<pdfrwt beam="1">  1       21 0.37170344E-01 0.24281565E+03</pdfrwt>
<pdfrwt beam="2">  1       21 0.49025200E-01 0.24281565E+03</pdfrwt>
<totfact> 0.26998227E+04</totfact>
</mgrwt>
</event>
<event>
 4    1  0.4067306E+000  0.1757803E+03  0.7546771E-02  0.1171950E+00
         21   -1    0    0  501  502  0.00000000000E+00  0.00000000000E+00  0.71939885101E+02  0.71939885101E+02  0.00000000000E+00 0. -1.
         21   -1    0    0  502  503 -0.00000000000E+00 -0.00000000000E+00 -0.62812416608E+03  0.62812416608E+03  0.00000000000E+00 0. -1.
          6    1    1    2  501    0  0.12275415523E+02 -0.28618762253E+02 -0.81261418152E+02  0.19365468613E+03  0.17300000000E+03 0. -1.
         -6    1    1    2    0  503 -0.12275415523E+02  0.28618762253E+02 -0.47492286283E+03  0.50640936506E+03  0.17300000000E+03 0. -1.
<mgrwt>
<rscale>  2 0.17578032E+03</rscale>
<asrwt>0</asrwt>
<pdfrwt beam="1">  1       21 0.11067674E-01 0.17578032E+03</pdfrwt>
<pdfrwt beam="2">  1       21 0.96634488E-01 0.17578032E+03</pdfrwt>
<totfact> 0.60819753E+04</totfact>
</mgrwt>
</event>
<event>
 4    1  0.4067306E+000  0.2264180E+03  0.7546771E-02  0.1129187E+00
         21   -1    0    0  503  502  0.00000000000E+00  0.00000000000E+00  0.17726905528E+03  0.17726905528E+03  0.00000000000E+00 0.  1.
         21   -1    0    0  501  503 -0.00000000000E+00 -0.00000000000E+00 -0.48433850289E+03  0.48433850289E+03  0.00000000000E+00 0.  1.
          6    1    1    2  501    0 -0.14605411841E+03  0.20719221997E+01 -0.36351303192E+03  0.42826022784E+03  0.17300000000E+03 0.  1.
         -6    1    1    2    0  502  0.14605411841E+03 -0.20719221997E+01  0.56443584312E+02  0.23334733034E+03  0.17300000000E+03 0.  1.
<mgrwt>
<rscale>  2 0.22641797E+03</rscale>
<asrwt>0</asrwt>
<pdfrwt beam="1">  1       21 0.27272163E-01 0.22641797E+03</pdfrwt>
<pdfrwt beam="2">  1       21 0.74513614E-01 0.22641797E+03</pdfrwt>
<totfact> 0.20279476E+04</totfact>
</mgrwt>
</event>
<event>
 4    1  0.4067306E+000  0.1818054E+03  0.7546771E-02  0.1166067E+00
         21   -1    0    0  501  502  0.00000000000E+00  0.00000000000E+00  0.28212425800E+03  0.28212425800E+03  0.00000000000E+00 0.  1.
         21   -1    0    0  502  503 -0.00000000000E+00 -0.00000000000E+00 -0.18464689194E+03  0.18464689194E+03  0.00000000000E+00 0.  1.
          6    1    1    2  501    0 -0.14183918502E+02  0.54064885596E+02  0.18983582841E+03  0.26285135941E+03  0.17300000000E+03 0.  1.
         -6    1    1    2    0  503  0.14183918502E+02 -0.54064885596E+02 -0.92358462350E+02  0.20391979052E+03  0.17300000000E+03 0.  1.
<mgrwt>
<rscale>  2 0.18180538E+03</rscale>
<asrwt>0</asrwt>
<pdfrwt beam="1">  1       21 0.43403732E-01 0.18180538E+03</pdfrwt>
<pdfrwt beam="2">  1       21 0.28407214E-01 0.18180538E+03</pdfrwt>
<totfact> 0.60744337E+04</totfact>
</mgrwt>
</event>
<event>
 4    1  0.4067306E+000  0.2135014E+03  0.7546771E-02  0.1138823E+00
         21   -1    0    0  501  502  0.00000000000E+00  0.00000000000E+00  0.12242196729E+03  0.12242196729E+03  0.00000000000E+00 0.  1.
         21   -1    0    0  502  503 -0.00000000000E+00 -0.00000000000E+00 -0.87771909804E+03  0.87771909804E+03  0.00000000000E+00 0.  1.
          6    1    1    2  501    0 -0.10898124818E+03  0.61456938299E+02  0.18072139011E+01  0.21350909522E+03  0.17300000000E+03 0.  1.
         -6    1    1    2    0  503  0.10898124818E+03 -0.61456938299E+02 -0.75710434465E+03  0.78663197012E+03  0.17300000000E+03 0.  1.
<mgrwt>
<rscale>  2 0.21350145E+03</rscale>
<asrwt>0</asrwt>
<pdfrwt beam="1">  1       21 0.18834149E-01 0.21350145E+03</pdfrwt>
<pdfrwt beam="2">  1       21 0.13503371E+00 0.21350145E+03</pdfrwt>
<totfact> 0.99833075E+03</totfact>
</mgrwt>
</event>
<event>
 4    1  0.4067306E+000  0.1938784E+03  0.7546771E-02  0.1155009E+00
         21   -1    0    0  503  502  0.00000000000E+00  0.00000000000E+00  0.78909865659E+03  0.78909865659E+03  0.00000000000E+00 0. -1.
         21   -1    0    0  501  503 -0.00000000000E+00 -0.00000000000E+00 -0.55806238711E+02  0.55806238711E+02  0.00000000000E+00 0. -1.
          6    1    1    2  501    0  0.45751223450E+01 -0.87400861878E+02  0.20499606476E+03  0.28215639098E+03  0.17300000000E+03 0. -1.
         -6    1    1    2    0  502 -0.45751223450E+01  0.87400861878E+02  0.52829635311E+03  0.56274850432E+03  0.17300000000E+03 0. -1.
<mgrwt>
<rscale>  2 0.19387842E+03</rscale>
<asrwt>0</asrwt>
<pdfrwt beam="1">  1       21 0.12139979E+00 0.19387842E+03</pdfrwt>
<pdfrwt beam="2">  1       21 0.85855757E-02 0.19387842E+03</pdfrwt>
<totfact> 0.54402302E+04</totfact>
</mgrwt>
</event>
<event>
 4    1  0.4067306E+000  0.2009684E+03  0.7546771E-02  0.1148925E+00
         21   -1    0    0  503  502  0.00000000000E+00  0.00000000000E+00  0.74590352222E+02  0.74590352222E+02  0.00000000000E+00 0. -1.
         21   -1    0    0  501  503 -0.00000000000E+00 -0.00000000000E+00 -0.70490090931E+03  0.70490090931E+03  0.00000000000E+00 0. -1.
          6    1    1    2  501    0  0.55882593860E+02 -0.85652920697E+02 -0.50282188738E+03  0.54149620271E+03  0.17300000000E+03 0. -1.
         -6    1    1    2    0  502 -0.55882593860E+02  0.85652920697E+02 -0.12748866971E+03  0.23799505883E+03  0.17300000000E+03 0. -1.
<mgrwt>
<rscale>  2 0.20096837E+03</rscale>
<asrwt>0</asrwt>
<pdfrwt beam="1">  1       21 0.11475439E-01 0.20096837E+03</pdfrwt>
<pdfrwt beam="2">  1       21 0.10844629E+00 0.20096837E+03</pdfrwt>
<totfact> 0.42770639E+04</totfact>
</mgrwt>
</event>
<event>
 4    1  0.4067306E+000  0.1895596E+03  0.7546771E-02  0.1158859E+00
         21   -1    0    0  501  502  0.00000000000E+00  0.00000000000E+00  0.10209100425E+03  0.10209100425E+03  0.00000000000E+00 0. -1.
         21   -1    0    0  502  503 -0.00000000000E+00 -0.00000000000E+00 -0.40663523009E+03  0.40663523009E+03  0.00000000000E+00 0.  1.
          6    1    1    2  501    0 -0.84247863129E+01  0.77025075071E+02 -0.59008476231E+02  0.19853170901E+03  0.17300000000E+03 0. -1.
         -6    1    1    2    0  503  0.84247863129E+01 -0.77025075071E+02 -0.24553574961E+03  0.31019452534E+03  0.17300000000E+03 0.  1.
<mgrwt>
<rscale>  2 0.18955959E+03</rscale>
<asrwt>0</asrwt>
<pdfrwt beam="1">  1       21 0.15706308E-01 0.18955959E+03</pdfrwt>
<pdfrwt beam="2">  1       21 0.62559266E-01 0.18955959E+03</pdfrwt>
<totfact> 0.85528155E+04</totfact>
</mgrwt>
</event>
<event>
 4    1  0.4067306E+000  0.3448642E+03  0.7546771E-02  0.1064743E+00
         21   -1    0    0  501  502  0.00000000000E+00  0.00000000000E+00  0.26342872562E+03  0.26342872562E+03  0.00000000000E+00 0. -1.
         21   -1    0    0  502  503 -0.00000000000E+00 -0.00000000000E+00 -0.80320645698E+03  0.80320645698E+03  0.00000000000E+00 0. -1.
          6    1    1    2  501    0 -0.28981985668E+03 -0.70758302637E+02  0.83032849372E+02  0.35471924221E+03  0.17300000000E+03 0. -1.
         -6    1    1    2    0  503  0.28981985668E+03  0.70758302637E+02 -0.62281058073E+03  0.71191594039E+03  0.17300000000E+03 0. -1.
<mgrwt>
<rscale>  2 0.34486416E+03</rscale>
<asrwt>0</asrwt>
<pdfrwt beam="1">  1       21 0.40527497E-01 0.34486416E+03</pdfrwt>
<pdfrwt beam="2">  1       21 0.12357022E+00 0.34486416E+03</pdfrwt>
<totfact> 0.26024923E+03</totfact>
</mgrwt>
</event>
<event>
 4    1  0.4067306E+000  0.3019242E+03  0.7546771E-02  0.1084283E+00
         21   -1    0    0  501  502  0.00000000000E+00  0.00000000000E+00  0.98958856622E+02  0.98958856622E+02  0.00000000000E+00 0.  1.
         21   -1    0    0  502  503 -0.00000000000E+00 -0.00000000000E+00 -0.17751373430E+04  0.17751373430E+04  0.00000000000E+00 0. -1.
          6    1    1    2  501    0  0.20146450481E+03 -0.14367071318E+03 -0.18816043278E+03  0.35575633373E+03  0.17300000000E+03 0.  1.
         -6    1    1    2    0  503 -0.20146450481E+03  0.14367071318E+03 -0.14880180536E+04  0.15183398659E+04  0.17300000000E+03 0.  1.
<mgrwt>
<rscale>  2 0.30192420E+03</rscale>
<asrwt>0</asrwt>
<pdfrwt beam="1">  1       21 0.15224440E-01 0.30192420E+03</pdfrwt>
<pdfrwt beam="2">  1       21 0.27309805E+00 0.30192420E+03</pdfrwt>
<totfact> 0.16753934E+03</totfact>
</mgrwt>
</event>
<event>
 4    1  0.4067306E+000  0.1967014E+03  0.7546771E-02  0.1152552E+00
         21   -1    0    0  501  502  0.00000000000E+00  0.00000000000E+00  0.97682485757E+02  0.97682485757E+02  0.00000000000E+00 0.  1.
         21   -1    0    0  502  503 -0.00000000000E+00 -0.00000000000E+00 -0.48738139260E+03  0.48738139260E+03  0.00000000000E+00 0.  1.
          6    1    1    2  501    0 -0.84448792799E+02 -0.40383584051E+02 -0.68246288906E+02  0.20820419884E+03  0.17300000000E+03 0.  1.
         -6    1    1    2    0  503  0.84448792799E+02  0.40383584051E+02 -0.32145261794E+03  0.37685967952E+03  0.17300000000E+03 0.  1.
<mgrwt>
<rscale>  2 0.19670138E+03</rscale>
<asrwt>0</asrwt>
<pdfrwt beam="1">  1       21 0.15028075E-01 0.19670138E+03</pdfrwt>
<pdfrwt beam="2">  1       21 0.74981753E-01 0.19670138E+03</pdfrwt>
<totfact> 0.62074427E+04</totfact>
</mgrwt>
</event>
<event>
 4    1  0.4067306E+000  0.2185089E+03  0.7546771E-02  0.1135000E+00
         21   -1    0    0  501  502  0.00000000000E+00  0.00000000000E+00  0.39441070486E+03  0.39441070486E+03  0.00000000000E+00 0. -1.
         21   -1    0    0  502  503 -0.00000000000E+00 -0.00000000000E+00 -0.13259169683E+03  0.13259169683E+03  0.00000000000E+00 0.  1.
          6    1    1    2  501    0  0.55983632457E+02 -0.12117329398E+03  0.20862892412E+03  0.30211283034E+03  0.17300000000E+03 0.  1.
         -6    1    1    2    0  503 -0.55983632457E+02  0.12117329398E+03  0.53190083904E+02  0.22488957135E+03  0.17300000000E+03 0. -1.
<mgrwt>
<rscale>  2 0.21850889E+03</rscale>
<asrwt>0</asrwt>
<pdfrwt beam="1">  1       21 0.60678569E-01 0.21850889E+03</pdfrwt>
<pdfrwt beam="2">  1       21 0.20398723E-01 0.21850889E+03</pdfrwt>
<totfact> 0.55594544E+04</totfact>
</mgrwt>
</event>
<event>
 4    1  0.4067306E+000  0.1796071E+03  0.7546771E-02  0.1168184E+00
         21   -1    0    0  503  502  0.00000000000E+00  0.00000000000E+00  0.14366128763E+04  0.14366128763E+04  0.00000000000E+00 0. -1.
         21   -1    0    0  501  503 -0.00000000000E+00 -0.00000000000E+00 -0.30066286629E+02  0.30066286629E+02  0.00000000000E+00 0. -1.
          6    1    1    2  501    0  0.44916983077E+01  0.48057487625E+02  0.33429306364E+03  0.37948721964E+03  0.17300000000E+03 0. -1.
         -6    1    1    2    0  502 -0.44916983077E+01 -0.48057487625E+02  0.10722535260E+04  0.10871919433E+04  0.17300000000E+03 0. -1.
<mgrwt>
<rscale>  2 0.17960706E+03</rscale>
<asrwt>0</asrwt>
<pdfrwt beam="1">  1       21 0.22101731E+00 0.17960706E+03</pdfrwt>
<pdfrwt beam="2">  1       21 0.46255837E-02 0.17960706E+03</pdfrwt>
<totfact> 0.30735663E+04</totfact>
</mgrwt>
</event>
<event>
 4    1  0.4067306E+000  0.1939974E+03  0.7546771E-02  0.1154905E+00
         21   -1    0    0  501  502  0.00000000000E+00  0.00000000000E+00  0.11375684503E+03  0.11375684503E+03  0.00000000000E+00 0. -1.
         21   -1    0    0  502  503 -0.00000000000E+00 -0.00000000000E+00 -0.33088191419E+03  0.33088191419E+03  0.00000000000E+00 0. -1.
          6    1    1    2  501    0  0.42909456870E+02  0.76581868803E+02 -0.11114491729E+03  0.22358040334E+03  0.17300000000E+03 0. -1.
         -6    1    1    2    0  503 -0.42909456870E+02 -0.76581868803E+02 -0.10598015187E+03  0.22105835589E+03  0.17300000000E+03 0. -1.
<mgrwt>
<rscale>  2 0.19399743E+03</rscale>
<asrwt>0</asrwt>
<pdfrwt beam="1">  1       21 0.17501053E-01 0.19399743E+03</pdfrwt>
<pdfrwt beam="2">  1       21 0.50904911E-01 0.19399743E+03</pdfrwt>
<totfact> 0.10848780E+05</totfact>
</mgrwt>
</event>
<event>
 4    1  0.4067306E+000  0.1851671E+03  0.7546771E-02  0.1162894E+00
         21   -1    0    0  503  502  0.00000000000E+00  0.00000000000E+00  0.11495659078E+04  0.11495659078E+04  0.00000000000E+00 0. -1.
         21   -1    0    0  501  503 -0.00000000000E+00 -0.00000000000E+00 -0.93675827874E+02  0.93675827874E+02  0.00000000000E+00 0. -1.
          6    1    1    2  501    0  0.52985090329E+01  0.65801083170E+02  0.14738756726E+02  0.18575275959E+03  0.17300000000E+03 0. -1.
         -6    1    1    2    0  502 -0.52985090329E+01 -0.65801083170E+02  0.10411513232E+04  0.10574889761E+04  0.17300000000E+03 0. -1.
<mgrwt>
<rscale>  2 0.18516710E+03</rscale>
<asrwt>0</asrwt>
<pdfrwt beam="1">  1       21 0.17685628E+00 0.18516710E+03</pdfrwt>
<pdfrwt beam="2">  1       21 0.14411667E-01 0.18516710E+03</pdfrwt>
<totfact> 0.81167758E+03</totfact>
</mgrwt>
</event>
<event>
 4    1  0.4067306E+000  0.4804361E+03  0.7546771E-02  0.1019015E+00
         21   -1    0    0  501  502  0.00000000000E+00  0.00000000000E+00  0.62120627452E+03  0.62120627452E+03  0.00000000000E+00 0. -1.
         21   -1    0    0  502  503 -0.00000000000E+00 -0.00000000000E+00 -0.46908682218E+03  0.46908682218E+03  0.00000000000E+00 0.  1.
          6    1    1    2  501    0 -0.44496238950E+03 -0.53836062323E+02  0.32462264166E+03  0.57982644745E+03  0.17300000000E+03 0. -1.
         -6    1    1    2    0  503  0.44496238950E+03  0.53836062323E+02 -0.17250318932E+03  0.51046664926E+03  0.17300000000E+03 0.  1.
<mgrwt>
<rscale>  2 0.48043610E+03</rscale>
<asrwt>0</asrwt>
<pdfrwt beam="1">  1       21 0.95570196E-01 0.48043610E+03</pdfrwt>
<pdfrwt beam="2">  1       21 0.72167204E-01 0.48043610E+03</pdfrwt>
<totfact> 0.13383792E+03</totfact>
</mgrwt>
</event>
<event>
 4    1  0.4067306E+000  0.2373979E+03  0.7546771E-02  0.1121538E+00
         21   -1    0    0  503  502  0.00000000000E+00  0.00000000000E+00  0.25006543620E+03  0.25006543620E+03  0.00000000000E+00 0.  1.
         21   -1    0    0  501  503 -0.00000000000E+00 -0.00000000000E+00 -0.22567675257E+03  0.22567675257E+03  0.00000000000E+00 0. -1.
          6    1    1    2  501    0 -0.13137897577E+03  0.95751504350E+02  0.34553248737E+01  0.23742309308E+03  0.17300000000E+03 0. -1.
         -6    1    1    2    0  502  0.13137897577E+03 -0.95751504350E+02  0.20933358756E+02  0.23831909569E+03  0.17300000000E+03 0. -1.
<mgrwt>
<rscale>  2 0.23739795E+03</rscale>
<asrwt>0</asrwt>
<pdfrwt beam="1">  1       21 0.38471606E-01 0.23739795E+03</pdfrwt>
<pdfrwt beam="2">  1       21 0.34719500E-01 0.23739795E+03</pdfrwt>
<totfact> 0.51050186E+04</totfact>
</mgrwt>
</event>
<event>
 4    1  0.4067306E+000  0.2004607E+03  0.7546771E-02  0.1149351E+00
         21   -1    0    0  501  502  0.00000000000E+00  0.00000000000E+00  0.81869552543E+02  0.81869552543E+02  0.00000000000E+00 0.  1.
         21   -1    0    0  502  503 -0.00000000000E+00 -0.00000000000E+00 -0.60210192731E+03  0.60210192731E+03  0.00000000000E+00 0.  1.
          6    1    1    2  501    0  0.13969489103E+02 -0.10030118776E+03 -0.11310335402E+03  0.23016699064E+03  0.17300000000E+03 0.  1.
         -6    1    1    2    0  503 -0.13969489103E+02  0.10030118776E+03 -0.40712902075E+03  0.45380448921E+03  0.17300000000E+03 0.  1.
<mgrwt>
<rscale>  2 0.20046066E+03</rscale>
<asrwt>0</asrwt>
<pdfrwt beam="1">  1       21 0.12595316E-01 0.20046066E+03</pdfrwt>
<pdfrwt beam="2">  1       21 0.92631066E-01 0.20046066E+03</pdfrwt>
<totfact> 0.52661711E+04</totfact>
</mgrwt>
</event>
<event>
 4    1  0.4067306E+000  0.1736777E+03  0.7546771E-02  0.1174066E+00
         21   -1    0    0  503  502  0.00000000000E+00  0.00000000000E+00  0.84207828755E+02  0.84207828755E+02  0.00000000000E+00 0.  1.
         21   -1    0    0  501  503 -0.00000000000E+00 -0.00000000000E+00 -0.99044482071E+03  0.99044482071E+03  0.00000000000E+00 0.  1.
          6    1    1    2  501    0  0.15018064522E+02  0.30646120229E+01 -0.88242038742E+03  0.89934958400E+03  0.17300000000E+03 0.  1.
         -6    1    1    2    0  502 -0.15018064522E+02 -0.30646120229E+01 -0.23816604532E+02  0.17530306546E+03  0.17300000000E+03 0.  1.
<mgrwt>
<rscale>  2 0.17367767E+03</rscale>
<asrwt>0</asrwt>
<pdfrwt beam="1">  1       21 0.12955051E-01 0.17367767E+03</pdfrwt>
<pdfrwt beam="2">  1       21 0.15237612E+00 0.17367767E+03</pdfrwt>
<totfact> 0.14872261E+04</totfact>
</mgrwt>
</event>
<event>
 4    1  0.4067306E+000  0.2014354E+03  0.7546771E-02  0.1148534E+00
         21   -1    0    0  503  502  0.00000000000E+00  0.00000000000E+00  0.47014541551E+02  0.47014541551E+02  0.00000000000E+00 0. -1.
         21   -1    0    0  501  503 -0.00000000000E+00 -0.00000000000E+00 -0.91321883754E+03  0.91321883754E+03  0.00000000000E+00 0. -1.
          6    1    1    2  501    0  0.86109906870E+02  0.56853353711E+02 -0.54562661047E+03  0.58162240151E+03  0.17300000000E+03 0. -1.
         -6    1    1    2    0  502 -0.86109906870E+02 -0.56853353711E+02 -0.32057768552E+03  0.37861097758E+03  0.17300000000E+03 0. -1.
<mgrwt>
<rscale>  2 0.20143540E+03</rscale>
<asrwt>0</asrwt>
<pdfrwt beam="1">  1       21 0.72330065E-02 0.20143540E+03</pdfrwt>
<pdfrwt beam="2">  1       21 0.14049520E+00 0.20143540E+03</pdfrwt>
<totfact> 0.50437081E+04</totfact>
</mgrwt>
</event>
<event>
 4    1  0.4067306E+000  0.1745636E+03  0.7546771E-02  0.1173171E+00
         21   -1    0    0  503  502  0.00000000000E+00  0.00000000000E+00  0.12169961551E+03  0.12169961551E+03  0.00000000000E+00 0. -1.
         21   -1    0    0  501  503 -0.00000000000E+00 -0.00000000000E+00 -0.30703540667E+03  0.30703540667E+03  0.00000000000E+00 0. -1.
          6    1    1    2  501    0 -0.22574169518E+02 -0.58185983429E+01 -0.18474348054E+03  0.25417042082E+03  0.17300000000E+03 0. -1.
         -6    1    1    2    0  502  0.22574169518E+02  0.58185983429E+01 -0.59231062286E+00  0.17456460136E+03  0.17300000000E+03 0. -1.
<mgrwt>
<rscale>  2 0.17456360E+03</rscale>
<asrwt>0</asrwt>
<pdfrwt beam="1">  1       21 0.18723018E-01 0.17456360E+03</pdfrwt>
<pdfrwt beam="2">  1       21 0.47236215E-01 0.17456360E+03</pdfrwt>
<totfact> 0.11266278E+05</totfact>
</mgrwt>
</event>
<event>
 4    1  0.4067306E+000  0.1842438E+03  0.7546771E-02  0.1163758E+00
         21   -1    0    0  503  502  0.00000000000E+00  0.00000000000E+00  0.18817396801E+02  0.18817396801E+02  0.00000000000E+00 0.  1.
         21   -1    0    0  501  503 -0.00000000000E+00 -0.00000000000E+00 -0.18296874417E+04  0.18296874417E+04  0.00000000000E+00 0.  1.
          6    1    1    2  501    0 -0.62242905019E+02  0.11941276296E+02 -0.10150390166E+04  0.10316249214E+04  0.17300000000E+03 0.  1.
         -6    1    1    2    0  502  0.62242905019E+02 -0.11941276296E+02 -0.79583102834E+03  0.81687991710E+03  0.17300000000E+03 0.  1.
<mgrwt>
<rscale>  2 0.18424379E+03</rscale>
<asrwt>0</asrwt>
<pdfrwt beam="1">  1       21 0.28949843E-02 0.18424379E+03</pdfrwt>
<pdfrwt beam="2">  1       21 0.28149036E+00 0.18424379E+03</pdfrwt>
<totfact> 0.29510928E+04</totfact>
</mgrwt>
</event>
<event>
 4    1  0.4067306E+000  0.1884720E+03  0.7546771E-02  0.1159847E+00
         21   -1    0    0  503  502  0.00000000000E+00  0.00000000000E+00  0.33477596236E+03  0.33477596236E+03  0.00000000000E+00 0. -1.
         21   -1    0    0  501  503 -0.00000000000E+00 -0.00000000000E+00 -0.27341279482E+03  0.27341279482E+03  0.00000000000E+00 0. -1.
          6    1    1    2  501    0 -0.74134872306E+02 -0.98349755323E+01 -0.20719729862E+03  0.28009360326E+03  0.17300000000E+03 0. -1.
         -6    1    1    2    0  502  0.74134872306E+02  0.98349755323E+01  0.26856046616E+03  0.32809515391E+03  0.17300000000E+03 0. -1.
<mgrwt>
<rscale>  2 0.18847203E+03</rscale>
<asrwt>0</asrwt>
<pdfrwt beam="1">  1       21 0.51503994E-01 0.18847203E+03</pdfrwt>
<pdfrwt beam="2">  1       21 0.42063507E-01 0.18847203E+03</pdfrwt>
<totfact> 0.19530701E+04</totfact>
</mgrwt>
</event>
<event>
 4    1  0.4067306E+000  0.2220224E+03  0.7546771E-02  0.1132384E+00
         21   -1    0    0  501  502  0.00000000000E+00  0.00000000000E+00  0.74449697252E+03  0.74449697252E+03  0.00000000000E+00 0.  1.
         21   -1    0    0  502  503 -0.00000000000E+00 -0.00000000000E+00 -0.12998599956E+03  0.12998599956E+03  0.00000000000E+00 0.  1.
          6    1    1    2  501    0  0.13775890954E+03 -0.19683040765E+02  0.61352098485E+03  0.65245838036E+03  0.17300000000E+03 0.  1.
         -6    1    1    2    0  503 -0.13775890954E+03  0.19683040765E+02  0.98998810257E+00  0.22202459172E+03  0.17300000000E+03 0.  1.
<mgrwt>
<rscale>  2 0.22202238E+03</rscale>
<asrwt>0</asrwt>
<pdfrwt beam="1">  1       21 0.11453799E+00 0.22202238E+03</pdfrwt>
<pdfrwt beam="2">  1       21 0.19997847E-01 0.22202238E+03</pdfrwt>
<totfact> 0.13407736E+04</totfact>
</mgrwt>
</event>
<event>
 4    1  0.4067306E+000  0.1957668E+03  0.7546771E-02  0.1153361E+00
         21   -1    0    0  501  502  0.00000000000E+00  0.00000000000E+00  0.27353080796E+02  0.27353080796E+02  0.00000000000E+00 0.  1.
         21   -1    0    0  502  503 -0.00000000000E+00 -0.00000000000E+00 -0.17237259593E+04  0.17237259593E+04  0.00000000000E+00 0.  1.
          6    1    1    2  501    0  0.74351019541E+02 -0.53549693669E+02 -0.46940792580E+03  0.50859457784E+03  0.17300000000E+03 0.  1.
         -6    1    1    2    0  503 -0.74351019541E+02  0.53549693669E+02 -0.12269649527E+04  0.12424844622E+04  0.17300000000E+03 0.  1.
<mgrwt>
<rscale>  2 0.19576681E+03</rscale>
<asrwt>0</asrwt>
<pdfrwt beam="1">  1       21 0.42081667E-02 0.19576681E+03</pdfrwt>
<pdfrwt beam="2">  1       21 0.26518858E+00 0.19576681E+03</pdfrwt>
<totfact> 0.19452413E+04</totfact>
</mgrwt>
</event>
<event>
 4    1  0.4067306E+000  0.2007384E+03  0.7546771E-02  0.1149117E+00
         21   -1    0    0  503  502  0.00000000000E+00  0.00000000000E+00  0.63449811328E+03  0.63449811328E+03  0.00000000000E+00 0.  1.
         21   -1    0    0  501  503 -0.00000000000E+00 -0.00000000000E+00 -0.11193483184E+03  0.11193483184E+03  0.00000000000E+00 0.  1.
          6    1    1    2  501    0  0.84920814045E+02  0.56172662823E+02  0.15799587209E+02  0.20135923039E+03  0.17300000000E+03 0.  1.
         -6    1    1    2    0  502 -0.84920814045E+02 -0.56172662823E+02  0.50676369423E+03  0.54507371473E+03  0.17300000000E+03 0.  1.
<mgrwt>
<rscale>  2 0.20073842E+03</rscale>
<asrwt>0</asrwt>
<pdfrwt beam="1">  1       21 0.97615093E-01 0.20073842E+03</pdfrwt>
<pdfrwt beam="2">  1       21 0.17220744E-01 0.20073842E+03</pdfrwt>
<totfact> 0.26352177E+04</totfact>
</mgrwt>
</event>
<event>
 4    1  0.4067306E+000  0.2044236E+03  0.7546771E-02  0.1146060E+00
         21   -1    0    0  501  502  0.00000000000E+00  0.00000000000E+00  0.13239410578E+03  0.13239410578E+03  0.00000000000E+00 0. -1.
         21   -1    0    0  502  503 -0.00000000000E+00 -0.00000000000E+00 -0.32231077295E+03  0.32231077295E+03  0.00000000000E+00 0. -1.
          6    1    1    2  501    0  0.46301650541E+02 -0.98570573443E+02 -0.62252931654E+02  0.21369236835E+03  0.17300000000E+03 0. -1.
         -6    1    1    2    0  503 -0.46301650541E+02  0.98570573443E+02 -0.12766373552E+03  0.24101251038E+03  0.17300000000E+03 0. -1.
<mgrwt>
<rscale>  2 0.20442358E+03</rscale>
<asrwt>0</asrwt>
<pdfrwt beam="1">  1       21 0.20368324E-01 0.20442358E+03</pdfrwt>
<pdfrwt beam="2">  1       21 0.49586272E-01 0.20442358E+03</pdfrwt>
<totfact> 0.86061370E+04</totfact>
</mgrwt>
</event>
<event>
 4    1  0.4067306E+000  0.1750347E+03  0.7546771E-02  0.1172697E+00
         21   -1    0    0  501  502  0.00000000000E+00  0.00000000000E+00  0.10070798190E+04  0.10070798190E+04  0.00000000000E+00 0. -1.
         21   -1    0    0  502  503 -0.00000000000E+00 -0.00000000000E+00 -0.15808468945E+03  0.15808468945E+03  0.00000000000E+00 0. -1.
          6    1    1    2  501    0 -0.12591295416E+01 -0.26580993914E+02  0.94803140557E+03  0.96405429338E+03  0.17300000000E+03 0. -1.
         -6    1    1    2    0  503  0.12591295416E+01  0.26580993914E+02 -0.99036276000E+02  0.20111021508E+03  0.17300000000E+03 0. -1.
<mgrwt>
<rscale>  2 0.17503467E+03</rscale>
<asrwt>0</asrwt>
<pdfrwt beam="1">  1       21 0.15493535E+00 0.17503467E+03</pdfrwt>
<pdfrwt beam="2">  1       21 0.24320722E-01 0.17503467E+03</pdfrwt>
<totfact> 0.44495239E+03</totfact>
</mgrwt>
</event>
<event>
 4    1  0.4067306E+000  0.1941794E+03  0.7546771E-02  0.1154745E+00
         21   -1    0    0  503  502  0.00000000000E+00  0.00000000000E+00  0.86160787440E+02  0.86160787440E+02  0.00000000000E+00 0.  1.
         21   -1    0    0  501  503 -0.00000000000E+00 -0.00000000000E+00 -0.19291411786E+04  0.19291411786E+04  0.00000000000E+00 0.  1.
          6    1    1    2  501    0 -0.61007110322E+02  0.63676942178E+02 -0.18075090147E+04  0.18179093648E+04  0.17300000000E+03 0.  1.
         -6    1    1    2    0  502  0.61007110322E+02 -0.63676942178E+02 -0.35471376478E+02  0.19739260124E+03  0.17300000000E+03 0.  1.
<mgrwt>
<rscale>  2 0.19417935E+03</rscale>
<asrwt>0</asrwt>
<pdfrwt beam="1">  1       21 0.13255507E-01 0.19417935E+03</pdfrwt>
<pdfrwt beam="2">  1       21 0.29679092E+00 0.19417935E+03</pdfrwt>
<totfact> 0.17446924E+03</totfact>
</mgrwt>
</event>
<event>
 4    1  0.4067306E+000  0.2026159E+03  0.7546771E-02  0.1147551E+00
         21   -1    0    0  501  502  0.00000000000E+00  0.00000000000E+00  0.45051436022E+03  0.45051436022E+03  0.00000000000E+00 0.  1.
         21   -1    0    0  502  503 -0.00000000000E+00 -0.00000000000E+00 -0.23834242987E+03  0.23834242987E+03  0.00000000000E+00 0.  1.
          6    1    1    2  501    0 -0.94828385264E+02  0.46171352438E+02  0.37677930483E+03  0.42780353082E+03  0.17300000000E+03 0.  1.
         -6    1    1    2    0  503  0.94828385264E+02 -0.46171352438E+02 -0.16460737449E+03  0.26105325927E+03  0.17300000000E+03 0.  1.
<mgrwt>
<rscale>  2 0.20261593E+03</rscale>
<asrwt>0</asrwt>
<pdfrwt beam="1">  1       21 0.69309901E-01 0.20261593E+03</pdfrwt>
<pdfrwt beam="2">  1       21 0.36668066E-01 0.20261593E+03</pdfrwt>
<totfact> 0.13495713E+04</totfact>
</mgrwt>
</event>
<event>
 4    1  0.4067306E+000  0.2391604E+03  0.7546771E-02  0.1120353E+00
         21   -1    0    0  501  502  0.00000000000E+00  0.00000000000E+00  0.18692320877E+03  0.18692320877E+03  0.00000000000E+00 0. -1.
         21   -1    0    0  502  503 -0.00000000000E+00 -0.00000000000E+00 -0.60814573035E+03  0.60814573035E+03  0.00000000000E+00 0.  1.
          6    1    1    2  501    0  0.36012434971E+01  0.16509308715E+03  0.69597873496E+02  0.24908143322E+03  0.17300000000E+03 0. -1.
         -6    1    1    2    0  503 -0.36012434971E+01 -0.16509308715E+03 -0.49082039507E+03  0.54598750590E+03  0.17300000000E+03 0.  1.
<mgrwt>
<rscale>  2 0.23916040E+03</rscale>
<asrwt>0</asrwt>
<pdfrwt beam="1">  1       21 0.28757416E-01 0.23916040E+03</pdfrwt>
<pdfrwt beam="2">  1       21 0.93560882E-01 0.23916040E+03</pdfrwt>
<totfact> 0.10780203E+04</totfact>
</mgrwt>
</event>
<event>
 4    1  0.4067306E+000  0.1925273E+03  0.7546771E-02  0.1156201E+00
         21   -1    0    0  503  502  0.00000000000E+00  0.00000000000E+00  0.89544455458E+03  0.89544455458E+03  0.00000000000E+00 0.  1.
         21   -1    0    0  501  503 -0.00000000000E+00 -0.00000000000E+00 -0.45197750574E+02  0.45197750574E+02  0.00000000000E+00 0.  1.
          6    1    1    2  501    0  0.80372372292E+02 -0.26039118311E+02  0.28869773671E+03  0.34700596117E+03  0.17300000000E+03 0.  1.
         -6    1    1    2    0  502 -0.80372372292E+02  0.26039118311E+02  0.56154906730E+03  0.59363634398E+03  0.17300000000E+03 0.  1.
<mgrwt>
<rscale>  2 0.19252728E+03</rscale>
<asrwt>0</asrwt>
<pdfrwt beam="1">  1       21 0.13776069E+00 0.19252728E+03</pdfrwt>
<pdfrwt beam="2">  1       21 0.69535007E-02 0.19252728E+03</pdfrwt>
<totfact> 0.57085234E+04</totfact>
</mgrwt>
</event>
<event>
 4    1  0.4067306E+000  0.1893205E+03  0.7546771E-02  0.1159076E+00
         21   -1    0    0  503  502  0.00000000000E+00  0.00000000000E+00  0.67539396322E+03  0.67539396322E+03  0.00000000000E+00 0. -1.
         21   -1    0    0  501  503 -0.00000000000E+00 -0.00000000000E+00 -0.16349134321E+03  0.16349134321E+03  0.00000000000E+00 0. -1.
          6    1    1    2  501    0 -0.14171997233E+02  0.75580554056E+02 -0.88759038044E+02  0.20909431482E+03  0.17300000000E+03 0. -1.
         -6    1    1    2    0  502  0.14171997233E+02 -0.75580554056E+02  0.60066165805E+03  0.62979099161E+03  0.17300000000E+03 0. -1.
<mgrwt>
<rscale>  2 0.18932054E+03</rscale>
<asrwt>0</asrwt>
<pdfrwt beam="1">  1       21 0.10390676E+00 0.18932054E+03</pdfrwt>
<pdfrwt beam="2">  1       21 0.25152515E-01 0.18932054E+03</pdfrwt>
<totfact> 0.11242766E+04</totfact>
</mgrwt>
</event>
<event>
 4    1  0.4067306E+000  0.1817912E+03  0.7546771E-02  0.1166081E+00
         21   -1    0    0  501  502  0.00000000000E+00  0.00000000000E+00  0.53108265109E+03  0.53108265109E+03  0.00000000000E+00 0.  1.
         21   -1    0    0  502  503 -0.00000000000E+00 -0.00000000000E+00 -0.49703419121E+03  0.49703419121E+03  0.00000000000E+00 0.  1.
          6    1    1    2  501    0  0.38273246891E+02  0.40671780247E+02  0.49782745351E+03  0.52998132854E+03  0.17300000000E+03 0.  1.
         -6    1    1    2    0  503 -0.38273246891E+02 -0.40671780247E+02 -0.46377899362E+03  0.49813551375E+03  0.17300000000E+03 0.  1.
<mgrwt>
<rscale>  2 0.18179119E+03</rscale>
<asrwt>0</asrwt>
<pdfrwt beam="1">  1       21 0.81705023E-01 0.18179119E+03</pdfrwt>
<pdfrwt beam="2">  1       21 0.76466799E-01 0.18179119E+03</pdfrwt>
<totfact> 0.20164678E+03</totfact>
</mgrwt>
</event>
<event>
 4    1  0.4067306E+000  0.2726128E+03  0.7546771E-02  0.1099793E+00
         21   -1    0    0  503  502  0.00000000000E+00  0.00000000000E+00  0.40069294426E+03  0.40069294426E+03  0.00000000000E+00 0.  1.
         21   -1    0    0  501  503 -0.00000000000E+00 -0.00000000000E+00 -0.27342264410E+03  0.27342264410E+03  0.00000000000E+00 0. -1.
          6    1    1    2  501    0 -0.15732255145E+03 -0.14013690614E+03 -0.12752795860E+03  0.30096697141E+03  0.17300000000E+03 0. -1.
         -6    1    1    2    0  502  0.15732255145E+03  0.14013690614E+03  0.25479825876E+03  0.37314861694E+03  0.17300000000E+03 0.  1.
<mgrwt>
<rscale>  2 0.27261280E+03</rscale>
<asrwt>0</asrwt>
<pdfrwt beam="1">  1       21 0.61645069E-01 0.27261280E+03</pdfrwt>
<pdfrwt beam="2">  1       21 0.42065022E-01 0.27261280E+03</pdfrwt>
<totfact> 0.12705610E+04</totfact>
</mgrwt>
</event>
<event>
 4    1  0.4067306E+000  0.1984755E+03  0.7546771E-02  0.1151032E+00
         21   -1    0    0  503  502  0.00000000000E+00  0.00000000000E+00  0.15660844571E+03  0.15660844571E+03  0.00000000000E+00 0.  1.
         21   -1    0    0  501  503 -0.00000000000E+00 -0.00000000000E+00 -0.26916360297E+03  0.26916360297E+03  0.00000000000E+00 0.  1.
          6    1    1    2  501    0  0.77332803271E+02  0.59018165517E+02 -0.11075892859E+03  0.22728846558E+03  0.17300000000E+03 0.  1.
         -6    1    1    2    0  502 -0.77332803271E+02 -0.59018165517E+02 -0.17962286648E+01  0.19848358310E+03  0.17300000000E+03 0.  1.
<mgrwt>
<rscale>  2 0.19847546E+03</rscale>
<asrwt>0</asrwt>
<pdfrwt beam="1">  1       21 0.24093607E-01 0.19847546E+03</pdfrwt>
<pdfrwt beam="2">  1       21 0.41409785E-01 0.19847546E+03</pdfrwt>
<totfact> 0.91037324E+04</totfact>
</mgrwt>
</event>
<event>
 4    1  0.4067306E+000  0.1889888E+03  0.7546771E-02  0.1159377E+00
         21   -1    0    0  501  502  0.00000000000E+00  0.00000000000E+00  0.26753198757E+03  0.26753198757E+03  0.00000000000E+00 0.  1.
         21   -1    0    0  502  503 -0.00000000000E+00 -0.00000000000E+00 -0.19748541310E+03  0.19748541310E+03  0.00000000000E+00 0.  1.
          6    1    1    2  501    0 -0.34642979816E+02  0.67732007176E+02  0.16736490816E+03  0.25244360426E+03  0.17300000000E+03 0.  1.
         -6    1    1    2    0  503  0.34642979816E+02 -0.67732007176E+02 -0.97318333695E+02  0.21257379641E+03  0.17300000000E+03 0.  1.
<mgrwt>
<rscale>  2 0.18898878E+03</rscale>
<asrwt>0</asrwt>
<pdfrwt beam="1">  1       21 0.41158767E-01 0.18898878E+03</pdfrwt>
<pdfrwt beam="2">  1       21 0.30382371E-01 0.18898878E+03</pdfrwt>
<totfact> 0.59201137E+04</totfact>
</mgrwt>
</event>
<event>
 4    1  0.4067306E+000  0.1835014E+03  0.7546771E-02  0.1164457E+00
         21   -1    0    0  503  502  0.00000000000E+00  0.00000000000E+00  0.10234794690E+03  0.10234794690E+03  0.00000000000E+00 0. -1.
         21   -1    0    0  501  503 -0.00000000000E+00 -0.00000000000E+00 -0.43820415086E+03  0.43820415086E+03  0.00000000000E+00 0. -1.
          6    1    1    2  501    0 -0.59930965127E+02  0.12331131837E+02 -0.30285017546E+03  0.35410592507E+03  0.17300000000E+03 0. -1.
         -6    1    1    2    0  502  0.59930965127E+02 -0.12331131837E+02 -0.33006028497E+02  0.18644617269E+03  0.17300000000E+03 0. -1.
<mgrwt>
<rscale>  2 0.18350144E+03</rscale>
<asrwt>0</asrwt>
<pdfrwt beam="1">  1       21 0.15745838E-01 0.18350144E+03</pdfrwt>
<pdfrwt beam="2">  1       21 0.67416023E-01 0.18350144E+03</pdfrwt>
<totfact> 0.72542917E+04</totfact>
</mgrwt>
</event>
<event>
 4    1  0.4067306E+000  0.2052206E+03  0.7546771E-02  0.1145408E+00
         21   -1    0    0  503  502  0.00000000000E+00  0.00000000000E+00  0.86699495216E+03  0.86699495216E+03  0.00000000000E+00 0.  1.
         21   -1    0    0  501  503 -0.00000000000E+00 -0.00000000000E+00 -0.13543838508E+03  0.13543838508E+03  0.00000000000E+00 0.  1.
          6    1    1    2  501    0  0.51910561761E+02  0.97425793300E+02 -0.35614447094E+02  0.20828797484E+03  0.17300000000E+03 0.  1.
         -6    1    1    2    0  502 -0.51910561761E+02 -0.97425793300E+02  0.76717101418E+03  0.79414536240E+03  0.17300000000E+03 0.  1.
<mgrwt>
<rscale>  2 0.20522059E+03</rscale>
<asrwt>0</asrwt>
<pdfrwt beam="1">  1       21 0.13338383E+00 0.20522059E+03</pdfrwt>
<pdfrwt beam="2">  1       21 0.20836675E-01 0.20522059E+03</pdfrwt>
<totfact> 0.85780818E+03</totfact>
</mgrwt>
</event>
<event>
 4    1  0.4067306E+000  0.1780245E+03  0.7546771E-02  0.1169729E+00
         21   -1    0    0  501  502  0.00000000000E+00  0.00000000000E+00  0.77292427822E+03  0.77292427822E+03  0.00000000000E+00 0.  1.
         21   -1    0    0  502  503 -0.00000000000E+00 -0.00000000000E+00 -0.75463805013E+02  0.75463805013E+02  0.00000000000E+00 0.  1.
          6    1    1    2  501    0  0.31126625507E+02  0.28192962900E+02  0.63538151407E+03  0.65985026968E+03  0.17300000000E+03 0.  1.
         -6    1    1    2    0  503 -0.31126625507E+02 -0.28192962900E+02  0.62078959137E+02  0.18853781355E+03  0.17300000000E+03 0.  1.
<mgrwt>
<rscale>  2 0.17802446E+03</rscale>
<asrwt>0</asrwt>
<pdfrwt beam="1">  1       21 0.11891142E+00 0.17802446E+03</pdfrwt>
<pdfrwt beam="2">  1       21 0.11609817E-01 0.17802446E+03</pdfrwt>
<totfact> 0.33908230E+04</totfact>
</mgrwt>
</event>
<event>
 4    1  0.4067306E+000  0.1919107E+03  0.7546771E-02  0.1156749E+00
         21   -1    0    0  503  502  0.00000000000E+00  0.00000000000E+00  0.33901554324E+03  0.33901554324E+03  0.00000000000E+00 0.  1.
         21   -1    0    0  501  503 -0.00000000000E+00 -0.00000000000E+00 -0.18549898264E+03  0.18549898264E+03  0.00000000000E+00 0.  1.
          6    1    1    2  501    0  0.71320291825E+02  0.42592805679E+02 -0.92056986757E+02  0.21284787979E+03  0.17300000000E+03 0.  1.
         -6    1    1    2    0  502 -0.71320291825E+02 -0.42592805679E+02  0.24557354735E+03  0.31166664608E+03  0.17300000000E+03 0.  1.
<mgrwt>
<rscale>  2 0.19191074E+03</rscale>
<asrwt>0</asrwt>
<pdfrwt beam="1">  1       21 0.52156237E-01 0.19191074E+03</pdfrwt>
<pdfrwt beam="2">  1       21 0.28538305E-01 0.19191074E+03</pdfrwt>
<totfact> 0.40979191E+04</totfact>
</mgrwt>
</event>
<event>
 4    1  0.4067306E+000  0.2047149E+03  0.7546771E-02  0.1145821E+00
         21   -1    0    0  501  502  0.00000000000E+00  0.00000000000E+00  0.59089276543E+03  0.59089276543E+03  0.00000000000E+00 0.  1.
         21   -1    0    0  502  503 -0.00000000000E+00 -0.00000000000E+00 -0.71337008377E+02  0.71337008377E+02  0.00000000000E+00 0.  1.
          6    1    1    2  501    0  0.10318752871E+03  0.36489957698E+02  0.28498732889E+03  0.35089309016E+03  0.17300000000E+03 0. -1.
         -6    1    1    2    0  503 -0.10318752871E+03 -0.36489957698E+02  0.23456842816E+03  0.31133668365E+03  0.17300000000E+03 0. -1.
<mgrwt>
<rscale>  2 0.20471488E+03</rscale>
<asrwt>0</asrwt>
<pdfrwt beam="1">  1       21 0.90906576E-01 0.20471488E+03</pdfrwt>
<pdfrwt beam="2">  1       21 0.10974925E-01 0.20471488E+03</pdfrwt>
<totfact> 0.70237222E+04</totfact>
</mgrwt>
</event>
<event>
 4    1  0.4067306E+000  0.2091557E+03  0.7546771E-02  0.1142236E+00
         21   -1    0    0  503  502  0.00000000000E+00  0.00000000000E+00  0.71833967612E+02  0.71833967612E+02  0.00000000000E+00 0.  1.
         21   -1    0    0  501  503 -0.00000000000E+00 -0.00000000000E+00 -0.64872861724E+03  0.64872861724E+03  0.00000000000E+00 0.  1.
          6    1    1    2  501    0 -0.10062833038E+03 -0.60753826380E+02 -0.37761811551E+03  0.43167294270E+03  0.17300000000E+03 0.  1.
         -6    1    1    2    0  502  0.10062833038E+03  0.60753826380E+02 -0.19927653411E+03  0.28888964215E+03  0.17300000000E+03 0.  1.
<mgrwt>
<rscale>  2 0.20915566E+03</rscale>
<asrwt>0</asrwt>
<pdfrwt beam="1">  1       21 0.11051380E-01 0.20915566E+03</pdfrwt>
<pdfrwt beam="2">  1       21 0.99804398E-01 0.20915566E+03</pdfrwt>
<totfact> 0.55601250E+04</totfact>
</mgrwt>
</event>
<event>
 4    1  0.4067306E+000  0.1927753E+03  0.7546771E-02  0.1155982E+00
         21   -1    0    0  501  502  0.00000000000E+00  0.00000000000E+00  0.15976046129E+03  0.15976046129E+03  0.00000000000E+00 0.  1.
         21   -1    0    0  502  503 -0.00000000000E+00 -0.00000000000E+00 -0.25452331468E+03  0.25452331468E+03  0.00000000000E+00 0.  1.
          6    1    1    2  501    0  0.82280157593E+02  0.21524486125E+02  0.13394341791E+02  0.19324009995E+03  0.17300000000E+03 0.  1.
         -6    1    1    2    0  503 -0.82280157593E+02 -0.21524486125E+02 -0.10815719518E+03  0.22104367601E+03  0.17300000000E+03 0.  1.
<mgrwt>
<rscale>  2 0.19277533E+03</rscale>
<asrwt>0</asrwt>
<pdfrwt beam="1">  1       21 0.24578533E-01 0.19277533E+03</pdfrwt>
<pdfrwt beam="2">  1       21 0.39157433E-01 0.19277533E+03</pdfrwt>
<totfact> 0.98381845E+04</totfact>
</mgrwt>
</event>
<event>
 4    1  0.4067306E+000  0.1763707E+03  0.7546771E-02  0.1171362E+00
         21   -1    0    0  501  502  0.00000000000E+00  0.00000000000E+00  0.24167672117E+03  0.24167672117E+03  0.00000000000E+00 0.  1.
         21   -1    0    0  502  503 -0.00000000000E+00 -0.00000000000E+00 -0.15338260456E+03  0.15338260456E+03  0.00000000000E+00 0.  1.
          6    1    1    2  501    0 -0.33866741325E+02  0.55378040066E+01 -0.35073288478E+02  0.17982424477E+03  0.17300000000E+03 0.  1.
         -6    1    1    2    0  503  0.33866741325E+02 -0.55378040066E+01  0.12336740509E+03  0.21523508097E+03  0.17300000000E+03 0.  1.
<mgrwt>
<rscale>  2 0.17637070E+03</rscale>
<asrwt>0</asrwt>
<pdfrwt beam="1">  1       21 0.37181034E-01 0.17637070E+03</pdfrwt>
<pdfrwt beam="2">  1       21 0.23597324E-01 0.17637070E+03</pdfrwt>
<totfact> 0.11863187E+05</totfact>
</mgrwt>
</event>
<event>
 4    1  0.4067306E+000  0.2412856E+03  0.7546771E-02  0.1118939E+00
         21   -1    0    0  503  502  0.00000000000E+00  0.00000000000E+00  0.29793245495E+03  0.29793245495E+03  0.00000000000E+00 0. -1.
         21   -1    0    0  501  503 -0.00000000000E+00 -0.00000000000E+00 -0.20438585663E+03  0.20438585663E+03  0.00000000000E+00 0.  1.
          6    1    1    2  501    0 -0.15641024155E+03 -0.61851099155E+02 -0.58626634570E+01  0.24135677523E+03  0.17300000000E+03 0. -1.
         -6    1    1    2    0  502  0.15641024155E+03  0.61851099155E+02  0.99409261781E+02  0.26096153635E+03  0.17300000000E+03 0.  1.
<mgrwt>
<rscale>  2 0.24128556E+03</rscale>
<asrwt>0</asrwt>
<pdfrwt beam="1">  1       21 0.45835763E-01 0.24128556E+03</pdfrwt>
<pdfrwt beam="2">  1       21 0.31443978E-01 0.24128556E+03</pdfrwt>
<totfact> 0.43354087E+04</totfact>
</mgrwt>
</event>
<event>
 4    1  0.4067306E+000  0.3281711E+03  0.7546771E-02  0.1071949E+00
         21   -1    0    0  501  502  0.00000000000E+00  0.00000000000E+00  0.24533239798E+03  0.24533239798E+03  0.00000000000E+00 0.  1.
         21   -1    0    0  502  503 -0.00000000000E+00 -0.00000000000E+00 -0.47725015184E+03  0.47725015184E+03  0.00000000000E+00 0. -1.
          6    1    1    2  501    0  0.97583878841E+02  0.26123677638E+03 -0.13651080454E+02  0.32845489605E+03  0.17300000000E+03 0.  1.
         -6    1    1    2    0  503 -0.97583878841E+02 -0.26123677638E+03 -0.21826667340E+03  0.39412765377E+03  0.17300000000E+03 0. -1.
<mgrwt>
<rscale>  2 0.32817109E+03</rscale>
<asrwt>0</asrwt>
<pdfrwt beam="1">  1       21 0.37743446E-01 0.32817109E+03</pdfrwt>
<pdfrwt beam="2">  1       21 0.73423099E-01 0.32817109E+03</pdfrwt>
<totfact> 0.10500932E+04</totfact>
</mgrwt>
</event>
<event>
 4    1  0.4067306E+000  0.2500369E+03  0.7546771E-02  0.1113281E+00
         21   -1    0    0  503  502  0.00000000000E+00  0.00000000000E+00  0.50268771930E+03  0.50268771930E+03  0.00000000000E+00 0.  1.
         21   -1    0    0  501  503 -0.00000000000E+00 -0.00000000000E+00 -0.12844016832E+03  0.12844016832E+03  0.00000000000E+00 0.  1.
          6    1    1    2  501    0 -0.15784782709E+03  0.87598661731E+02  0.13093765664E+03  0.28224658010E+03  0.17300000000E+03 0.  1.
         -6    1    1    2    0  502  0.15784782709E+03 -0.87598661731E+02  0.24330989434E+03  0.34888130752E+03  0.17300000000E+03 0.  1.
<mgrwt>
<rscale>  2 0.25003692E+03</rscale>
<asrwt>0</asrwt>
<pdfrwt beam="1">  1       21 0.77336571E-01 0.25003692E+03</pdfrwt>
<pdfrwt beam="2">  1       21 0.19760026E-01 0.25003692E+03</pdfrwt>
<totfact> 0.34064325E+04</totfact>
</mgrwt>
</event>
<event>
 4    1  0.4067306E+000  0.2627960E+03  0.7546771E-02  0.1105475E+00
         21   -1    0    0  501  502  0.00000000000E+00  0.00000000000E+00  0.67489183837E+03  0.67489183837E+03  0.00000000000E+00 0.  1.
         21   -1    0    0  502  503 -0.00000000000E+00 -0.00000000000E+00 -0.10242719192E+03  0.10242719192E+03  0.00000000000E+00 0. -1.
          6    1    1    2  501    0 -0.16153982916E+03 -0.11418236931E+03  0.27426443159E+03  0.37984563746E+03  0.17300000000E+03 0. -1.
         -6    1    1    2    0  503  0.16153982916E+03  0.11418236931E+03  0.29820021486E+03  0.39747339283E+03  0.17300000000E+03 0.  1.
<mgrwt>
<rscale>  2 0.26279599E+03</rscale>
<asrwt>0</asrwt>
<pdfrwt beam="1">  1       21 0.10382951E+00 0.26279599E+03</pdfrwt>
<pdfrwt beam="2">  1       21 0.15758030E-01 0.26279599E+03</pdfrwt>
<totfact> 0.25936428E+04</totfact>
</mgrwt>
</event>
<event>
 4    1  0.4067306E+000  0.3524890E+03  0.7546771E-02  0.1061598E+00
         21   -1    0    0  503  502  0.00000000000E+00  0.00000000000E+00  0.78929656724E+03  0.78929656724E+03  0.00000000000E+00 0. -1.
         21   -1    0    0  501  503 -0.00000000000E+00 -0.00000000000E+00 -0.23397013175E+03  0.23397013175E+03  0.00000000000E+00 0.  1.
          6    1    1    2  501    0 -0.15336924942E+03  0.26607778637E+03 -0.14995033247E+02  0.35280783167E+03  0.17300000000E+03 0.  1.
         -6    1    1    2    0  502  0.15336924942E+03 -0.26607778637E+03  0.57032146873E+03  0.67045886732E+03  0.17300000000E+03 0. -1.
<mgrwt>
<rscale>  2 0.35248903E+03</rscale>
<asrwt>0</asrwt>
<pdfrwt beam="1">  1       21 0.12143024E+00 0.35248903E+03</pdfrwt>
<pdfrwt beam="2">  1       21 0.35995405E-01 0.35248903E+03</pdfrwt>
<totfact> 0.34508081E+03</totfact>
</mgrwt>
</event>
<event>
 4    1  0.4067306E+000  0.2888604E+03  0.7546771E-02  0.1090946E+00
         21   -1    0    0  503  502  0.00000000000E+00  0.00000000000E+00  0.91663596647E+02  0.91663596647E+02  0.00000000000E+00 0. -1.
         21   -1    0    0  501  503 -0.00000000000E+00 -0.00000000000E+00 -0.13740134315E+04  0.13740134315E+04  0.00000000000E+00 0. -1.
          6    1    1    2  501    0 -0.28636119830E+02  0.22954580113E+03 -0.10669135879E+04  0.11053257014E+04  0.17300000000E+03 0. -1.
         -6    1    1    2    0  502  0.28636119830E+02 -0.22954580113E+03 -0.21543624695E+03  0.36035132673E+03  0.17300000000E+03 0. -1.
<mgrwt>
<rscale>  2 0.28886035E+03</rscale>
<asrwt>0</asrwt>
<pdfrwt beam="1">  1       21 0.14102092E-01 0.28886035E+03</pdfrwt>
<pdfrwt beam="2">  1       21 0.21138668E+00 0.28886035E+03</pdfrwt>
<totfact> 0.46262935E+03</totfact>
</mgrwt>
</event>
<event>
 4    1  0.4067306E+000  0.1886597E+03  0.7546771E-02  0.1159676E+00
         21   -1    0    0  503  502  0.00000000000E+00  0.00000000000E+00  0.20738192134E+03  0.20738192134E+03  0.00000000000E+00 0.  1.
         21   -1    0    0  501  503 -0.00000000000E+00 -0.00000000000E+00 -0.21756907257E+03  0.21756907257E+03  0.00000000000E+00 0.  1.
          6    1    1    2  501    0  0.54020364060E+02 -0.52395336147E+02 -0.10273014510E+03  0.21481609273E+03  0.17300000000E+03 0.  1.
         -6    1    1    2    0  502 -0.54020364060E+02  0.52395336147E+02  0.92542993859E+02  0.21013490118E+03  0.17300000000E+03 0.  1.
<mgrwt>
<rscale>  2 0.18865967E+03</rscale>
<asrwt>0</asrwt>
<pdfrwt beam="1">  1       21 0.31904911E-01 0.18865967E+03</pdfrwt>
<pdfrwt beam="2">  1       21 0.33472165E-01 0.18865967E+03</pdfrwt>
<totfact> 0.81343493E+04</totfact>
</mgrwt>
</event>
<event>
 4    1  0.4067306E+000  0.1779757E+03  0.7546771E-02  0.1169777E+00
         21   -1    0    0  503  502  0.00000000000E+00  0.00000000000E+00  0.23537762608E+03  0.23537762608E+03  0.00000000000E+00 0. -1.
         21   -1    0    0  501  503 -0.00000000000E+00 -0.00000000000E+00 -0.48009883438E+03  0.48009883438E+03  0.00000000000E+00 0. -1.
          6    1    1    2  501    0  0.41784418964E+02  0.64698856528E+00 -0.42584796081E+03  0.46154289290E+03  0.17300000000E+03 0. -1.
         -6    1    1    2    0  502 -0.41784418964E+02 -0.64698856528E+00  0.18112675251E+03  0.25393356756E+03  0.17300000000E+03 0. -1.
<mgrwt>
<rscale>  2 0.17797572E+03</rscale>
<asrwt>0</asrwt>
<pdfrwt beam="1">  1       21 0.36211943E-01 0.17797572E+03</pdfrwt>
<pdfrwt beam="2">  1       21 0.73861358E-01 0.17797572E+03</pdfrwt>
<totfact> 0.12218300E+04</totfact>
</mgrwt>
</event>
<event>
 4    1  0.4067306E+000  0.2372166E+03  0.7546771E-02  0.1121661E+00
         21   -1    0    0  501  502  0.00000000000E+00  0.00000000000E+00  0.14955300847E+03  0.14955300847E+03  0.00000000000E+00 0. -1.
         21   -1    0    0  502  503 -0.00000000000E+00 -0.00000000000E+00 -0.76460324508E+03  0.76460324508E+03  0.00000000000E+00 0. -1.
          6    1    1    2  501    0 -0.76085028820E+02 -0.14336595659E+03  0.18219185565E+02  0.23791525348E+03  0.17300000000E+03 0. -1.
         -6    1    1    2    0  503  0.76085028820E+02  0.14336595659E+03 -0.63326942217E+03  0.67624100006E+03  0.17300000000E+03 0. -1.
<mgrwt>
<rscale>  2 0.23721663E+03</rscale>
<asrwt>0</asrwt>
<pdfrwt beam="1">  1       21 0.23008156E-01 0.23721663E+03</pdfrwt>
<pdfrwt beam="2">  1       21 0.11763127E+00 0.23721663E+03</pdfrwt>
<totfact> 0.95474022E+03</totfact>
</mgrwt>
</event>
<event>
 4    1  0.4067306E+000  0.2339032E+03  0.7546771E-02  0.1123922E+00
         21   -1    0    0  501  502  0.00000000000E+00  0.00000000000E+00  0.61027117845E+02  0.61027117845E+02  0.00000000000E+00 0.  1.
         21   -1    0    0  502  503 -0.00000000000E+00 -0.00000000000E+00 -0.92288180356E+03  0.92288180356E+03  0.00000000000E+00 0. -1.
          6    1    1    2  501    0 -0.62378336926E+02 -0.14453595735E+03 -0.34774730604E+03  0.41909293569E+03  0.17300000000E+03 0.  1.
         -6    1    1    2    0  503  0.62378336926E+02  0.14453595735E+03 -0.51410737968E+03  0.56481598572E+03  0.17300000000E+03 0.  1.
<mgrwt>
<rscale>  2 0.23390318E+03</rscale>
<asrwt>0</asrwt>
<pdfrwt beam="1">  1       21 0.93887873E-02 0.23390318E+03</pdfrwt>
<pdfrwt beam="2">  1       21 0.14198182E+00 0.23390318E+03</pdfrwt>
<totfact> 0.30552131E+04</totfact>
</mgrwt>
</event>
<event>
 4    1  0.4067306E+000  0.2339718E+03  0.7546771E-02  0.1123875E+00
         21   -1    0    0  501  502  0.00000000000E+00  0.00000000000E+00  0.19740264218E+03  0.19740264218E+03  0.00000000000E+00 0. -1.
         21   -1    0    0  502  503 -0.00000000000E+00 -0.00000000000E+00 -0.43926696090E+03  0.43926696090E+03  0.00000000000E+00 0. -1.
          6    1    1    2  501    0 -0.79822874387E+02 -0.13580180916E+03  0.72359100011E+02  0.24490541440E+03  0.17300000000E+03 0. -1.
         -6    1    1    2    0  503  0.79822874387E+02  0.13580180916E+03 -0.31422341873E+03  0.39176418868E+03  0.17300000000E+03 0. -1.
<mgrwt>
<rscale>  2 0.23397184E+03</rscale>
<asrwt>0</asrwt>
<pdfrwt beam="1">  1       21 0.30369637E-01 0.23397184E+03</pdfrwt>
<pdfrwt beam="2">  1       21 0.67579533E-01 0.23397184E+03</pdfrwt>
<totfact> 0.20347275E+04</totfact>
</mgrwt>
</event>
<event>
 4    1  0.4067306E+000  0.2041512E+03  0.7546771E-02  0.1146283E+00
         21   -1    0    0  503  502  0.00000000000E+00  0.00000000000E+00  0.94347007774E+02  0.94347007774E+02  0.00000000000E+00 0.  1.
         21   -1    0    0  501  503 -0.00000000000E+00 -0.00000000000E+00 -0.13967729193E+04  0.13967729193E+04  0.00000000000E+00 0.  1.
          6    1    1    2  501    0  0.10833929522E+03 -0.33659734357E+01 -0.12677039151E+04  0.12840369734E+04  0.17300000000E+03 0.  1.
         -6    1    1    2    0  502 -0.10833929522E+03  0.33659734357E+01 -0.34721996412E+02  0.20708295367E+03  0.17300000000E+03 0.  1.
<mgrwt>
<rscale>  2 0.20415125E+03</rscale>
<asrwt>0</asrwt>
<pdfrwt beam="1">  1       21 0.14514925E-01 0.20415125E+03</pdfrwt>
<pdfrwt beam="2">  1       21 0.21488813E+00 0.20415125E+03</pdfrwt>
<totfact> 0.44555987E+03</totfact>
</mgrwt>
</event>
<event>
 4    1  0.4067306E+000  0.2005425E+03  0.7546771E-02  0.1149282E+00
         21   -1    0    0  501  502  0.00000000000E+00  0.00000000000E+00  0.17897649929E+04  0.17897649929E+04  0.00000000000E+00 0.  1.
         21   -1    0    0  502  503 -0.00000000000E+00 -0.00000000000E+00 -0.38632113693E+02  0.38632113693E+02  0.00000000000E+00 0.  1.
          6    1    1    2  501    0  0.54578845244E+02 -0.85495247966E+02  0.14668636790E+04  0.14805088114E+04  0.17300000000E+03 0.  1.
         -6    1    1    2    0  503 -0.54578845244E+02  0.85495247966E+02  0.28426920025E+03  0.34788829527E+03  0.17300000000E+03 0.  1.
<mgrwt>
<rscale>  2 0.20054248E+03</rscale>
<asrwt>0</asrwt>
<pdfrwt beam="1">  1       21 0.27534840E+00 0.20054248E+03</pdfrwt>
<pdfrwt beam="2">  1       21 0.59434035E-02 0.20054248E+03</pdfrwt>
<totfact> 0.94114479E+03</totfact>
</mgrwt>
</event>
<event>
 4    1  0.4067306E+000  0.2501900E+03  0.7546771E-02  0.1113185E+00
         21   -1    0    0  501  502  0.00000000000E+00  0.00000000000E+00  0.13530591577E+04  0.13530591577E+04  0.00000000000E+00 0. -1.
         21   -1    0    0  502  503 -0.00000000000E+00 -0.00000000000E+00 -0.50006439057E+02  0.50006439057E+02  0.00000000000E+00 0.  1.
          6    1    1    2  501    0  0.17655453159E+03 -0.38658875207E+02  0.84349817087E+03  0.87982053597E+03  0.17300000000E+03 0. -1.
         -6    1    1    2    0  503 -0.17655453159E+03  0.38658875207E+02  0.45955454777E+03  0.52324506079E+03  0.17300000000E+03 0.  1.
<mgrwt>
<rscale>  2 0.25018995E+03</rscale>
<asrwt>0</asrwt>
<pdfrwt beam="1">  1       21 0.20816292E+00 0.25018995E+03</pdfrwt>
<pdfrwt beam="2">  1       21 0.76932993E-02 0.25018995E+03</pdfrwt>
<totfact> 0.14674655E+04</totfact>
</mgrwt>
</event>
<event>
 4    1  0.4067306E+000  0.1844317E+03  0.7546771E-02  0.1163582E+00
         21   -1    0    0  503  502  0.00000000000E+00  0.00000000000E+00  0.19204575346E+03  0.19204575346E+03  0.00000000000E+00 0.  1.
         21   -1    0    0  501  503 -0.00000000000E+00 -0.00000000000E+00 -0.18933280477E+03  0.18933280477E+03  0.00000000000E+00 0.  1.
          6    1    1    2  501    0  0.36540716494E+01  0.63817648157E+02 -0.47075285742E+02  0.19034475822E+03  0.17300000000E+03 0.  1.
         -6    1    1    2    0  502 -0.36540716494E+01 -0.63817648157E+02  0.49788234432E+02  0.19103380000E+03  0.17300000000E+03 0.  1.
<mgrwt>
<rscale>  2 0.18443168E+03</rscale>
<asrwt>0</asrwt>
<pdfrwt beam="1">  1       21 0.29545501E-01 0.18443168E+03</pdfrwt>
<pdfrwt beam="2">  1       21 0.29128124E-01 0.18443168E+03</pdfrwt>
<totfact> 0.12424162E+05</totfact>
</mgrwt>
</event>
<event>
 4    1  0.4067306E+000  0.1825730E+03  0.7546771E-02  0.1165336E+00
         21   -1    0    0  501  502  0.00000000000E+00  0.00000000000E+00  0.36703576701E+03  0.36703576701E+03  0.00000000000E+00 0. -1.
         21   -1    0    0  502  503 -0.00000000000E+00 -0.00000000000E+00 -0.41595964385E+03  0.41595964385E+03  0.00000000000E+00 0. -1.
          6    1    1    2  501    0 -0.15348765659E+02 -0.56287928784E+02  0.32166938351E+03  0.36987039328E+03  0.17300000000E+03 0. -1.
         -6    1    1    2    0  503  0.15348765659E+02  0.56287928784E+02 -0.37059326035E+03  0.41312501758E+03  0.17300000000E+03 0. -1.
<mgrwt>
<rscale>  2 0.18257304E+03</rscale>
<asrwt>0</asrwt>
<pdfrwt beam="1">  1       21 0.56467041E-01 0.18257304E+03</pdfrwt>
<pdfrwt beam="2">  1       21 0.63993791E-01 0.18257304E+03</pdfrwt>
<totfact> 0.67012335E+03</totfact>
</mgrwt>
</event>
<event>
 4    1  0.4067306E+000  0.1780498E+03  0.7546771E-02  0.1169704E+00
         21   -1    0    0  503  502  0.00000000000E+00  0.00000000000E+00  0.52952667015E+02  0.52952667015E+02  0.00000000000E+00 0. -1.
         21   -1    0    0  501  503 -0.00000000000E+00 -0.00000000000E+00 -0.15907573632E+04  0.15907573632E+04  0.00000000000E+00 0. -1.
          6    1    1    2  501    0 -0.32615200037E+02 -0.26626837260E+02 -0.14179339680E+04  0.14290690947E+04  0.17300000000E+03 0. -1.
         -6    1    1    2    0  502  0.32615200037E+02  0.26626837260E+02 -0.11987072818E+03  0.21464093554E+03  0.17300000000E+03 0. -1.
<mgrwt>
<rscale>  2 0.17804982E+03</rscale>
<asrwt>0</asrwt>
<pdfrwt beam="1">  1       21 0.81465650E-02 0.17804982E+03</pdfrwt>
<pdfrwt beam="2">  1       21 0.24473188E+00 0.17804982E+03</pdfrwt>
<totfact> 0.84254442E+03</totfact>
</mgrwt>
</event>
<event>
 4    1  0.4067306E+000  0.2283811E+03  0.7546771E-02  0.1127784E+00
         21   -1    0    0  503  502  0.00000000000E+00  0.00000000000E+00  0.99830571630E+03  0.99830571630E+03  0.00000000000E+00 0. -1.
         21   -1    0    0  501  503 -0.00000000000E+00 -0.00000000000E+00 -0.57557301392E+02  0.57557301392E+02  0.00000000000E+00 0. -1.
          6    1    1    2  501    0  0.59006281875E+02 -0.13692037191E+03  0.31000925795E+03  0.38505021693E+03  0.17300000000E+03 0. -1.
         -6    1    1    2    0  502 -0.59006281875E+02  0.13692037191E+03  0.63073915696E+03  0.67081280076E+03  0.17300000000E+03 0. -1.
<mgrwt>
<rscale>  2 0.22838111E+03</rscale>
<asrwt>0</asrwt>
<pdfrwt beam="1">  1       21 0.15358548E+00 0.22838111E+03</pdfrwt>
<pdfrwt beam="2">  1       21 0.88549702E-02 0.22838111E+03</pdfrwt>
<totfact> 0.27613826E+04</totfact>
</mgrwt>
</event>
<event>
 4    1  0.4067306E+000  0.2214289E+03  0.7546771E-02  0.1132822E+00
         21   -1    0    0  501  502  0.00000000000E+00  0.00000000000E+00  0.10422731914E+04  0.10422731914E+04  0.00000000000E+00 0. -1.
         21   -1    0    0  502  503 -0.00000000000E+00 -0.00000000000E+00 -0.62860744823E+02  0.62860744823E+02  0.00000000000E+00 0. -1.
          6    1    1    2  501    0 -0.54159526731E+02  0.12715546435E+03  0.76689725829E+03  0.79822438651E+03  0.17300000000E+03 0. -1.
         -6    1    1    2    0  503  0.54159526731E+02 -0.12715546435E+03  0.21251518829E+03  0.30690954971E+03  0.17300000000E+03 0. -1.
<mgrwt>
<rscale>  2 0.22142892E+03</rscale>
<asrwt>0</asrwt>
<pdfrwt beam="1">  1       21 0.16034971E+00 0.22142892E+03</pdfrwt>
<pdfrwt beam="2">  1       21 0.96708846E-02 0.22142892E+03</pdfrwt>
<totfact> 0.21134078E+04</totfact>
</mgrwt>
</event>
<event>
 4    1  0.4067306E+000  0.1781916E+03  0.7546771E-02  0.1169565E+00
         21   -1    0    0  503  502  0.00000000000E+00  0.00000000000E+00  0.33781914981E+03  0.33781914981E+03  0.00000000000E+00 0. -1.
         21   -1    0    0  501  503 -0.00000000000E+00 -0.00000000000E+00 -0.10132108914E+03  0.10132108914E+03  0.00000000000E+00 0. -1.
          6    1    1    2  501    0 -0.38908186673E+02  0.17590126863E+02  0.17730334665E+03  0.25137369847E+03  0.17300000000E+03 0. -1.
         -6    1    1    2    0  502  0.38908186673E+02 -0.17590126863E+02  0.59194714022E+02  0.18776654047E+03  0.17300000000E+03 0. -1.
<mgrwt>
<rscale>  2 0.17819164E+03</rscale>
<asrwt>0</asrwt>
<pdfrwt beam="1">  1       21 0.51972176E-01 0.17819164E+03</pdfrwt>
<pdfrwt beam="2">  1       21 0.15587860E-01 0.17819164E+03</pdfrwt>
<totfact> 0.12917295E+05</totfact>
</mgrwt>
</event>
<event>
 4    1  0.4067306E+000  0.1857427E+03  0.7546771E-02  0.1162358E+00
         21   -1    0    0  503  502  0.00000000000E+00  0.00000000000E+00  0.29846463328E+03  0.29846463328E+03  0.00000000000E+00 0. -1.
         21   -1    0    0  501  503 -0.00000000000E+00 -0.00000000000E+00 -0.12595356939E+03  0.12595356939E+03  0.00000000000E+00 0. -1.
          6    1    1    2  501    0  0.25265414445E+02 -0.62713759227E+02  0.25392275618E+02  0.18747032945E+03  0.17300000000E+03 0. -1.
         -6    1    1    2    0  502 -0.25265414445E+02  0.62713759227E+02  0.14711878826E+03  0.23694787322E+03  0.17300000000E+03 0. -1.
<mgrwt>
<rscale>  2 0.18574272E+03</rscale>
<asrwt>0</asrwt>
<pdfrwt beam="1">  1       21 0.45917636E-01 0.18574272E+03</pdfrwt>
<pdfrwt beam="2">  1       21 0.19377472E-01 0.18574272E+03</pdfrwt>
<totfact> 0.11158813E+05</totfact>
</mgrwt>
</event>
<event>
 4    1  0.4067306E+000  0.2975547E+03  0.7546771E-02  0.1086469E+00
         21   -1    0    0  501  502  0.00000000000E+00  0.00000000000E+00  0.15585990924E+04  0.15585990924E+04  0.00000000000E+00 0. -1.
         21   -1    0    0  502  503 -0.00000000000E+00 -0.00000000000E+00 -0.18008375751E+03  0.18008375751E+03  0.00000000000E+00 0. -1.
          6    1    1    2  501    0 -0.13750177090E+03 -0.19925634278E+03  0.14085315355E+04  0.14396179749E+04  0.17300000000E+03 0. -1.
         -6    1    1    2    0  503  0.13750177090E+03  0.19925634278E+03 -0.30016200649E+02  0.29906487497E+03  0.17300000000E+03 0. -1.
<mgrwt>
<rscale>  2 0.29755475E+03</rscale>
<asrwt>0</asrwt>
<pdfrwt beam="1">  1       21 0.23978447E+00 0.29755475E+03</pdfrwt>
<pdfrwt beam="2">  1       21 0.27705195E-01 0.29755475E+03</pdfrwt>
<totfact> 0.85712411E+02</totfact>
</mgrwt>
</event>
<event>
 4    1  0.4067306E+000  0.1793792E+03  0.7546771E-02  0.1168405E+00
         21   -1    0    0  501  502  0.00000000000E+00  0.00000000000E+00  0.67951718012E+03  0.67951718012E+03  0.00000000000E+00 0.  1.
         21   -1    0    0  502  503 -0.00000000000E+00 -0.00000000000E+00 -0.59702970254E+02  0.59702970254E+02  0.00000000000E+00 0.  1.
          6    1    1    2  501    0 -0.34492750972E+02 -0.32529365934E+02  0.47801407082E+03  0.51056278891E+03  0.17300000000E+03 0.  1.
         -6    1    1    2    0  503  0.34492750972E+02  0.32529365934E+02  0.14180013905E+03  0.22865736146E+03  0.17300000000E+03 0.  1.
<mgrwt>
<rscale>  2 0.17937923E+03</rscale>
<asrwt>0</asrwt>
<pdfrwt beam="1">  1       21 0.10454110E+00 0.17937923E+03</pdfrwt>
<pdfrwt beam="2">  1       21 0.91850729E-02 0.17937923E+03</pdfrwt>
<totfact> 0.70017969E+04</totfact>
</mgrwt>
</event>
<event>
 4    1  0.4067306E+000  0.1822433E+03  0.7546771E-02  0.1165649E+00
         21   -1    0    0  501  502  0.00000000000E+00  0.00000000000E+00  0.79642048478E+03  0.79642048478E+03  0.00000000000E+00 0.  1.
         21   -1    0    0  502  503 -0.00000000000E+00 -0.00000000000E+00 -0.57150440837E+02  0.57150440837E+02  0.00000000000E+00 0.  1.
          6    1    1    2  501    0 -0.43313676553E+02  0.37517275920E+02  0.59152463478E+03  0.61896204578E+03  0.17300000000E+03 0.  1.
         -6    1    1    2    0  503  0.43313676553E+02 -0.37517275920E+02  0.14774540917E+03  0.23460887984E+03  0.17300000000E+03 0.  1.
<mgrwt>
<rscale>  2 0.18224330E+03</rscale>
<asrwt>0</asrwt>
<pdfrwt beam="1">  1       21 0.12252622E+00 0.18224330E+03</pdfrwt>
<pdfrwt beam="2">  1       21 0.87923761E-02 0.18224330E+03</pdfrwt>
<totfact> 0.51303081E+04</totfact>
</mgrwt>
</event>
<event>
 4    1  0.4067306E+000  0.2018363E+03  0.7546771E-02  0.1148199E+00
         21   -1    0    0  503  502  0.00000000000E+00  0.00000000000E+00  0.88284315239E+03  0.88284315239E+03  0.00000000000E+00 0.  1.
         21   -1    0    0  501  503 -0.00000000000E+00 -0.00000000000E+00 -0.82917984192E+02  0.82917984192E+02  0.00000000000E+00 0.  1.
          6    1    1    2  501    0 -0.29288241872E+02  0.99755198553E+02  0.78384979809E+02  0.21652276049E+03  0.17300000000E+03 0.  1.
         -6    1    1    2    0  502  0.29288241872E+02 -0.99755198553E+02  0.72154018839E+03  0.74923837610E+03  0.17300000000E+03 0.  1.
<mgrwt>
<rscale>  2 0.20183632E+03</rscale>
<asrwt>0</asrwt>
<pdfrwt beam="1">  1       21 0.13582202E+00 0.20183632E+03</pdfrwt>
<pdfrwt beam="2">  1       21 0.12756614E-01 0.20183632E+03</pdfrwt>
<totfact> 0.20219892E+04</totfact>
</mgrwt>
</event>
<event>
 4    1  0.4067306E+000  0.2094132E+03  0.7546771E-02  0.1142032E+00
         21   -1    0    0  501  502  0.00000000000E+00  0.00000000000E+00  0.10098676722E+04  0.10098676722E+04  0.00000000000E+00 0.  1.
         21   -1    0    0  502  503 -0.00000000000E+00 -0.00000000000E+00 -0.16464512540E+03  0.16464512540E+03  0.00000000000E+00 0.  1.
          6    1    1    2  501    0  0.98398116302E+01 -0.11759280319E+03  0.92650621594E+03  0.94987770657E+03  0.17300000000E+03 0.  1.
         -6    1    1    2    0  503 -0.98398116302E+01  0.11759280319E+03 -0.81283669143E+02  0.22463509104E+03  0.17300000000E+03 0.  1.
<mgrwt>
<rscale>  2 0.20941320E+03</rscale>
<asrwt>0</asrwt>
<pdfrwt beam="1">  1       21 0.15536425E+00 0.20941320E+03</pdfrwt>
<pdfrwt beam="2">  1       21 0.25330020E-01 0.20941320E+03</pdfrwt>
<totfact> 0.39656285E+03</totfact>
</mgrwt>
</event>
<event>
 4    1  0.4067306E+000  0.1809423E+03  0.7546771E-02  0.1166894E+00
         21   -1    0    0  503  502  0.00000000000E+00  0.00000000000E+00  0.77905767393E+03  0.77905767393E+03  0.00000000000E+00 0. -1.
         21   -1    0    0  501  503 -0.00000000000E+00 -0.00000000000E+00 -0.73787146623E+02  0.73787146623E+02  0.00000000000E+00 0. -1.
          6    1    1    2  501    0  0.40551232165E+02  0.34156978613E+02  0.72864192746E+02  0.19506227775E+03  0.17300000000E+03 0. -1.
         -6    1    1    2    0  502 -0.40551232165E+02 -0.34156978613E+02  0.63240633456E+03  0.65778254280E+03  0.17300000000E+03 0. -1.
<mgrwt>
<rscale>  2 0.18094226E+03</rscale>
<asrwt>0</asrwt>
<pdfrwt beam="1">  1       21 0.11985502E+00 0.18094226E+03</pdfrwt>
<pdfrwt beam="2">  1       21 0.11351869E-01 0.18094226E+03</pdfrwt>
<totfact> 0.34550685E+04</totfact>
</mgrwt>
</event>
<event>
 4    1  0.4067306E+000  0.1956222E+03  0.7546771E-02  0.1153486E+00
         21   -1    0    0  501  502  0.00000000000E+00  0.00000000000E+00  0.45385892815E+03  0.45385892815E+03  0.00000000000E+00 0.  1.
         21   -1    0    0  502  503 -0.00000000000E+00 -0.00000000000E+00 -0.11233599859E+03  0.11233599859E+03  0.00000000000E+00 0.  1.
          6    1    1    2  501    0 -0.26627998209E+02 -0.87349781146E+02  0.31214622983E+03  0.36837929278E+03  0.17300000000E+03 0.  1.
         -6    1    1    2    0  503  0.26627998209E+02  0.87349781146E+02  0.29376699736E+02  0.19781563397E+03  0.17300000000E+03 0.  1.
<mgrwt>
<rscale>  2 0.19562217E+03</rscale>
<asrwt>0</asrwt>
<pdfrwt beam="1">  1       21 0.69824450E-01 0.19562217E+03</pdfrwt>
<pdfrwt beam="2">  1       21 0.17282462E-01 0.19562217E+03</pdfrwt>
<totfact> 0.56310615E+04</totfact>
</mgrwt>
</event>
<event>
 4    1  0.4067306E+000  0.2122054E+03  0.7546771E-02  0.1139831E+00
         21   -1    0    0  501  502  0.00000000000E+00  0.00000000000E+00  0.32082193541E+03  0.32082193541E+03  0.00000000000E+00 0.  1.
         21   -1    0    0  502  503 -0.00000000000E+00 -0.00000000000E+00 -0.29959248481E+03  0.29959248481E+03  0.00000000000E+00 0. -1.
          6    1    1    2  501    0  0.12253231333E+03  0.93795155621E+01  0.23676640459E+03  0.31794570836E+03  0.17300000000E+03 0.  1.
         -6    1    1    2    0  503 -0.12253231333E+03 -0.93795155621E+01 -0.21553695398E+03  0.30246871186E+03  0.17300000000E+03 0. -1.
<mgrwt>
<rscale>  2 0.21220543E+03</rscale>
<asrwt>0</asrwt>
<pdfrwt beam="1">  1       21 0.49357221E-01 0.21220543E+03</pdfrwt>
<pdfrwt beam="2">  1       21 0.46091151E-01 0.21220543E+03</pdfrwt>
<totfact> 0.17448687E+04</totfact>
</mgrwt>
</event>
<event>
 4    1  0.4067306E+000  0.1993143E+03  0.7546771E-02  0.1150319E+00
         21   -1    0    0  503  502  0.00000000000E+00  0.00000000000E+00  0.78375859555E+03  0.78375859555E+03  0.00000000000E+00 0. -1.
         21   -1    0    0  501  503 -0.00000000000E+00 -0.00000000000E+00 -0.81448223829E+02  0.81448223829E+02  0.00000000000E+00 0. -1.
          6    1    1    2  501    0 -0.51235324143E+02 -0.84688411744E+02  0.85295423026E+02  0.21679828116E+03  0.17300000000E+03 0. -1.
         -6    1    1    2    0  502  0.51235324143E+02  0.84688411744E+02  0.61701494870E+03  0.64840853822E+03  0.17300000000E+03 0. -1.
<mgrwt>
<rscale>  2 0.19931429E+03</rscale>
<asrwt>0</asrwt>
<pdfrwt beam="1">  1       21 0.12057824E+00 0.19931429E+03</pdfrwt>
<pdfrwt beam="2">  1       21 0.12530496E-01 0.19931429E+03</pdfrwt>
<totfact> 0.28225430E+04</totfact>
</mgrwt>
</event>
<event>
 4    1  0.4067306E+000  0.2292737E+03  0.7546771E-02  0.1127152E+00
         21   -1    0    0  503  502  0.00000000000E+00  0.00000000000E+00  0.18032751888E+03  0.18032751888E+03  0.00000000000E+00 0.  1.
         21   -1    0    0  501  503 -0.00000000000E+00 -0.00000000000E+00 -0.33470013847E+03  0.33470013847E+03  0.00000000000E+00 0. -1.
          6    1    1    2  501    0 -0.14052680092E+03 -0.53755593329E+02 -0.16969617164E+03  0.28524241666E+03  0.17300000000E+03 0. -1.
         -6    1    1    2    0  502  0.14052680092E+03  0.53755593329E+02  0.15323552053E+02  0.22978524069E+03  0.17300000000E+03 0.  1.
<mgrwt>
<rscale>  2 0.22927374E+03</rscale>
<asrwt>0</asrwt>
<pdfrwt beam="1">  1       21 0.27742695E-01 0.22927374E+03</pdfrwt>
<pdfrwt beam="2">  1       21 0.51492329E-01 0.22927374E+03</pdfrwt>
<totfact> 0.43667066E+04</totfact>
</mgrwt>
</event>
<event>
 4    1  0.4067306E+000  0.1902267E+03  0.7546771E-02  0.1158257E+00
         21   -1    0    0  503  502  0.00000000000E+00  0.00000000000E+00  0.30022556083E+03  0.30022556083E+03  0.00000000000E+00 0. -1.
         21   -1    0    0  501  503 -0.00000000000E+00 -0.00000000000E+00 -0.12261446642E+03  0.12261446642E+03  0.00000000000E+00 0.  1.
          6    1    1    2  501    0 -0.40643019299E+02 -0.67862677746E+02  0.11637123323E+03  0.22299879365E+03  0.17300000000E+03 0.  1.
         -6    1    1    2    0  502  0.40643019299E+02  0.67862677746E+02  0.61239861188E+02  0.19984123360E+03  0.17300000000E+03 0.  1.
<mgrwt>
<rscale>  2 0.19022670E+03</rscale>
<asrwt>0</asrwt>
<pdfrwt beam="1">  1       21 0.46188548E-01 0.19022670E+03</pdfrwt>
<pdfrwt beam="2">  1       21 0.18863764E-01 0.19022670E+03</pdfrwt>
<totfact> 0.11570816E+05</totfact>
</mgrwt>
</event>
<event>
 4    1  0.4067306E+000  0.1990032E+03  0.7546771E-02  0.1150583E+00
         21   -1    0    0  501  502  0.00000000000E+00  0.00000000000E+00  0.17488774577E+03  0.17488774577E+03  0.00000000000E+00 0.  1.
         21   -1    0    0  502  503 -0.00000000000E+00 -0.00000000000E+00 -0.97151116837E+03  0.97151116837E+03  0.00000000000E+00 0. -1.
          6    1    1    2  501    0  0.26610411271E+02 -0.94684568995E+02  0.10366039328E+03  0.22438306248E+03  0.17300000000E+03 0.  1.
         -6    1    1    2    0  503 -0.26610411271E+02  0.94684568995E+02 -0.90028381587E+03  0.92201585166E+03  0.17300000000E+03 0. -1.
<mgrwt>
<rscale>  2 0.19900322E+03</rscale>
<asrwt>0</asrwt>
<pdfrwt beam="1">  1       21 0.26905807E-01 0.19900322E+03</pdfrwt>
<pdfrwt beam="2">  1       21 0.14946326E+00 0.19900322E+03</pdfrwt>
<totfact> 0.39481769E+03</totfact>
</mgrwt>
</event>
<event>
 4    1  0.4067306E+000  0.4084976E+03  0.7546771E-02  0.1040876E+00
         21   -1    0    0  503  502  0.00000000000E+00  0.00000000000E+00  0.94380225168E+03  0.94380225168E+03  0.00000000000E+00 0. -1.
         21   -1    0    0  501  503 -0.00000000000E+00 -0.00000000000E+00 -0.29448483839E+03  0.29448483839E+03  0.00000000000E+00 0. -1.
          6    1    1    2  501    0  0.26392650297E+03 -0.25939176923E+03 -0.66730015501E+02  0.41391204849E+03  0.17300000000E+03 0. -1.
         -6    1    1    2    0  502 -0.26392650297E+03  0.25939176923E+03  0.71604742879E+03  0.82437504159E+03  0.17300000000E+03 0. -1.
<mgrwt>
<rscale>  2 0.40849760E+03</rscale>
<asrwt>0</asrwt>
<pdfrwt beam="1">  1       21 0.14520034E+00 0.40849760E+03</pdfrwt>
<pdfrwt beam="2">  1       21 0.45305360E-01 0.40849760E+03</pdfrwt>
<totfact> 0.13159990E+03</totfact>
</mgrwt>
</event>
<event>
 4    1  0.4067306E+000  0.1953037E+03  0.7546771E-02  0.1153763E+00
         21   -1    0    0  501  502  0.00000000000E+00  0.00000000000E+00  0.22083362803E+03  0.22083362803E+03  0.00000000000E+00 0. -1.
         21   -1    0    0  502  503 -0.00000000000E+00 -0.00000000000E+00 -0.26866727886E+03  0.26866727886E+03  0.00000000000E+00 0.  1.
          6    1    1    2  501    0  0.38647199799E+02 -0.81981382794E+02  0.12234145659E+03  0.23045820701E+03  0.17300000000E+03 0. -1.
         -6    1    1    2    0  503 -0.38647199799E+02  0.81981382794E+02 -0.17017510741E+03  0.25904269988E+03  0.17300000000E+03 0.  1.
<mgrwt>
<rscale>  2 0.19530375E+03</rscale>
<asrwt>0</asrwt>
<pdfrwt beam="1">  1       21 0.33974404E-01 0.19530375E+03</pdfrwt>
<pdfrwt beam="2">  1       21 0.41333428E-01 0.19530375E+03</pdfrwt>
<totfact> 0.46988232E+04</totfact>
</mgrwt>
</event>
<event>
 4    1  0.4067306E+000  0.2025584E+03  0.7546771E-02  0.1147598E+00
         21   -1    0    0  503  502  0.00000000000E+00  0.00000000000E+00  0.20106303897E+03  0.20106303897E+03  0.00000000000E+00 0. -1.
         21   -1    0    0  501  503 -0.00000000000E+00 -0.00000000000E+00 -0.22894878941E+03  0.22894878941E+03  0.00000000000E+00 0.  1.
          6    1    1    2  501    0 -0.79043638204E+02  0.69663458831E+02 -0.84825697302E+02  0.21960258004E+03  0.17300000000E+03 0.  1.
         -6    1    1    2    0  502  0.79043638204E+02 -0.69663458831E+02  0.56939946860E+02  0.21040924834E+03  0.17300000000E+03 0. -1.
<mgrwt>
<rscale>  2 0.20255837E+03</rscale>
<asrwt>0</asrwt>
<pdfrwt beam="1">  1       21 0.30932775E-01 0.20255837E+03</pdfrwt>
<pdfrwt beam="2">  1       21 0.35222891E-01 0.20255837E+03</pdfrwt>
<totfact> 0.77667912E+04</totfact>
</mgrwt>
</event>
<event>
 4    1  0.4067306E+000  0.1909373E+03  0.7546771E-02  0.1157619E+00
         21   -1    0    0  503  502  0.00000000000E+00  0.00000000000E+00  0.54795708958E+03  0.54795708958E+03  0.00000000000E+00 0.  1.
         21   -1    0    0  501  503 -0.00000000000E+00 -0.00000000000E+00 -0.33457224469E+03  0.33457224469E+03  0.00000000000E+00 0.  1.
          6    1    1    2  501    0 -0.40010814480E+02 -0.70193839427E+02 -0.28826808366E+03  0.34576802690E+03  0.17300000000E+03 0.  1.
         -6    1    1    2    0  502  0.40010814480E+02  0.70193839427E+02  0.50165292855E+03  0.53676130737E+03  0.17300000000E+03 0.  1.
<mgrwt>
<rscale>  2 0.19093727E+03</rscale>
<asrwt>0</asrwt>
<pdfrwt beam="1">  1       21 0.84301091E-01 0.19093727E+03</pdfrwt>
<pdfrwt beam="2">  1       21 0.51472653E-01 0.19093727E+03</pdfrwt>
<totfact> 0.43852013E+03</totfact>
</mgrwt>
</event>
<event>
 4    1  0.4067306E+000  0.2473880E+03  0.7546771E-02  0.1114967E+00
         21   -1    0    0  501  502  0.00000000000E+00  0.00000000000E+00  0.92813552988E+02  0.92813552988E+02  0.00000000000E+00 0.  1.
         21   -1    0    0  502  503 -0.00000000000E+00 -0.00000000000E+00 -0.68598719078E+03  0.68598719078E+03  0.00000000000E+00 0.  1.
          6    1    1    2  501    0  0.39518390730E+02  0.17236616499E+03 -0.37325496369E+03  0.44779466941E+03  0.17300000000E+03 0.  1.
         -6    1    1    2    0  503 -0.39518390730E+02 -0.17236616499E+03 -0.21991867411E+03  0.33100607436E+03  0.17300000000E+03 0.  1.
<mgrwt>
<rscale>  2 0.24738795E+03</rscale>
<asrwt>0</asrwt>
<pdfrwt beam="1">  1       21 0.14279009E-01 0.24738795E+03</pdfrwt>
<pdfrwt beam="2">  1       21 0.10553649E+00 0.24738795E+03</pdfrwt>
<totfact> 0.30081569E+04</totfact>
</mgrwt>
</event>
<event>
 4    1  0.4067306E+000  0.1763561E+03  0.7546771E-02  0.1171377E+00
         21   -1    0    0  503  502  0.00000000000E+00  0.00000000000E+00  0.11566804472E+03  0.11566804472E+03  0.00000000000E+00 0.  1.
         21   -1    0    0  501  503 -0.00000000000E+00 -0.00000000000E+00 -0.36145068393E+03  0.36145068393E+03  0.00000000000E+00 0.  1.
          6    1    1    2  501    0 -0.24011195375E+02  0.24411741282E+02 -0.24361586067E+03  0.30074932783E+03  0.17300000000E+03 0.  1.
         -6    1    1    2    0  502  0.24011195375E+02 -0.24411741282E+02 -0.21667785327E+01  0.17636940082E+03  0.17300000000E+03 0.  1.
<mgrwt>
<rscale>  2 0.17635609E+03</rscale>
<asrwt>0</asrwt>
<pdfrwt beam="1">  1       21 0.17795084E-01 0.17635609E+03</pdfrwt>
<pdfrwt beam="2">  1       21 0.55607797E-01 0.17635609E+03</pdfrwt>
<totfact> 0.87960700E+04</totfact>
</mgrwt>
</event>
<event>
 4    1  0.4067306E+000  0.2706676E+03  0.7546771E-02  0.1100898E+00
         21   -1    0    0  503  502  0.00000000000E+00  0.00000000000E+00  0.21362426983E+03  0.21362426983E+03  0.00000000000E+00 0. -1.
         21   -1    0    0  501  503 -0.00000000000E+00 -0.00000000000E+00 -0.38679225788E+03  0.38679225788E+03  0.00000000000E+00 0.  1.
          6    1    1    2  501    0  0.39674519991E+02  0.20434743601E+03 -0.18766394335E+03  0.32936104471E+03  0.17300000000E+03 0. -1.
         -6    1    1    2    0  502 -0.39674519991E+02 -0.20434743601E+03  0.14495955293E+02  0.27105548299E+03  0.17300000000E+03 0.  1.
<mgrwt>
<rscale>  2 0.27066759E+03</rscale>
<asrwt>0</asrwt>
<pdfrwt beam="1">  1       21 0.32865273E-01 0.27066759E+03</pdfrwt>
<pdfrwt beam="2">  1       21 0.59506501E-01 0.27066759E+03</pdfrwt>
<totfact> 0.22588289E+04</totfact>
</mgrwt>
</event>
<event>
 4    1  0.4067306E+000  0.2210112E+03  0.7546771E-02  0.1133131E+00
         21   -1    0    0  503  502  0.00000000000E+00  0.00000000000E+00  0.90530188597E+02  0.90530188597E+02  0.00000000000E+00 0. -1.
         21   -1    0    0  501  503 -0.00000000000E+00 -0.00000000000E+00 -0.63199460578E+03  0.63199460578E+03  0.00000000000E+00 0.  1.
          6    1    1    2  501    0  0.11874432180E+03  0.69402742744E+02 -0.40889678354E+03  0.46480375886E+03  0.17300000000E+03 0.  1.
         -6    1    1    2    0  502 -0.11874432180E+03 -0.69402742744E+02 -0.13256763365E+03  0.25772103552E+03  0.17300000000E+03 0. -1.
<mgrwt>
<rscale>  2 0.22101121E+03</rscale>
<asrwt>0</asrwt>
<pdfrwt beam="1">  1       21 0.13927722E-01 0.22101121E+03</pdfrwt>
<pdfrwt beam="2">  1       21 0.97229937E-01 0.22101121E+03</pdfrwt>
<totfact> 0.38792835E+04</totfact>
</mgrwt>
</event>
<event>
 4    1  0.4067306E+000  0.1919447E+03  0.7546771E-02  0.1156719E+00
         21   -1    0    0  501  502  0.00000000000E+00  0.00000000000E+00  0.78478413602E+02  0.78478413602E+02  0.00000000000E+00 0. -1.
         21   -1    0    0  502  503 -0.00000000000E+00 -0.00000000000E+00 -0.10730979686E+04  0.10730979686E+04  0.00000000000E+00 0. -1.
          6    1    1    2  501    0  0.70165638009E+02  0.44615666467E+02 -0.65462710908E+02  0.20280074204E+03  0.17300000000E+03 0. -1.
         -6    1    1    2    0  503 -0.70165638009E+02 -0.44615666467E+02 -0.92915684412E+03  0.94877564019E+03  0.17300000000E+03 0. -1.
<mgrwt>
<rscale>  2 0.19194472E+03</rscale>
<asrwt>0</asrwt>
<pdfrwt beam="1">  1       21 0.12073603E-01 0.19194472E+03</pdfrwt>
<pdfrwt beam="2">  1       21 0.16509198E+00 0.19194472E+03</pdfrwt>
<totfact> 0.13427186E+04</totfact>
</mgrwt>
</event>
<event>
 4    1  0.4067306E+000  0.2483203E+03  0.7546771E-02  0.1114371E+00
         21   -1    0    0  503  502  0.00000000000E+00  0.00000000000E+00  0.77853957831E+03  0.77853957831E+03  0.00000000000E+00 0. -1.
         21   -1    0    0  501  503 -0.00000000000E+00 -0.00000000000E+00 -0.41876834163E+03  0.41876834163E+03  0.00000000000E+00 0. -1.
          6    1    1    2  501    0 -0.31021247823E+01 -0.17811336827E+03 -0.35919081965E+03  0.43667040208E+03  0.17300000000E+03 0. -1.
         -6    1    1    2    0  502  0.31021247823E+01  0.17811336827E+03  0.71896205633E+03  0.76063751786E+03  0.17300000000E+03 0. -1.
<mgrwt>
<rscale>  2 0.24832035E+03</rscale>
<asrwt>0</asrwt>
<pdfrwt beam="1">  1       21 0.11977532E+00 0.24832035E+03</pdfrwt>
<pdfrwt beam="2">  1       21 0.64425899E-01 0.24832035E+03</pdfrwt>
<totfact> 0.11214524E+03</totfact>
</mgrwt>
</event>
<event>
 4    1  0.4067306E+000  0.1929258E+03  0.7546771E-02  0.1155849E+00
         21   -1    0    0  501  502  0.00000000000E+00  0.00000000000E+00  0.23266657336E+03  0.23266657336E+03  0.00000000000E+00 0. -1.
         21   -1    0    0  502  503 -0.00000000000E+00 -0.00000000000E+00 -0.17537887234E+03  0.17537887234E+03  0.00000000000E+00 0. -1.
          6    1    1    2  501    0 -0.80905426421E+02  0.27306920816E+02  0.89113003514E+02  0.21251231339E+03  0.17300000000E+03 0. -1.
         -6    1    1    2    0  503  0.80905426421E+02 -0.27306920816E+02 -0.31825302496E+02  0.19553313230E+03  0.17300000000E+03 0. -1.
<mgrwt>
<rscale>  2 0.19292578E+03</rscale>
<asrwt>0</asrwt>
<pdfrwt beam="1">  1       21 0.35794857E-01 0.19292578E+03</pdfrwt>
<pdfrwt beam="2">  1       21 0.26981365E-01 0.19292578E+03</pdfrwt>
<totfact> 0.98485117E+04</totfact>
</mgrwt>
</event>
<event>
 4    1  0.4067306E+000  0.2327554E+03  0.7546771E-02  0.1124715E+00
         21   -1    0    0  501  502  0.00000000000E+00  0.00000000000E+00  0.78857049162E+02  0.78857049162E+02  0.00000000000E+00 0.  1.
         21   -1    0    0  502  503 -0.00000000000E+00 -0.00000000000E+00 -0.68753111569E+03  0.68753111569E+03  0.00000000000E+00 0. -1.
          6    1    1    2  501    0 -0.15170190800E+03 -0.35108409555E+02 -0.29372182177E+03  0.37476336253E+03  0.17300000000E+03 0. -1.
         -6    1    1    2    0  503  0.15170190800E+03  0.35108409555E+02 -0.31495224477E+03  0.39162480233E+03  0.17300000000E+03 0. -1.
<mgrwt>
<rscale>  2 0.23275539E+03</rscale>
<asrwt>0</asrwt>
<pdfrwt beam="1">  1       21 0.12131854E-01 0.23275539E+03</pdfrwt>
<pdfrwt beam="2">  1       21 0.10577402E+00 0.23275539E+03</pdfrwt>
<totfact> 0.40465671E+04</totfact>
</mgrwt>
</event>
<event>
 4    1  0.4067306E+000  0.2102500E+03  0.7546771E-02  0.1141368E+00
         21   -1    0    0  501  502  0.00000000000E+00  0.00000000000E+00  0.17661345705E+04  0.17661345705E+04  0.00000000000E+00 0.  1.
         21   -1    0    0  502  503 -0.00000000000E+00 -0.00000000000E+00 -0.30260277524E+02  0.30260277524E+02  0.00000000000E+00 0.  1.
          6    1    1    2  501    0  0.11414260142E+03 -0.35320097009E+02  0.12413836585E+04  0.12590625204E+04  0.17300000000E+03 0.  1.
         -6    1    1    2    0  503 -0.11414260142E+03  0.35320097009E+02  0.49449063445E+03  0.53733232759E+03  0.17300000000E+03 0.  1.
<mgrwt>
<rscale>  2 0.21024995E+03</rscale>
<asrwt>0</asrwt>
<pdfrwt beam="1">  1       21 0.27171293E+00 0.21024995E+03</pdfrwt>
<pdfrwt beam="2">  1       21 0.46554287E-02 0.21024995E+03</pdfrwt>
<totfact> 0.14836222E+04</totfact>
</mgrwt>
</event>
<event>
 4    1  0.4067306E+000  0.1819942E+03  0.7546771E-02  0.1165887E+00
         21   -1    0    0  503  502  0.00000000000E+00  0.00000000000E+00  0.43160095589E+03  0.43160095589E+03  0.00000000000E+00 0. -1.
         21   -1    0    0  501  503 -0.00000000000E+00 -0.00000000000E+00 -0.86313288356E+02  0.86313288356E+02  0.00000000000E+00 0. -1.
          6    1    1    2  501    0  0.42304477550E+02 -0.37459775546E+02  0.86410511158E+02  0.20146632484E+03  0.17300000000E+03 0. -1.
         -6    1    1    2    0  502 -0.42304477550E+02  0.37459775546E+02  0.25887715638E+03  0.31644791941E+03  0.17300000000E+03 0. -1.
<mgrwt>
<rscale>  2 0.18199424E+03</rscale>
<asrwt>0</asrwt>
<pdfrwt beam="1">  1       21 0.66400146E-01 0.18199424E+03</pdfrwt>
<pdfrwt beam="2">  1       21 0.13278968E-01 0.18199424E+03</pdfrwt>
<totfact> 0.10220066E+05</totfact>
</mgrwt>
</event>
<event>
 4    1  0.4067306E+000  0.2428692E+03  0.7546771E-02  0.1117896E+00
         21   -1    0    0  503  502  0.00000000000E+00  0.00000000000E+00  0.81162376685E+03  0.81162376685E+03  0.00000000000E+00 0. -1.
         21   -1    0    0  501  503 -0.00000000000E+00 -0.00000000000E+00 -0.12271287816E+03  0.12271287816E+03  0.00000000000E+00 0.  1.
          6    1    1    2  501    0 -0.89250824814E+02  0.14522643125E+03  0.46141068854E+02  0.24721331740E+03  0.17300000000E+03 0.  1.
         -6    1    1    2    0  502  0.89250824814E+02 -0.14522643125E+03  0.64276981984E+03  0.68712332762E+03  0.17300000000E+03 0. -1.
<mgrwt>
<rscale>  2 0.24286915E+03</rscale>
<asrwt>0</asrwt>
<pdfrwt beam="1">  1       21 0.12486519E+00 0.24286915E+03</pdfrwt>
<pdfrwt beam="2">  1       21 0.18878905E-01 0.24286915E+03</pdfrwt>
<totfact> 0.11899590E+04</totfact>
</mgrwt>
</event>
<event>
 4    1  0.4067306E+000  0.2105343E+03  0.7546771E-02  0.1141144E+00
         21   -1    0    0  501  502  0.00000000000E+00  0.00000000000E+00  0.37563047647E+03  0.37563047647E+03  0.00000000000E+00 0.  1.
         21   -1    0    0  502  503 -0.00000000000E+00 -0.00000000000E+00 -0.12084929032E+04  0.12084929032E+04  0.00000000000E+00 0. -1.
          6    1    1    2  501    0 -0.41271425615E+02 -0.11266035624E+03  0.33596781103E+03  0.39648336219E+03  0.17300000000E+03 0.  1.
         -6    1    1    2    0  503  0.41271425615E+02  0.11266035624E+03 -0.11688302377E+04  0.11876400175E+04  0.17300000000E+03 0. -1.
<mgrwt>
<rscale>  2 0.21053429E+03</rscale>
<asrwt>0</asrwt>
<pdfrwt beam="1">  1       21 0.57789304E-01 0.21053429E+03</pdfrwt>
<pdfrwt beam="2">  1       21 0.18592199E+00 0.21053429E+03</pdfrwt>
<totfact> 0.45646629E+02</totfact>
</mgrwt>
</event>
<event>
 4    1  0.4067306E+000  0.2255234E+03  0.7546771E-02  0.1129831E+00
         21   -1    0    0  501  502  0.00000000000E+00  0.00000000000E+00  0.29957262712E+03  0.29957262712E+03  0.00000000000E+00 0.  1.
         21   -1    0    0  502  503 -0.00000000000E+00 -0.00000000000E+00 -0.29176913649E+03  0.29176913649E+03  0.00000000000E+00 0.  1.
          6    1    1    2  501    0  0.14352671889E+03  0.18218096259E+02  0.19508645650E+03  0.29819380204E+03  0.17300000000E+03 0.  1.
         -6    1    1    2    0  503 -0.14352671889E+03 -0.18218096259E+02 -0.18728296586E+03  0.29314796156E+03  0.17300000000E+03 0.  1.
<mgrwt>
<rscale>  2 0.22552343E+03</rscale>
<asrwt>0</asrwt>
<pdfrwt beam="1">  1       21 0.46088096E-01 0.22552343E+03</pdfrwt>
<pdfrwt beam="2">  1       21 0.44887559E-01 0.22552343E+03</pdfrwt>
<totfact> 0.21089697E+04</totfact>
</mgrwt>
</event>
<event>
 4    1  0.4067306E+000  0.2052853E+03  0.7546771E-02  0.1145355E+00
         21   -1    0    0  503  502  0.00000000000E+00  0.00000000000E+00  0.13065688356E+04  0.13065688356E+04  0.00000000000E+00 0.  1.
         21   -1    0    0  501  503 -0.00000000000E+00 -0.00000000000E+00 -0.13922487167E+03  0.13922487167E+03  0.00000000000E+00 0.  1.
          6    1    1    2  501    0  0.28562743340E+02 -0.10675769755E+03 -0.49979920359E+02  0.21128187034E+03  0.17300000000E+03 0.  1.
         -6    1    1    2    0  502 -0.28562743340E+02  0.10675769755E+03  0.12173238843E+04  0.12345118370E+04  0.17300000000E+03 0.  1.
<mgrwt>
<rscale>  2 0.20528526E+03</rscale>
<asrwt>0</asrwt>
<pdfrwt beam="1">  1       21 0.20101058E+00 0.20528526E+03</pdfrwt>
<pdfrwt beam="2">  1       21 0.21419212E-01 0.20528526E+03</pdfrwt>
<totfact> 0.26519396E+03</totfact>
</mgrwt>
</event>
<event>
 4    1  0.4067306E+000  0.4450340E+03  0.7546771E-02  0.1029213E+00
         21   -1    0    0  503  502  0.00000000000E+00  0.00000000000E+00  0.35101842102E+03  0.35101842102E+03  0.00000000000E+00 0. -1.
         21   -1    0    0  501  503 -0.00000000000E+00 -0.00000000000E+00 -0.59007887650E+03  0.59007887650E+03  0.00000000000E+00 0. -1.
          6    1    1    2  501    0  0.33785204819E+03  0.23234076055E+03 -0.21045779284E+02  0.44553132359E+03  0.17300000000E+03 0. -1.
         -6    1    1    2    0  502 -0.33785204819E+03 -0.23234076055E+03 -0.21801467620E+03  0.49556597393E+03  0.17300000000E+03 0. -1.
<mgrwt>
<rscale>  2 0.44503397E+03</rscale>
<asrwt>0</asrwt>
<pdfrwt beam="1">  1       21 0.54002834E-01 0.44503397E+03</pdfrwt>
<pdfrwt beam="2">  1       21 0.90781366E-01 0.44503397E+03</pdfrwt>
<totfact> 0.29084551E+03</totfact>
</mgrwt>
</event>
<event>
 4    1  0.4067306E+000  0.2064851E+03  0.7546771E-02  0.1144380E+00
         21   -1    0    0  503  502  0.00000000000E+00  0.00000000000E+00  0.90493180435E+02  0.90493180435E+02  0.00000000000E+00 0.  1.
         21   -1    0    0  501  503 -0.00000000000E+00 -0.00000000000E+00 -0.96155878891E+03  0.96155878891E+03  0.00000000000E+00 0.  1.
          6    1    1    2  501    0 -0.62407289929E+02  0.93874599402E+02 -0.81119473356E+03  0.83706212793E+03  0.17300000000E+03 0.  1.
         -6    1    1    2    0  502  0.62407289929E+02 -0.93874599402E+02 -0.59870874908E+02  0.21498984141E+03  0.17300000000E+03 0.  1.
<mgrwt>
<rscale>  2 0.20648513E+03</rscale>
<asrwt>0</asrwt>
<pdfrwt beam="1">  1       21 0.13922027E-01 0.20648513E+03</pdfrwt>
<pdfrwt beam="2">  1       21 0.14793213E+00 0.20648513E+03</pdfrwt>
<totfact> 0.13787967E+04</totfact>
</mgrwt>
</event>
<event>
 4    1  0.4067306E+000  0.2774941E+03  0.7546771E-02  0.1097066E+00
         21   -1    0    0  501  502  0.00000000000E+00  0.00000000000E+00  0.17414138828E+04  0.17414138828E+04  0.00000000000E+00 0.  1.
         21   -1    0    0  502  503 -0.00000000000E+00 -0.00000000000E+00 -0.44321949458E+02  0.44321949458E+02  0.00000000000E+00 0.  1.
          6    1    1    2  501    0 -0.20943261478E+03 -0.56673886122E+02  0.80543847543E+03  0.85190028008E+03  0.17300000000E+03 0.  1.
         -6    1    1    2    0  503  0.20943261478E+03  0.56673886122E+02  0.89165345795E+03  0.93383555221E+03  0.17300000000E+03 0.  1.
<mgrwt>
<rscale>  2 0.27749405E+03</rscale>
<asrwt>0</asrwt>
<pdfrwt beam="1">  1       21 0.26790977E+00 0.27749405E+03</pdfrwt>
<pdfrwt beam="2">  1       21 0.68187628E-02 0.27749405E+03</pdfrwt>
<totfact> 0.76888697E+03</totfact>
</mgrwt>
</event>
<event>
 4    1  0.4067306E+000  0.2053533E+03  0.7546771E-02  0.1145299E+00
         21   -1    0    0  503  502  0.00000000000E+00  0.00000000000E+00  0.46753297728E+02  0.46753297728E+02  0.00000000000E+00 0. -1.
         21   -1    0    0  501  503 -0.00000000000E+00 -0.00000000000E+00 -0.93407091739E+03  0.93407091739E+03  0.00000000000E+00 0.  1.
          6    1    1    2  501    0 -0.10869084810E+03 -0.20671076263E+02 -0.35274260894E+03  0.40816337663E+03  0.17300000000E+03 0.  1.
         -6    1    1    2    0  502  0.10869084810E+03  0.20671076263E+02 -0.53457501072E+03  0.57266083849E+03  0.17300000000E+03 0.  1.
<mgrwt>
<rscale>  2 0.20535334E+03</rscale>
<asrwt>0</asrwt>
<pdfrwt beam="1">  1       21 0.71928151E-02 0.20535334E+03</pdfrwt>
<pdfrwt beam="2">  1       21 0.14370322E+00 0.20535334E+03</pdfrwt>
<totfact> 0.47919199E+04</totfact>
</mgrwt>
</event>
<event>
 4    1  0.4067306E+000  0.1764653E+03  0.7546771E-02  0.1171268E+00
         21   -1    0    0  503  502  0.00000000000E+00  0.00000000000E+00  0.10014875103E+04  0.10014875103E+04  0.00000000000E+00 0.  1.
         21   -1    0    0  501  503 -0.00000000000E+00 -0.00000000000E+00 -0.32612045345E+02  0.32612045345E+02  0.00000000000E+00 0.  1.
          6    1    1    2  501    0 -0.34678212765E+02  0.29048155253E+01  0.37287492086E+03  0.41252360296E+03  0.17300000000E+03 0. -1.
         -6    1    1    2    0  502  0.34678212765E+02 -0.29048155253E+01  0.59600054412E+03  0.62157595270E+03  0.17300000000E+03 0. -1.
<mgrwt>
<rscale>  2 0.17646534E+03</rscale>
<asrwt>0</asrwt>
<pdfrwt beam="1">  1       21 0.15407498E+00 0.17646534E+03</pdfrwt>
<pdfrwt beam="2">  1       21 0.50172385E-02 0.17646534E+03</pdfrwt>
<totfact> 0.75100977E+04</totfact>
</mgrwt>
</event>
<event>
 4    1  0.4067306E+000  0.1732402E+03  0.7546771E-02  0.1174510E+00
         21   -1    0    0  503  502  0.00000000000E+00  0.00000000000E+00  0.20304410681E+03  0.20304410681E+03  0.00000000000E+00 0. -1.
         21   -1    0    0  501  503 -0.00000000000E+00 -0.00000000000E+00 -0.57929181935E+03  0.57929181935E+03  0.00000000000E+00 0. -1.
          6    1    1    2  501    0 -0.89086720098E+01 -0.19523601983E+01 -0.52571828390E+03  0.55352677458E+03  0.17300000000E+03 0. -1.
         -6    1    1    2    0  502  0.89086720098E+01  0.19523601983E+01  0.14947057135E+03  0.22880915158E+03  0.17300000000E+03 0. -1.
<mgrwt>
<rscale>  2 0.17324023E+03</rscale>
<asrwt>0</asrwt>
<pdfrwt beam="1">  1       21 0.31237555E-01 0.17324023E+03</pdfrwt>
<pdfrwt beam="2">  1       21 0.89121817E-01 0.17324023E+03</pdfrwt>
<totfact> 0.10728403E+04</totfact>
</mgrwt>
</event>
<event>
 4    1  0.4067306E+000  0.1947126E+03  0.7546771E-02  0.1154278E+00
         21   -1    0    0  501  502  0.00000000000E+00  0.00000000000E+00  0.43047593372E+03  0.43047593372E+03  0.00000000000E+00 0. -1.
         21   -1    0    0  502  503 -0.00000000000E+00 -0.00000000000E+00 -0.12566441028E+03  0.12566441028E+03  0.00000000000E+00 0. -1.
          6    1    1    2  501    0 -0.30860955285E+02 -0.83854604937E+02  0.30449440092E+03  0.36142749414E+03  0.17300000000E+03 0. -1.
         -6    1    1    2    0  503  0.30860955285E+02  0.83854604937E+02  0.31712251793E+00  0.19471284985E+03  0.17300000000E+03 0. -1.
<mgrwt>
<rscale>  2 0.19471259E+03</rscale>
<asrwt>0</asrwt>
<pdfrwt beam="1">  1       21 0.66227066E-01 0.19471259E+03</pdfrwt>
<pdfrwt beam="2">  1       21 0.19332986E-01 0.19471259E+03</pdfrwt>
<totfact> 0.51404222E+04</totfact>
</mgrwt>
</event>
<event>
 4    1  0.4067306E+000  0.2054188E+03  0.7546771E-02  0.1145246E+00
         21   -1    0    0  501  502  0.00000000000E+00  0.00000000000E+00  0.16969667014E+03  0.16969667014E+03  0.00000000000E+00 0. -1.
         21   -1    0    0  502  503 -0.00000000000E+00 -0.00000000000E+00 -0.32206184139E+03  0.32206184139E+03  0.00000000000E+00 0. -1.
          6    1    1    2  501    0 -0.85831335005E+02  0.70006144819E+02  0.41200064914E+02  0.20950972228E+03  0.17300000000E+03 0. -1.
         -6    1    1    2    0  503  0.85831335005E+02 -0.70006144819E+02 -0.19356523617E+03  0.28224878925E+03  0.17300000000E+03 0. -1.
<mgrwt>
<rscale>  2 0.20541879E+03</rscale>
<asrwt>0</asrwt>
<pdfrwt beam="1">  1       21 0.26107180E-01 0.20541879E+03</pdfrwt>
<pdfrwt beam="2">  1       21 0.49547975E-01 0.20541879E+03</pdfrwt>
<totfact> 0.53808000E+04</totfact>
</mgrwt>
</event>
<event>
 4    1  0.4067306E+000  0.2087223E+03  0.7546771E-02  0.1142582E+00
         21   -1    0    0  503  502  0.00000000000E+00  0.00000000000E+00  0.20094513007E+03  0.20094513007E+03  0.00000000000E+00 0.  1.
         21   -1    0    0  501  503 -0.00000000000E+00 -0.00000000000E+00 -0.21752991734E+03  0.21752991734E+03  0.00000000000E+00 0.  1.
          6    1    1    2  501    0  0.88599897940E+02 -0.76066161986E+02 -0.20408713134E+02  0.20971771143E+03  0.17300000000E+03 0.  1.
         -6    1    1    2    0  502 -0.88599897940E+02  0.76066161986E+02  0.38239258637E+01  0.20875733597E+03  0.17300000000E+03 0.  1.
<mgrwt>
<rscale>  2 0.20872231E+03</rscale>
<asrwt>0</asrwt>
<pdfrwt beam="1">  1       21 0.30914636E-01 0.20872231E+03</pdfrwt>
<pdfrwt beam="2">  1       21 0.33466141E-01 0.20872231E+03</pdfrwt>
<totfact> 0.85839053E+04</totfact>
</mgrwt>
</event>
<event>
 4    1  0.4067306E+000  0.2347935E+03  0.7546771E-02  0.1123311E+00
         21   -1    0    0  503  502  0.00000000000E+00  0.00000000000E+00  0.84484849699E+03  0.84484849699E+03  0.00000000000E+00 0. -1.
         21   -1    0    0  501  503 -0.00000000000E+00 -0.00000000000E+00 -0.18493919574E+03  0.18493919574E+03  0.00000000000E+00 0.  1.
          6    1    1    2  501    0 -0.15801411908E+03  0.15183366085E+02 -0.84261653054E+02  0.24945545216E+03  0.17300000000E+03 0.  1.
         -6    1    1    2    0  502  0.15801411908E+03 -0.15183366085E+02  0.74417095431E+03  0.78033224057E+03  0.17300000000E+03 0. -1.
<mgrwt>
<rscale>  2 0.23479352E+03</rscale>
<asrwt>0</asrwt>
<pdfrwt beam="1">  1       21 0.12997669E+00 0.23479352E+03</pdfrwt>
<pdfrwt beam="2">  1       21 0.28452184E-01 0.23479352E+03</pdfrwt>
<totfact> 0.49459197E+03</totfact>
</mgrwt>
</event>
<event>
 4    1  0.4067306E+000  0.1772768E+03  0.7546771E-02  0.1170465E+00
         21   -1    0    0  501  502  0.00000000000E+00  0.00000000000E+00  0.45777897034E+02  0.45777897034E+02  0.00000000000E+00 0.  1.
         21   -1    0    0  502  503 -0.00000000000E+00 -0.00000000000E+00 -0.83870954888E+03  0.83870954888E+03  0.00000000000E+00 0. -1.
          6    1    1    2  501    0  0.13739508020E+02 -0.36184299121E+02 -0.20807504237E+03  0.27335380159E+03  0.17300000000E+03 0.  1.
         -6    1    1    2    0  503 -0.13739508020E+02  0.36184299121E+02 -0.58485660947E+03  0.61113364432E+03  0.17300000000E+03 0. -1.
<mgrwt>
<rscale>  2 0.17727684E+03</rscale>
<asrwt>0</asrwt>
<pdfrwt beam="1">  1       21 0.70427538E-02 0.17727684E+03</pdfrwt>
<pdfrwt beam="2">  1       21 0.12903223E+00 0.17727684E+03</pdfrwt>
<totfact> 0.66438404E+04</totfact>
</mgrwt>
</event>
<event>
 4    1  0.4067306E+000  0.1768030E+03  0.7546771E-02  0.1170934E+00
         21   -1    0    0  501  502  0.00000000000E+00  0.00000000000E+00  0.30739097280E+02  0.30739097280E+02  0.00000000000E+00 0. -1.
         21   -1    0    0  502  503 -0.00000000000E+00 -0.00000000000E+00 -0.10396510827E+04  0.10396510827E+04  0.00000000000E+00 0. -1.
          6    1    1    2  501    0  0.34021252137E+02  0.13146960005E+02 -0.42532404576E+03  0.46060811115E+03  0.17300000000E+03 0.  1.
         -6    1    1    2    0  503 -0.34021252137E+02 -0.13146960005E+02 -0.58358793968E+03  0.60978206886E+03  0.17300000000E+03 0.  1.
<mgrwt>
<rscale>  2 0.17680296E+03</rscale>
<asrwt>0</asrwt>
<pdfrwt beam="1">  1       21 0.47290922E-02 0.17680296E+03</pdfrwt>
<pdfrwt beam="2">  1       21 0.15994631E+00 0.17680296E+03</pdfrwt>
<totfact> 0.75097716E+04</totfact>
</mgrwt>
</event>
<event>
 4    1  0.4067306E+000  0.1978744E+03  0.7546771E-02  0.1151545E+00
         21   -1    0    0  503  502  0.00000000000E+00  0.00000000000E+00  0.18914835345E+03  0.18914835345E+03  0.00000000000E+00 0. -1.
         21   -1    0    0  501  503 -0.00000000000E+00 -0.00000000000E+00 -0.22003485431E+03  0.22003485431E+03  0.00000000000E+00 0. -1.
          6    1    1    2  501    0 -0.80022009321E+02  0.53120160748E+02 -0.65233631819E+02  0.20834994642E+03  0.17300000000E+03 0. -1.
         -6    1    1    2    0  502  0.80022009321E+02 -0.53120160748E+02  0.34347130952E+02  0.20083326133E+03  0.17300000000E+03 0. -1.
<mgrwt>
<rscale>  2 0.19787439E+03</rscale>
<asrwt>0</asrwt>
<pdfrwt beam="1">  1       21 0.29099747E-01 0.19787439E+03</pdfrwt>
<pdfrwt beam="2">  1       21 0.33851516E-01 0.19787439E+03</pdfrwt>
<totfact> 0.94857092E+04</totfact>
</mgrwt>
</event>
<event>
 4    1  0.4067306E+000  0.2113702E+03  0.7546771E-02  0.1140485E+00
         21   -1    0    0  501  502  0.00000000000E+00  0.00000000000E+00  0.14767560038E+04  0.14767560038E+04  0.00000000000E+00 0.  1.
         21   -1    0    0  502  503 -0.00000000000E+00 -0.00000000000E+00 -0.67607683211E+02  0.67607683211E+02  0.00000000000E+00 0. -1.
          6    1    1    2  501    0  0.46474671392E+02 -0.11219840902E+03  0.12785450168E+04  0.12958992006E+04  0.17300000000E+03 0.  1.
         -6    1    1    2    0  503 -0.46474671392E+02  0.11219840902E+03  0.13060330383E+03  0.24846448647E+03  0.17300000000E+03 0. -1.
<mgrwt>
<rscale>  2 0.21137024E+03</rscale>
<asrwt>0</asrwt>
<pdfrwt beam="1">  1       21 0.22719321E+00 0.21137024E+03</pdfrwt>
<pdfrwt beam="2">  1       21 0.10401183E-01 0.21137024E+03</pdfrwt>
<totfact> 0.67655827E+03</totfact>
</mgrwt>
</event>
<event>
 4    1  0.4067306E+000  0.1917365E+03  0.7546771E-02  0.1156904E+00
         21   -1    0    0  501  502  0.00000000000E+00  0.00000000000E+00  0.69796780556E+02  0.69796780556E+02  0.00000000000E+00 0.  1.
         21   -1    0    0  502  503 -0.00000000000E+00 -0.00000000000E+00 -0.97671874356E+03  0.97671874356E+03  0.00000000000E+00 0.  1.
          6    1    1    2  501    0  0.32852454581E+02 -0.75859209263E+02 -0.98288158245E+02  0.21546105322E+03  0.17300000000E+03 0.  1.
         -6    1    1    2    0  503 -0.32852454581E+02  0.75859209263E+02 -0.80863380476E+03  0.83105447090E+03  0.17300000000E+03 0.  1.
<mgrwt>
<rscale>  2 0.19173655E+03</rscale>
<asrwt>0</asrwt>
<pdfrwt beam="1">  1       21 0.10737966E-01 0.19173655E+03</pdfrwt>
<pdfrwt beam="2">  1       21 0.15026442E+00 0.19173655E+03</pdfrwt>
<totfact> 0.21295900E+04</totfact>
</mgrwt>
</event>
<event>
 4    1  0.4067306E+000  0.2371306E+03  0.7546771E-02  0.1121719E+00
         21   -1    0    0  501  502  0.00000000000E+00  0.00000000000E+00  0.31840220377E+03  0.31840220377E+03  0.00000000000E+00 0. -1.
         21   -1    0    0  502  503 -0.00000000000E+00 -0.00000000000E+00 -0.69063575530E+03  0.69063575530E+03  0.00000000000E+00 0. -1.
          6    1    1    2  501    0 -0.13498258360E+03  0.89897945696E+02  0.24914263705E+03  0.34395202007E+03  0.17300000000E+03 0. -1.
         -6    1    1    2    0  503  0.13498258360E+03 -0.89897945696E+02 -0.62137618858E+03  0.66508593900E+03  0.17300000000E+03 0. -1.
<mgrwt>
<rscale>  2 0.23713064E+03</rscale>
<asrwt>0</asrwt>
<pdfrwt beam="1">  1       21 0.48984954E-01 0.23713064E+03</pdfrwt>
<pdfrwt beam="2">  1       21 0.10625165E+00 0.23713064E+03</pdfrwt>
<totfact> 0.27239721E+03</totfact>
</mgrwt>
</event>
<event>
 4    1  0.4067306E+000  0.2098491E+03  0.7546771E-02  0.1141686E+00
         21   -1    0    0  501  502  0.00000000000E+00  0.00000000000E+00  0.18284181876E+04  0.18284181876E+04  0.00000000000E+00 0.  1.
         21   -1    0    0  502  503 -0.00000000000E+00 -0.00000000000E+00 -0.16883566704E+03  0.16883566704E+03  0.00000000000E+00 0. -1.
          6    1    1    2  501    0  0.95467757765E+02 -0.70665124602E+02  0.17544513567E+04  0.17669567668E+04  0.17300000000E+03 0.  1.
         -6    1    1    2    0  503 -0.95467757765E+02  0.70665124602E+02 -0.94868836147E+02  0.23029708787E+03  0.17300000000E+03 0. -1.
<mgrwt>
<rscale>  2 0.20984912E+03</rscale>
<asrwt>0</asrwt>
<pdfrwt beam="1">  1       21 0.28129509E+00 0.20984912E+03</pdfrwt>
<pdfrwt beam="2">  1       21 0.25974719E-01 0.20984912E+03</pdfrwt>
<totfact> 0.60198363E+02</totfact>
</mgrwt>
</event>
<event>
 4    1  0.4067306E+000  0.1828135E+03  0.7546771E-02  0.1165108E+00
         21   -1    0    0  503  502  0.00000000000E+00  0.00000000000E+00  0.73455654716E+03  0.73455654716E+03  0.00000000000E+00 0.  1.
         21   -1    0    0  501  503 -0.00000000000E+00 -0.00000000000E+00 -0.10877212160E+03  0.10877212160E+03  0.00000000000E+00 0.  1.
          6    1    1    2  501    0  0.33332158031E+02  0.48793005798E+02 -0.87117774045E+01  0.18302099672E+03  0.17300000000E+03 0.  1.
         -6    1    1    2    0  502 -0.33332158031E+02 -0.48793005798E+02  0.63449620296E+03  0.66030767204E+03  0.17300000000E+03 0.  1.
<mgrwt>
<rscale>  2 0.18281354E+03</rscale>
<asrwt>0</asrwt>
<pdfrwt beam="1">  1       21 0.11300870E+00 0.18281354E+03</pdfrwt>
<pdfrwt beam="2">  1       21 0.16734173E-01 0.18281354E+03</pdfrwt>
<totfact> 0.19767188E+04</totfact>
</mgrwt>
</event>
<event>
 4    1  0.4067306E+000  0.1963794E+03  0.7546771E-02  0.1152830E+00
         21   -1    0    0  501  502  0.00000000000E+00  0.00000000000E+00  0.33621712295E+03  0.33621712295E+03  0.00000000000E+00 0. -1.
         21   -1    0    0  502  503 -0.00000000000E+00 -0.00000000000E+00 -0.19658170042E+03  0.19658170042E+03  0.00000000000E+00 0. -1.
          6    1    1    2  501    0 -0.52430689675E+01 -0.92781269162E+02  0.24174674839E+03  0.31145841462E+03  0.17300000000E+03 0. -1.
         -6    1    1    2    0  503  0.52430689675E+01  0.92781269162E+02 -0.10211132586E+03  0.22134040875E+03  0.17300000000E+03 0. -1.
<mgrwt>
<rscale>  2 0.19637936E+03</rscale>
<asrwt>0</asrwt>
<pdfrwt beam="1">  1       21 0.51725711E-01 0.19637936E+03</pdfrwt>
<pdfrwt beam="2">  1       21 0.30243339E-01 0.19637936E+03</pdfrwt>
<totfact> 0.37161176E+04</totfact>
</mgrwt>
</event>
<event>
 4    1  0.4067306E+000  0.2319468E+03  0.7546771E-02  0.1125277E+00
         21   -1    0    0  501  502  0.00000000000E+00  0.00000000000E+00  0.63466713568E+03  0.63466713568E+03  0.00000000000E+00 0.  1.
         21   -1    0    0  502  503 -0.00000000000E+00 -0.00000000000E+00 -0.84862409378E+02  0.84862409378E+02  0.00000000000E+00 0.  1.
          6    1    1    2  501    0 -0.91970890604E+02 -0.12414367515E+03  0.26288600812E+03  0.35058287189E+03  0.17300000000E+03 0.  1.
         -6    1    1    2    0  503  0.91970890604E+02  0.12414367515E+03  0.28691871819E+03  0.36894667317E+03  0.17300000000E+03 0.  1.
<mgrwt>
<rscale>  2 0.23194675E+03</rscale>
<asrwt>0</asrwt>
<pdfrwt beam="1">  1       21 0.97641095E-01 0.23194675E+03</pdfrwt>
<pdfrwt beam="2">  1       21 0.13055756E-01 0.23194675E+03</pdfrwt>
<totfact> 0.42956776E+04</totfact>
</mgrwt>
</event>
<event>
 4    1  0.4067306E+000  0.1790423E+03  0.7546771E-02  0.1168733E+00
         21   -1    0    0  503  502  0.00000000000E+00  0.00000000000E+00  0.19707908340E+03  0.19707908340E+03  0.00000000000E+00 0.  1.
         21   -1    0    0  501  503 -0.00000000000E+00 -0.00000000000E+00 -0.17788520232E+03  0.17788520232E+03  0.00000000000E+00 0.  1.
          6    1    1    2  501    0  0.45971104906E+02  0.37143954285E+01 -0.45259219654E+02  0.18467413512E+03  0.17300000000E+03 0.  1.
         -6    1    1    2    0  502 -0.45971104906E+02 -0.37143954285E+01  0.64453100733E+02  0.19029015060E+03  0.17300000000E+03 0.  1.
<mgrwt>
<rscale>  2 0.17904228E+03</rscale>
<asrwt>0</asrwt>
<pdfrwt beam="1">  1       21 0.30319859E-01 0.17904228E+03</pdfrwt>
<pdfrwt beam="2">  1       21 0.27366954E-01 0.17904228E+03</pdfrwt>
<totfact> 0.13352572E+05</totfact>
</mgrwt>
</event>
<event>
 4    1  0.4067306E+000  0.1812159E+03  0.7546771E-02  0.1166631E+00
         21   -1    0    0  501  502  0.00000000000E+00  0.00000000000E+00  0.18227017663E+03  0.18227017663E+03  0.00000000000E+00 0.  1.
         21   -1    0    0  502  503 -0.00000000000E+00 -0.00000000000E+00 -0.19023734542E+03  0.19023734542E+03  0.00000000000E+00 0.  1.
          6    1    1    2  501    0 -0.52521735095E+02 -0.12315789220E+02  0.38867590594E+02  0.18533726263E+03  0.17300000000E+03 0.  1.
         -6    1    1    2    0  503  0.52521735095E+02  0.12315789220E+02 -0.46834759387E+02  0.18717025941E+03  0.17300000000E+03 0.  1.
<mgrwt>
<rscale>  2 0.18121592E+03</rscale>
<asrwt>0</asrwt>
<pdfrwt beam="1">  1       21 0.28041565E-01 0.18121592E+03</pdfrwt>
<pdfrwt beam="2">  1       21 0.29267284E-01 0.18121592E+03</pdfrwt>
<totfact> 0.13635842E+05</totfact>
</mgrwt>
</event>
<event>
 4    1  0.4067306E+000  0.1746373E+03  0.7546771E-02  0.1173096E+00
         21   -1    0    0  501  502  0.00000000000E+00  0.00000000000E+00  0.87538609775E+03  0.87538609775E+03  0.00000000000E+00 0. -1.
         21   -1    0    0  502  503 -0.00000000000E+00 -0.00000000000E+00 -0.49772220267E+02  0.49772220267E+02  0.00000000000E+00 0. -1.
          6    1    1    2  501    0  0.89798064193E+00 -0.23840623973E+02  0.66617929654E+03  0.68868936166E+03  0.17300000000E+03 0. -1.
         -6    1    1    2    0  503 -0.89798064193E+00  0.23840623973E+02  0.15943458094E+03  0.23646895636E+03  0.17300000000E+03 0. -1.
<mgrwt>
<rscale>  2 0.17463729E+03</rscale>
<asrwt>0</asrwt>
<pdfrwt beam="1">  1       21 0.13467477E+00 0.17463729E+03</pdfrwt>
<pdfrwt beam="2">  1       21 0.76572653E-02 0.17463729E+03</pdfrwt>
<totfact> 0.51683764E+04</totfact>
</mgrwt>
</event>
<event>
 4    1  0.4067306E+000  0.1797538E+03  0.7546771E-02  0.1168042E+00
         21   -1    0    0  503  502  0.00000000000E+00  0.00000000000E+00  0.66524537473E+03  0.66524537473E+03  0.00000000000E+00 0.  1.
         21   -1    0    0  501  503 -0.00000000000E+00 -0.00000000000E+00 -0.49721073068E+02  0.49721073068E+02  0.00000000000E+00 0.  1.
          6    1    1    2  501    0 -0.34668468009E+02  0.34358787478E+02  0.36213800214E+03  0.40429613101E+03  0.17300000000E+03 0.  1.
         -6    1    1    2    0  502  0.34668468009E+02 -0.34358787478E+02  0.25338629952E+03  0.31067031679E+03  0.17300000000E+03 0.  1.
<mgrwt>
<rscale>  2 0.17975380E+03</rscale>
<asrwt>0</asrwt>
<pdfrwt beam="1">  1       21 0.10234544E+00 0.17975380E+03</pdfrwt>
<pdfrwt beam="2">  1       21 0.76493963E-02 0.17975380E+03</pdfrwt>
<totfact> 0.10131142E+05</totfact>
</mgrwt>
</event>
<event>
 4    1  0.4067306E+000  0.2009546E+03  0.7546771E-02  0.1148936E+00
         21   -1    0    0  503  502  0.00000000000E+00  0.00000000000E+00  0.26197807973E+03  0.26197807973E+03  0.00000000000E+00 0.  1.
         21   -1    0    0  501  503 -0.00000000000E+00 -0.00000000000E+00 -0.17903336570E+03  0.17903336570E+03  0.00000000000E+00 0. -1.
          6    1    1    2  501    0  0.10223846758E+03 -0.10316824858E+01 -0.40741650924E+02  0.20504304607E+03  0.17300000000E+03 0. -1.
         -6    1    1    2    0  502 -0.10223846758E+03  0.10316824858E+01  0.12368636496E+03  0.23596839936E+03  0.17300000000E+03 0.  1.
<mgrwt>
<rscale>  2 0.20095464E+03</rscale>
<asrwt>0</asrwt>
<pdfrwt beam="1">  1       21 0.40304320E-01 0.20095464E+03</pdfrwt>
<pdfrwt beam="2">  1       21 0.27543595E-01 0.20095464E+03</pdfrwt>
<totfact> 0.74331973E+04</totfact>
</mgrwt>
</event>
<event>
 4    1  0.4067306E+000  0.2430226E+03  0.7546771E-02  0.1117796E+00
         21   -1    0    0  501  502  0.00000000000E+00  0.00000000000E+00  0.15390640642E+04  0.15390640642E+04  0.00000000000E+00 0.  1.
         21   -1    0    0  502  503 -0.00000000000E+00 -0.00000000000E+00 -0.56605240672E+02  0.56605240672E+02  0.00000000000E+00 0. -1.
          6    1    1    2  501    0 -0.10161877403E+03  0.13712983229E+03  0.11940157268E+04  0.12184964185E+04  0.17300000000E+03 0.  1.
         -6    1    1    2    0  503  0.10161877403E+03 -0.13712983229E+03  0.28844309674E+03  0.37717288635E+03  0.17300000000E+03 0. -1.
<mgrwt>
<rscale>  2 0.24302256E+03</rscale>
<asrwt>0</asrwt>
<pdfrwt beam="1">  1       21 0.23677905E+00 0.24302256E+03</pdfrwt>
<pdfrwt beam="2">  1       21 0.87084997E-02 0.24302256E+03</pdfrwt>
<totfact> 0.78898778E+03</totfact>
</mgrwt>
</event>
<event>
 4    1  0.4067306E+000  0.2569961E+03  0.7546771E-02  0.1108962E+00
         21   -1    0    0  503  502  0.00000000000E+00  0.00000000000E+00  0.20304091361E+04  0.20304091361E+04  0.00000000000E+00 0.  1.
         21   -1    0    0  501  503 -0.00000000000E+00 -0.00000000000E+00 -0.34249202301E+02  0.34249202301E+02  0.00000000000E+00 0.  1.
          6    1    1    2  501    0 -0.18214709119E+03  0.54225887960E+02  0.76671732254E+03  0.80864235756E+03  0.17300000000E+03 0.  1.
         -6    1    1    2    0  502  0.18214709119E+03 -0.54225887960E+02  0.12294426112E+04  0.12560159808E+04  0.17300000000E+03 0.  1.
<mgrwt>
<rscale>  2 0.25699613E+03</rscale>
<asrwt>0</asrwt>
<pdfrwt beam="1">  1       21 0.31237054E+00 0.25699613E+03</pdfrwt>
<pdfrwt beam="2">  1       21 0.52691096E-02 0.25699613E+03</pdfrwt>
<totfact> 0.66838025E+03</totfact>
</mgrwt>
</event>
<event>
 4    1  0.4067306E+000  0.2530123E+03  0.7546771E-02  0.1111416E+00
         21   -1    0    0  503  502  0.00000000000E+00  0.00000000000E+00  0.73649241980E+03  0.73649241980E+03  0.00000000000E+00 0.  1.
         21   -1    0    0  501  503 -0.00000000000E+00 -0.00000000000E+00 -0.26275921680E+03  0.26275921680E+03  0.00000000000E+00 0.  1.
          6    1    1    2  501    0 -0.89233627926E+02 -0.16162785093E+03 -0.17185253152E+03  0.30585698478E+03  0.17300000000E+03 0.  1.
         -6    1    1    2    0  502  0.89233627926E+02  0.16162785093E+03  0.64558573452E+03  0.69339465182E+03  0.17300000000E+03 0.  1.
<mgrwt>
<rscale>  2 0.25301226E+03</rscale>
<asrwt>0</asrwt>
<pdfrwt beam="1">  1       21 0.11330652E+00 0.25301226E+03</pdfrwt>
<pdfrwt beam="2">  1       21 0.40424495E-01 0.25301226E+03</pdfrwt>
<totfact> 0.34235824E+03</totfact>
</mgrwt>
</event>
<event>
 4    1  0.4067306E+000  0.2033287E+03  0.7546771E-02  0.1146961E+00
         21   -1    0    0  501  502  0.00000000000E+00  0.00000000000E+00  0.10200422643E+03  0.10200422643E+03  0.00000000000E+00 0. -1.
         21   -1    0    0  502  503 -0.00000000000E+00 -0.00000000000E+00 -0.40953638820E+03  0.40953638820E+03  0.00000000000E+00 0. -1.
          6    1    1    2  501    0  0.98495819015E+02  0.41378171284E+02 -0.17977173718E+03  0.27140460002E+03  0.17300000000E+03 0. -1.
         -6    1    1    2    0  503 -0.98495819015E+02 -0.41378171284E+02 -0.12776042459E+03  0.24013601461E+03  0.17300000000E+03 0. -1.
<mgrwt>
<rscale>  2 0.20332875E+03</rscale>
<asrwt>0</asrwt>
<pdfrwt beam="1">  1       21 0.15692958E-01 0.20332875E+03</pdfrwt>
<pdfrwt beam="2">  1       21 0.63005599E-01 0.20332875E+03</pdfrwt>
<totfact> 0.83860298E+04</totfact>
</mgrwt>
</event>
<event>
 4    1  0.4067306E+000  0.1751446E+03  0.7546771E-02  0.1172587E+00
         21   -1    0    0  503  502  0.00000000000E+00  0.00000000000E+00  0.11563445907E+04  0.11563445907E+04  0.00000000000E+00 0.  1.
         21   -1    0    0  501  503 -0.00000000000E+00 -0.00000000000E+00 -0.90312192226E+02  0.90312192226E+02  0.00000000000E+00 0.  1.
          6    1    1    2  501    0  0.20377977427E+01 -0.27248753950E+02  0.91747727285E+01  0.17538478744E+03  0.17300000000E+03 0.  1.
         -6    1    1    2    0  502 -0.20377977427E+01  0.27248753950E+02  0.10568576258E+04  0.10712719955E+04  0.17300000000E+03 0.  1.
<mgrwt>
<rscale>  2 0.17514465E+03</rscale>
<asrwt>0</asrwt>
<pdfrwt beam="1">  1       21 0.17789916E+00 0.17514465E+03</pdfrwt>
<pdfrwt beam="2">  1       21 0.13894184E-01 0.17514465E+03</pdfrwt>
<totfact> 0.86043646E+03</totfact>
</mgrwt>
</event>
<event>
 4    1  0.4067306E+000  0.2556170E+03  0.7546771E-02  0.1109806E+00
         21   -1    0    0  503  502  0.00000000000E+00  0.00000000000E+00  0.82453478206E+03  0.82453478206E+03  0.00000000000E+00 0.  1.
         21   -1    0    0  501  503 -0.00000000000E+00 -0.00000000000E+00 -0.20303423395E+03  0.20303423395E+03  0.00000000000E+00 0. -1.
          6    1    1    2  501    0  0.11190599113E+03 -0.15128806723E+03 -0.90428820210E+02  0.27114092583E+03  0.17300000000E+03 0. -1.
         -6    1    1    2    0  502 -0.11190599113E+03  0.15128806723E+03  0.71192936832E+03  0.75642809018E+03  0.17300000000E+03 0.  1.
<mgrwt>
<rscale>  2 0.25561696E+03</rscale>
<asrwt>0</asrwt>
<pdfrwt beam="1">  1       21 0.12685150E+00 0.25561696E+03</pdfrwt>
<pdfrwt beam="2">  1       21 0.31236036E-01 0.25561696E+03</pdfrwt>
<totfact> 0.43217958E+03</totfact>
</mgrwt>
</event>
<event>
 4    1  0.4067306E+000  0.1870122E+03  0.7546771E-02  0.1161184E+00
         21   -1    0    0  501  502  0.00000000000E+00  0.00000000000E+00  0.31699349016E+02  0.31699349016E+02  0.00000000000E+00 0. -1.
         21   -1    0    0  502  503 -0.00000000000E+00 -0.00000000000E+00 -0.18345048439E+04  0.18345048439E+04  0.00000000000E+00 0.  1.
          6    1    1    2  501    0 -0.73621475336E+01 -0.70642414124E+02 -0.31229810156E+03  0.36401051651E+03  0.17300000000E+03 0. -1.
         -6    1    1    2    0  503  0.73621475336E+01  0.70642414124E+02 -0.14905073933E+04  0.15021936764E+04  0.17300000000E+03 0.  1.
<mgrwt>
<rscale>  2 0.18701217E+03</rscale>
<asrwt>0</asrwt>
<pdfrwt beam="1">  1       21 0.48768235E-02 0.18701217E+03</pdfrwt>
<pdfrwt beam="2">  1       21 0.28223148E+00 0.18701217E+03</pdfrwt>
<totfact> 0.12193112E+04</totfact>
</mgrwt>
</event>
<event>
 4    1  0.4067306E+000  0.2516644E+03  0.7546771E-02  0.1112257E+00
         21   -1    0    0  503  502  0.00000000000E+00  0.00000000000E+00  0.71162534564E+03  0.71162534564E+03  0.00000000000E+00 0. -1.
         21   -1    0    0  501  503 -0.00000000000E+00 -0.00000000000E+00 -0.14316208007E+03  0.14316208007E+03  0.00000000000E+00 0.  1.
          6    1    1    2  501    0 -0.16622641257E+03 -0.75991694491E+02  0.21350090106E+02  0.25256837533E+03  0.17300000000E+03 0.  1.
         -6    1    1    2    0  502  0.16622641257E+03  0.75991694491E+02  0.54711317547E+03  0.60221905038E+03  0.17300000000E+03 0. -1.
<mgrwt>
<rscale>  2 0.25166438E+03</rscale>
<asrwt>0</asrwt>
<pdfrwt beam="1">  1       21 0.10948082E+00 0.25166438E+03</pdfrwt>
<pdfrwt beam="2">  1       21 0.22024936E-01 0.25166438E+03</pdfrwt>
<totfact> 0.12267487E+04</totfact>
</mgrwt>
</event>
<event>
 4    1  0.4067306E+000  0.3006973E+03  0.7546771E-02  0.1084893E+00
         21   -1    0    0  501  502  0.00000000000E+00  0.00000000000E+00  0.54571824665E+03  0.54571824665E+03  0.00000000000E+00 0.  1.
         21   -1    0    0  502  503 -0.00000000000E+00 -0.00000000000E+00 -0.18451636736E+03  0.18451636736E+03  0.00000000000E+00 0. -1.
          6    1    1    2  501    0  0.19802522694E+03 -0.14586255696E+03  0.29723440527E+03  0.42280866559E+03  0.17300000000E+03 0.  1.
         -6    1    1    2    0  503 -0.19802522694E+03  0.14586255696E+03  0.63967474025E+02  0.30742594842E+03  0.17300000000E+03 0. -1.
<mgrwt>
<rscale>  2 0.30069732E+03</rscale>
<asrwt>0</asrwt>
<pdfrwt beam="1">  1       21 0.83956653E-01 0.30069732E+03</pdfrwt>
<pdfrwt beam="2">  1       21 0.28387134E-01 0.30069732E+03</pdfrwt>
<totfact> 0.13799893E+04</totfact>
</mgrwt>
</event>
<event>
 4    1  0.4067306E+000  0.1913584E+03  0.7546771E-02  0.1157242E+00
         21   -1    0    0  503  502  0.00000000000E+00  0.00000000000E+00  0.61163407006E+03  0.61163407006E+03  0.00000000000E+00 0. -1.
         21   -1    0    0  501  503 -0.00000000000E+00 -0.00000000000E+00 -0.68021851538E+02  0.68021851538E+02  0.00000000000E+00 0.  1.
          6    1    1    2  501    0 -0.28294103060E+01  0.81737522193E+02  0.15415800035E+03  0.24572895061E+03  0.17300000000E+03 0.  1.
         -6    1    1    2    0  502  0.28294103060E+01 -0.81737522193E+02  0.38945421817E+03  0.43392697099E+03  0.17300000000E+03 0. -1.
<mgrwt>
<rscale>  2 0.19135838E+03</rscale>
<asrwt>0</asrwt>
<pdfrwt beam="1">  1       21 0.94097545E-01 0.19135838E+03</pdfrwt>
<pdfrwt beam="2">  1       21 0.10464901E-01 0.19135838E+03</pdfrwt>
<totfact> 0.70970973E+04</totfact>
</mgrwt>
</event>
<event>
 4    1  0.4067306E+000  0.1871405E+03  0.7546771E-02  0.1161066E+00
         21   -1    0    0  501  502  0.00000000000E+00  0.00000000000E+00  0.96344057710E+03  0.96344057710E+03  0.00000000000E+00 0. -1.
         21   -1    0    0  502  503 -0.00000000000E+00 -0.00000000000E+00 -0.37121603944E+02  0.37121603944E+02  0.00000000000E+00 0. -1.
          6    1    1    2  501    0  0.71238642750E+02 -0.41995904267E+01  0.53526147161E+03  0.56703300060E+03  0.17300000000E+03 0. -1.
         -6    1    1    2    0  503 -0.71238642750E+02  0.41995904267E+01  0.39105750155E+03  0.43352918045E+03  0.17300000000E+03 0. -1.
<mgrwt>
<rscale>  2 0.18714054E+03</rscale>
<asrwt>0</asrwt>
<pdfrwt beam="1">  1       21 0.14822161E+00 0.18714054E+03</pdfrwt>
<pdfrwt beam="2">  1       21 0.57110167E-02 0.18714054E+03</pdfrwt>
<totfact> 0.66357355E+04</totfact>
</mgrwt>
</event>
<event>
 4    1  0.4067306E+000  0.2357615E+03  0.7546771E-02  0.1122649E+00
         21   -1    0    0  503  502  0.00000000000E+00  0.00000000000E+00  0.69686172614E+03  0.69686172614E+03  0.00000000000E+00 0. -1.
         21   -1    0    0  501  503 -0.00000000000E+00 -0.00000000000E+00 -0.91896035696E+02  0.91896035696E+02  0.00000000000E+00 0.  1.
          6    1    1    2  501    0  0.15540877129E+03  0.38763073127E+02  0.44578681242E+03  0.50429093206E+03  0.17300000000E+03 0.  1.
         -6    1    1    2    0  502 -0.15540877129E+03 -0.38763073127E+02  0.15917887803E+03  0.28446682978E+03  0.17300000000E+03 0. -1.
<mgrwt>
<rscale>  2 0.23576145E+03</rscale>
<asrwt>0</asrwt>
<pdfrwt beam="1">  1       21 0.10720949E+00 0.23576145E+03</pdfrwt>
<pdfrwt beam="2">  1       21 0.14137852E-01 0.23576145E+03</pdfrwt>
<totfact> 0.29650391E+04</totfact>
</mgrwt>
</event>
<event>
 4    1  0.4067306E+000  0.2818136E+03  0.7546771E-02  0.1094702E+00
         21   -1    0    0  501  502  0.00000000000E+00  0.00000000000E+00  0.33751071081E+04  0.33751071081E+04  0.00000000000E+00 0. -1.
         21   -1    0    0  502  503 -0.00000000000E+00 -0.00000000000E+00 -0.24183184767E+02  0.24183184767E+02  0.00000000000E+00 0.  1.
          6    1    1    2  501    0 -0.21587872915E+03  0.53724295959E+02  0.19546249393E+04  0.19748360891E+04  0.17300000000E+03 0.  1.
         -6    1    1    2    0  503  0.21587872915E+03 -0.53724295959E+02  0.13962989840E+04  0.14244542037E+04  0.17300000000E+03 0. -1.
<mgrwt>
<rscale>  2 0.28181364E+03</rscale>
<asrwt>0</asrwt>
<pdfrwt beam="1">  1       21 0.51924687E+00 0.28181364E+03</pdfrwt>
<pdfrwt beam="2">  1       21 0.37204926E-02 0.28181364E+03</pdfrwt>
<totfact> 0.54155013E+02</totfact>
</mgrwt>
</event>
<event>
 4    1  0.4067306E+000  0.1791362E+03  0.7546771E-02  0.1168642E+00
         21   -1    0    0  501  502  0.00000000000E+00  0.00000000000E+00  0.21614643085E+03  0.21614643085E+03  0.00000000000E+00 0.  1.
         21   -1    0    0  502  503 -0.00000000000E+00 -0.00000000000E+00 -0.32465279029E+03  0.32465279029E+03  0.00000000000E+00 0.  1.
          6    1    1    2  501    0 -0.29835381504E+02  0.35645657886E+02  0.14494564587E+03  0.23043220950E+03  0.17300000000E+03 0.  1.
         -6    1    1    2    0  503  0.29835381504E+02 -0.35645657886E+02 -0.25345200532E+03  0.31036701164E+03  0.17300000000E+03 0.  1.
<mgrwt>
<rscale>  2 0.17913616E+03</rscale>
<asrwt>0</asrwt>
<pdfrwt beam="1">  1       21 0.33253297E-01 0.17913616E+03</pdfrwt>
<pdfrwt beam="2">  1       21 0.49946583E-01 0.17913616E+03</pdfrwt>
<totfact> 0.33493885E+04</totfact>
</mgrwt>
</event>
<event>
 4    1  0.4067306E+000  0.3005684E+03  0.7546771E-02  0.1084957E+00
         21   -1    0    0  503  502  0.00000000000E+00  0.00000000000E+00  0.71491183809E+03  0.71491183809E+03  0.00000000000E+00 0.  1.
         21   -1    0    0  501  503 -0.00000000000E+00 -0.00000000000E+00 -0.12669470902E+03  0.12669470902E+03  0.00000000000E+00 0.  1.
          6    1    1    2  501    0 -0.23074752589E+03 -0.84663689715E+02  0.27271149410E+03  0.40584839543E+03  0.17300000000E+03 0.  1.
         -6    1    1    2    0  502  0.23074752589E+03  0.84663689715E+02  0.31550563497E+03  0.43575815168E+03  0.17300000000E+03 0.  1.
<mgrwt>
<rscale>  2 0.30056840E+03</rscale>
<asrwt>0</asrwt>
<pdfrwt beam="1">  1       21 0.10998643E+00 0.30056840E+03</pdfrwt>
<pdfrwt beam="2">  1       21 0.19491494E-01 0.30056840E+03</pdfrwt>
<totfact> 0.14920930E+04</totfact>
</mgrwt>
</event>
<event>
 4    1  0.4067306E+000  0.2008875E+03  0.7546771E-02  0.1148992E+00
         21   -1    0    0  503  502  0.00000000000E+00  0.00000000000E+00  0.83467801976E+02  0.83467801976E+02  0.00000000000E+00 0.  1.
         21   -1    0    0  501  503 -0.00000000000E+00 -0.00000000000E+00 -0.57126729712E+03  0.57126729712E+03  0.00000000000E+00 0.  1.
          6    1    1    2  501    0  0.99688281335E+02  0.22113711618E+02 -0.37222418137E+03  0.42297353448E+03  0.17300000000E+03 0.  1.
         -6    1    1    2    0  502 -0.99688281335E+02 -0.22113711618E+02 -0.11557531377E+03  0.23176156461E+03  0.17300000000E+03 0.  1.
<mgrwt>
<rscale>  2 0.20088746E+03</rscale>
<asrwt>0</asrwt>
<pdfrwt beam="1">  1       21 0.12841201E-01 0.20088746E+03</pdfrwt>
<pdfrwt beam="2">  1       21 0.87887274E-01 0.20088746E+03</pdfrwt>
<totfact> 0.57442668E+04</totfact>
</mgrwt>
</event>
<event>
 4    1  0.4067306E+000  0.1903487E+03  0.7546771E-02  0.1158147E+00
         21   -1    0    0  501  502  0.00000000000E+00  0.00000000000E+00  0.48861099541E+02  0.48861099541E+02  0.00000000000E+00 0.  1.
         21   -1    0    0  502  503 -0.00000000000E+00 -0.00000000000E+00 -0.74227467336E+03  0.74227467336E+03  0.00000000000E+00 0.  1.
          6    1    1    2  501    0 -0.46640027032E+02  0.64252059905E+02 -0.35912383697E+03  0.40645116509E+03  0.17300000000E+03 0.  1.
         -6    1    1    2    0  503  0.46640027032E+02 -0.64252059905E+02 -0.33428973684E+03  0.38468460781E+03  0.17300000000E+03 0.  1.
<mgrwt>
<rscale>  2 0.19034868E+03</rscale>
<asrwt>0</asrwt>
<pdfrwt beam="1">  1       21 0.75170929E-02 0.19034868E+03</pdfrwt>
<pdfrwt beam="2">  1       21 0.11419609E+00 0.19034868E+03</pdfrwt>
<totfact> 0.79826712E+04</totfact>
</mgrwt>
</event>
<event>
 4    1  0.4067306E+000  0.2002210E+03  0.7546771E-02  0.1149553E+00
         21   -1    0    0  503  502  0.00000000000E+00  0.00000000000E+00  0.14211105451E+03  0.14211105451E+03  0.00000000000E+00 0.  1.
         21   -1    0    0  501  503 -0.00000000000E+00 -0.00000000000E+00 -0.43255228625E+03  0.43255228625E+03  0.00000000000E+00 0.  1.
          6    1    1    2  501    0 -0.92212105039E+02 -0.40698733865E+02 -0.31468344259E+03  0.37298006420E+03  0.17300000000E+03 0.  1.
         -6    1    1    2    0  502  0.92212105039E+02  0.40698733865E+02  0.24242210851E+02  0.20168327655E+03  0.17300000000E+03 0.  1.
<mgrwt>
<rscale>  2 0.20022103E+03</rscale>
<asrwt>0</asrwt>
<pdfrwt beam="1">  1       21 0.21863239E-01 0.20022103E+03</pdfrwt>
<pdfrwt beam="2">  1       21 0.66546505E-01 0.20022103E+03</pdfrwt>
<totfact> 0.40281545E+04</totfact>
</mgrwt>
</event>
<event>
 4    1  0.4067306E+000  0.2145682E+03  0.7546771E-02  0.1137999E+00
         21   -1    0    0  503  502  0.00000000000E+00  0.00000000000E+00  0.22144988773E+03  0.22144988773E+03  0.00000000000E+00 0.  1.
         21   -1    0    0  501  503 -0.00000000000E+00 -0.00000000000E+00 -0.27968540959E+03  0.27968540959E+03  0.00000000000E+00 0.  1.
          6    1    1    2  501    0  0.21617677705E+02 -0.12507271951E+03 -0.15606028367E+03  0.26531928180E+03  0.17300000000E+03 0.  1.
         -6    1    1    2    0  502 -0.21617677705E+02  0.12507271951E+03  0.97824761811E+02  0.23581601553E+03  0.17300000000E+03 0.  1.
<mgrwt>
<rscale>  2 0.21456819E+03</rscale>
<asrwt>0</asrwt>
<pdfrwt beam="1">  1       21 0.34069213E-01 0.21456819E+03</pdfrwt>
<pdfrwt beam="2">  1       21 0.43028525E-01 0.21456819E+03</pdfrwt>
<totfact> 0.42646861E+04</totfact>
</mgrwt>
</event>
<event>
 4    1  0.4067306E+000  0.3252862E+03  0.7546771E-02  0.1073242E+00
         21   -1    0    0  501  502  0.00000000000E+00  0.00000000000E+00  0.11638786515E+04  0.11638786515E+04  0.00000000000E+00 0. -1.
         21   -1    0    0  502  503 -0.00000000000E+00 -0.00000000000E+00 -0.10048078748E+03  0.10048078748E+03  0.00000000000E+00 0.  1.
          6    1    1    2  501    0  0.17424673910E+02 -0.27491540391E+03  0.33661723312E+03  0.46810496708E+03  0.17300000000E+03 0. -1.
         -6    1    1    2    0  503 -0.17424673910E+02  0.27491540391E+03  0.72678063091E+03  0.79625447191E+03  0.17300000000E+03 0.  1.
<mgrwt>
<rscale>  2 0.32528618E+03</rscale>
<asrwt>0</asrwt>
<pdfrwt beam="1">  1       21 0.17905824E+00 0.32528618E+03</pdfrwt>
<pdfrwt beam="2">  1       21 0.15458583E-01 0.32528618E+03</pdfrwt>
<totfact> 0.62789369E+03</totfact>
</mgrwt>
</event>
<event>
 4    1  0.4067306E+000  0.2194016E+03  0.7546771E-02  0.1134330E+00
         21   -1    0    0  503  502  0.00000000000E+00  0.00000000000E+00  0.30653167093E+03  0.30653167093E+03  0.00000000000E+00 0. -1.
         21   -1    0    0  501  503 -0.00000000000E+00 -0.00000000000E+00 -0.16571144334E+03  0.16571144334E+03  0.00000000000E+00 0. -1.
          6    1    1    2  501    0  0.11572042163E+03 -0.69403435330E+02  0.16389353468E+02  0.22001287173E+03  0.17300000000E+03 0. -1.
         -6    1    1    2    0  502 -0.11572042163E+03  0.69403435330E+02  0.12443087412E+03  0.25223024254E+03  0.17300000000E+03 0. -1.
<mgrwt>
<rscale>  2 0.21940158E+03</rscale>
<asrwt>0</asrwt>
<pdfrwt beam="1">  1       21 0.47158719E-01 0.21940158E+03</pdfrwt>
<pdfrwt beam="2">  1       21 0.25494068E-01 0.21940158E+03</pdfrwt>
<totfact> 0.62027121E+04</totfact>
</mgrwt>
</event>
<event>
 4    1  0.4067306E+000  0.2122580E+03  0.7546771E-02  0.1139790E+00
         21   -1    0    0  503  502  0.00000000000E+00  0.00000000000E+00  0.10149341106E+04  0.10149341106E+04  0.00000000000E+00 0.  1.
         21   -1    0    0  501  503 -0.00000000000E+00 -0.00000000000E+00 -0.85742117929E+02  0.85742117929E+02  0.00000000000E+00 0.  1.
          6    1    1    2  501    0 -0.90037973423E+02  0.83771219947E+02  0.82406602348E+02  0.22769343877E+03  0.17300000000E+03 0.  1.
         -6    1    1    2    0  502  0.90037973423E+02 -0.83771219947E+02  0.84678539037E+03  0.87298278981E+03  0.17300000000E+03 0.  1.
<mgrwt>
<rscale>  2 0.21225799E+03</rscale>
<asrwt>0</asrwt>
<pdfrwt beam="1">  1       21 0.15614370E+00 0.21225799E+03</pdfrwt>
<pdfrwt beam="2">  1       21 0.13191096E-01 0.21225799E+03</pdfrwt>
<totfact> 0.13119756E+04</totfact>
</mgrwt>
</event>
<event>
 4    1  0.4067306E+000  0.1816650E+03  0.7546771E-02  0.1166201E+00
         21   -1    0    0  501  502  0.00000000000E+00  0.00000000000E+00  0.40788394424E+03  0.40788394424E+03  0.00000000000E+00 0. -1.
         21   -1    0    0  502  503 -0.00000000000E+00 -0.00000000000E+00 -0.18628035344E+03  0.18628035344E+03  0.00000000000E+00 0. -1.
          6    1    1    2  501    0 -0.36735883043E+02  0.41516944682E+02  0.33423657389E+03  0.38041591598E+03  0.17300000000E+03 0. -1.
         -6    1    1    2    0  503  0.36735883043E+02 -0.41516944682E+02 -0.11263298310E+03  0.21374838170E+03  0.17300000000E+03 0. -1.
<mgrwt>
<rscale>  2 0.18166503E+03</rscale>
<asrwt>0</asrwt>
<pdfrwt beam="1">  1       21 0.62751376E-01 0.18166503E+03</pdfrwt>
<pdfrwt beam="2">  1       21 0.28658516E-01 0.18166503E+03</pdfrwt>
<totfact> 0.27567502E+04</totfact>
</mgrwt>
</event>
<event>
 4    1  0.4067306E+000  0.1834188E+03  0.7546771E-02  0.1164535E+00
         21   -1    0    0  501  502  0.00000000000E+00  0.00000000000E+00  0.23468205541E+03  0.23468205541E+03  0.00000000000E+00 0. -1.
         21   -1    0    0  502  503 -0.00000000000E+00 -0.00000000000E+00 -0.61668481149E+03  0.61668481149E+03  0.00000000000E+00 0. -1.
          6    1    1    2  501    0 -0.57617520618E+02 -0.19841525804E+02  0.18193761779E+03  0.25834814030E+03  0.17300000000E+03 0. -1.
         -6    1    1    2    0  503  0.57617520618E+02  0.19841525804E+02 -0.56394037387E+03  0.59301872661E+03  0.17300000000E+03 0. -1.
<mgrwt>
<rscale>  2 0.18341882E+03</rscale>
<asrwt>0</asrwt>
<pdfrwt beam="1">  1       21 0.36104931E-01 0.18341882E+03</pdfrwt>
<pdfrwt beam="2">  1       21 0.94874587E-01 0.18341882E+03</pdfrwt>
<totfact> 0.69220403E+03</totfact>
</mgrwt>
</event>
<event>
 4    1  0.4067306E+000  0.2090071E+03  0.7546771E-02  0.1142355E+00
         21   -1    0    0  503  502  0.00000000000E+00  0.00000000000E+00  0.21086484037E+03  0.21086484037E+03  0.00000000000E+00 0. -1.
         21   -1    0    0  501  503 -0.00000000000E+00 -0.00000000000E+00 -0.22558653767E+03  0.22558653767E+03  0.00000000000E+00 0. -1.
          6    1    1    2  501    0  0.11631583652E+03  0.15020304339E+02 -0.69720372689E+02  0.22032910324E+03  0.17300000000E+03 0. -1.
         -6    1    1    2    0  502 -0.11631583652E+03 -0.15020304339E+02  0.54998675384E+02  0.21612227479E+03  0.17300000000E+03 0. -1.
<mgrwt>
<rscale>  2 0.20900714E+03</rscale>
<asrwt>0</asrwt>
<pdfrwt beam="1">  1       21 0.32440745E-01 0.20900714E+03</pdfrwt>
<pdfrwt beam="2">  1       21 0.34705621E-01 0.20900714E+03</pdfrwt>
<totfact> 0.72644339E+04</totfact>
</mgrwt>
</event>
<event>
 4    1  0.4067306E+000  0.2151475E+03  0.7546771E-02  0.1137553E+00
         21   -1    0    0  501  502  0.00000000000E+00  0.00000000000E+00  0.40540727639E+03  0.40540727639E+03  0.00000000000E+00 0. -1.
         21   -1    0    0  502  503 -0.00000000000E+00 -0.00000000000E+00 -0.11448819438E+03  0.11448819438E+03  0.00000000000E+00 0. -1.
          6    1    1    2  501    0  0.96508216298E+02 -0.83938039378E+02  0.13192006852E+03  0.25237142220E+03  0.17300000000E+03 0.  1.
         -6    1    1    2    0  503 -0.96508216298E+02  0.83938039378E+02  0.15899901350E+03  0.26752404857E+03  0.17300000000E+03 0.  1.
<mgrwt>
<rscale>  2 0.21514746E+03</rscale>
<asrwt>0</asrwt>
<pdfrwt beam="1">  1       21 0.62370350E-01 0.21514746E+03</pdfrwt>
<pdfrwt beam="2">  1       21 0.17613569E-01 0.21514746E+03</pdfrwt>
<totfact> 0.68967371E+04</totfact>
</mgrwt>
</event>
<event>
 4    1  0.4067306E+000  0.2077207E+03  0.7546771E-02  0.1143384E+00
         21   -1    0    0  503  502  0.00000000000E+00  0.00000000000E+00  0.65463106022E+03  0.65463106022E+03  0.00000000000E+00 0.  1.
         21   -1    0    0  501  503 -0.00000000000E+00 -0.00000000000E+00 -0.13744432621E+03  0.13744432621E+03  0.00000000000E+00 0. -1.
          6    1    1    2  501    0 -0.31376081898E+02 -0.11060942991E+03 -0.27116295256E+02  0.20948316870E+03  0.17300000000E+03 0. -1.
         -6    1    1    2    0  502  0.31376081898E+02  0.11060942991E+03  0.54430302926E+03  0.58259221774E+03  0.17300000000E+03 0.  1.
<mgrwt>
<rscale>  2 0.20772074E+03</rscale>
<asrwt>0</asrwt>
<pdfrwt beam="1">  1       21 0.10071247E+00 0.20772074E+03</pdfrwt>
<pdfrwt beam="2">  1       21 0.21145281E-01 0.20772074E+03</pdfrwt>
<totfact> 0.16626808E+04</totfact>
</mgrwt>
</event>
<event>
 4    1  0.4067306E+000  0.1841454E+03  0.7546771E-02  0.1163850E+00
         21   -1    0    0  501  502  0.00000000000E+00  0.00000000000E+00  0.15574779504E+03  0.15574779504E+03  0.00000000000E+00 0.  1.
         21   -1    0    0  502  503 -0.00000000000E+00 -0.00000000000E+00 -0.21811551198E+03  0.21811551198E+03  0.00000000000E+00 0.  1.
          6    1    1    2  501    0 -0.31719509511E+01 -0.63011593762E+02 -0.23231000686E+02  0.18560496118E+03  0.17300000000E+03 0.  1.
         -6    1    1    2    0  503  0.31719509511E+01  0.63011593762E+02 -0.39136716256E+02  0.18825834585E+03  0.17300000000E+03 0.  1.
<mgrwt>
<rscale>  2 0.18414538E+03</rscale>
<asrwt>0</asrwt>
<pdfrwt beam="1">  1       21 0.23961199E-01 0.18414538E+03</pdfrwt>
<pdfrwt beam="2">  1       21 0.33556232E-01 0.18414538E+03</pdfrwt>
<totfact> 0.14086536E+05</totfact>
</mgrwt>
</event>
<event>
 4    1  0.4067306E+000  0.1973033E+03  0.7546771E-02  0.1152034E+00
         21   -1    0    0  503  502  0.00000000000E+00  0.00000000000E+00  0.89929311291E+03  0.89929311291E+03  0.00000000000E+00 0.  1.
         21   -1    0    0  501  503 -0.00000000000E+00 -0.00000000000E+00 -0.51796775364E+02  0.51796775364E+02  0.00000000000E+00 0.  1.
          6    1    1    2  501    0  0.75130836840E+02 -0.57922082929E+02  0.23100746049E+03  0.30379772405E+03  0.17300000000E+03 0.  1.
         -6    1    1    2    0  502 -0.75130836840E+02  0.57922082929E+02  0.61648887705E+03  0.64729216422E+03  0.17300000000E+03 0.  1.
<mgrwt>
<rscale>  2 0.19730335E+03</rscale>
<asrwt>0</asrwt>
<pdfrwt beam="1">  1       21 0.13835278E+00 0.19730335E+03</pdfrwt>
<pdfrwt beam="2">  1       21 0.79687353E-02 0.19730335E+03</pdfrwt>
<totfact> 0.44457734E+04</totfact>
</mgrwt>
</event>
<event>
 4    1  0.4067306E+000  0.2214923E+03  0.7546771E-02  0.1132775E+00
         21   -1    0    0  503  502  0.00000000000E+00  0.00000000000E+00  0.44054717449E+03  0.44054717449E+03  0.00000000000E+00 0.  1.
         21   -1    0    0  501  503 -0.00000000000E+00 -0.00000000000E+00 -0.53579362536E+03  0.53579362536E+03  0.00000000000E+00 0. -1.
          6    1    1    2  501    0 -0.21356499749E+02 -0.13665182381E+03 -0.48211159729E+03  0.53055670128E+03  0.17300000000E+03 0. -1.
         -6    1    1    2    0  502  0.21356499749E+02  0.13665182381E+03  0.38686514642E+03  0.44578409858E+03  0.17300000000E+03 0.  1.
<mgrwt>
<rscale>  2 0.22149226E+03</rscale>
<asrwt>0</asrwt>
<pdfrwt beam="1">  1       21 0.67776489E-01 0.22149226E+03</pdfrwt>
<pdfrwt beam="2">  1       21 0.82429788E-01 0.22149226E+03</pdfrwt>
<totfact> 0.24953813E+03</totfact>
</mgrwt>
</event>
<event>
 4    1  0.4067306E+000  0.1983869E+03  0.7546771E-02  0.1151107E+00
         21   -1    0    0  503  502  0.00000000000E+00  0.00000000000E+00  0.36054406014E+03  0.36054406014E+03  0.00000000000E+00 0. -1.
         21   -1    0    0  501  503 -0.00000000000E+00 -0.00000000000E+00 -0.11290043643E+03  0.11290043643E+03  0.00000000000E+00 0. -1.
          6    1    1    2  501    0 -0.96745063513E+02  0.82921156755E+01  0.80740223097E+02  0.21418765166E+03  0.17300000000E+03 0. -1.
         -6    1    1    2    0  502  0.96745063513E+02 -0.82921156755E+01  0.16690340062E+03  0.25925684491E+03  0.17300000000E+03 0. -1.
<mgrwt>
<rscale>  2 0.19838691E+03</rscale>
<asrwt>0</asrwt>
<pdfrwt beam="1">  1       21 0.55468316E-01 0.19838691E+03</pdfrwt>
<pdfrwt beam="2">  1       21 0.17369298E-01 0.19838691E+03</pdfrwt>
<totfact> 0.91650737E+04</totfact>
</mgrwt>
</event>
<event>
 4    1  0.4067306E+000  0.1829122E+03  0.7546771E-02  0.1165014E+00
         21   -1    0    0  501  502  0.00000000000E+00  0.00000000000E+00  0.35617722121E+03  0.35617722121E+03  0.00000000000E+00 0. -1.
         21   -1    0    0  502  503 -0.00000000000E+00 -0.00000000000E+00 -0.14173189427E+03  0.14173189427E+03  0.00000000000E+00 0.  1.
          6    1    1    2  501    0  0.22541992772E+02 -0.54952010409E+02  0.25179803547E+03  0.31122197151E+03  0.17300000000E+03 0. -1.
         -6    1    1    2    0  503 -0.22541992772E+02  0.54952010409E+02 -0.37352708536E+02  0.18668714396E+03  0.17300000000E+03 0.  1.
<mgrwt>
<rscale>  2 0.18291218E+03</rscale>
<asrwt>0</asrwt>
<pdfrwt beam="1">  1       21 0.54796495E-01 0.18291218E+03</pdfrwt>
<pdfrwt beam="2">  1       21 0.21804907E-01 0.18291218E+03</pdfrwt>
<totfact> 0.61977080E+04</totfact>
</mgrwt>
</event>
<event>
 4    1  0.4067306E+000  0.1744485E+03  0.7546771E-02  0.1173287E+00
         21   -1    0    0  501  502  0.00000000000E+00  0.00000000000E+00  0.22182481377E+03  0.22182481377E+03  0.00000000000E+00 0.  1.
         21   -1    0    0  502  503 -0.00000000000E+00 -0.00000000000E+00 -0.43823162181E+03  0.43823162181E+03  0.00000000000E+00 0.  1.
          6    1    1    2  501    0 -0.21689747014E+02  0.57306857464E+01  0.16533104947E+03  0.24034691969E+03  0.17300000000E+03 0.  1.
         -6    1    1    2    0  503  0.21689747014E+02 -0.57306857464E+01 -0.38173785750E+03  0.41970951590E+03  0.17300000000E+03 0.  1.
<mgrwt>
<rscale>  2 0.17444852E+03</rscale>
<asrwt>0</asrwt>
<pdfrwt beam="1">  1       21 0.34126895E-01 0.17444852E+03</pdfrwt>
<pdfrwt beam="2">  1       21 0.67420248E-01 0.17444852E+03</pdfrwt>
<totfact> 0.16840962E+04</totfact>
</mgrwt>
</event>
<event>
 4    1  0.4067306E+000  0.2976869E+03  0.7546771E-02  0.1086403E+00
         21   -1    0    0  503  502  0.00000000000E+00  0.00000000000E+00  0.19521688566E+04  0.19521688566E+04  0.00000000000E+00 0.  1.
         21   -1    0    0  501  503 -0.00000000000E+00 -0.00000000000E+00 -0.10560378014E+03  0.10560378014E+03  0.00000000000E+00 0. -1.
          6    1    1    2  501    0 -0.17661020626E+03  0.16582316081E+03  0.14639200850E+03  0.33173499328E+03  0.17300000000E+03 0. -1.
         -6    1    1    2    0  502  0.17661020626E+03 -0.16582316081E+03  0.17001730680E+04  0.17260376435E+04  0.17300000000E+03 0.  1.
<mgrwt>
<rscale>  2 0.29768689E+03</rscale>
<asrwt>0</asrwt>
<pdfrwt beam="1">  1       21 0.30033364E+00 0.29768689E+03</pdfrwt>
<pdfrwt beam="2">  1       21 0.16246737E-01 0.29768689E+03</pdfrwt>
<totfact> 0.10297156E+03</totfact>
</mgrwt>
</event>
<event>
 4    1  0.4067306E+000  0.2734081E+03  0.7546771E-02  0.1099345E+00
         21   -1    0    0  501  502  0.00000000000E+00  0.00000000000E+00  0.68913675892E+03  0.68913675892E+03  0.00000000000E+00 0. -1.
         21   -1    0    0  502  503 -0.00000000000E+00 -0.00000000000E+00 -0.12121761928E+03  0.12121761928E+03  0.00000000000E+00 0. -1.
          6    1    1    2  501    0  0.25486613425E+02  0.21017478242E+03  0.41534386936E+03  0.49725500143E+03  0.17300000000E+03 0. -1.
         -6    1    1    2    0  503 -0.25486613425E+02 -0.21017478242E+03  0.15257527028E+03  0.31309937677E+03  0.17300000000E+03 0. -1.
<mgrwt>
<rscale>  2 0.27340813E+03</rscale>
<asrwt>0</asrwt>
<pdfrwt beam="1">  1       21 0.10602104E+00 0.27340813E+03</pdfrwt>
<pdfrwt beam="2">  1       21 0.18648865E-01 0.27340813E+03</pdfrwt>
<totfact> 0.17950202E+04</totfact>
</mgrwt>
</event>
<event>
 4    1  0.4067306E+000  0.2322232E+03  0.7546771E-02  0.1125085E+00
         21   -1    0    0  503  502  0.00000000000E+00  0.00000000000E+00  0.73094166402E+03  0.73094166402E+03  0.00000000000E+00 0.  1.
         21   -1    0    0  501  503 -0.00000000000E+00 -0.00000000000E+00 -0.10642033773E+03  0.10642033773E+03  0.00000000000E+00 0. -1.
          6    1    1    2  501    0  0.10735166329E+03 -0.11168820513E+03  0.54413866842E+03  0.59162025426E+03  0.17300000000E+03 0.  1.
         -6    1    1    2    0  502 -0.10735166329E+03  0.11168820513E+03  0.80382657868E+02  0.24574174750E+03  0.17300000000E+03 0. -1.
<mgrwt>
<rscale>  2 0.23222324E+03</rscale>
<asrwt>0</asrwt>
<pdfrwt beam="1">  1       21 0.11245256E+00 0.23222324E+03</pdfrwt>
<pdfrwt beam="2">  1       21 0.16372360E-01 0.23222324E+03</pdfrwt>
<totfact> 0.20213699E+04</totfact>
</mgrwt>
</event>
<event>
 4    1  0.4067306E+000  0.2159114E+03  0.7546771E-02  0.1136968E+00
         21   -1    0    0  501  502  0.00000000000E+00  0.00000000000E+00  0.69390349370E+03  0.69390349370E+03  0.00000000000E+00 0. -1.
         21   -1    0    0  502  503 -0.00000000000E+00 -0.00000000000E+00 -0.82911756748E+02  0.82911756748E+02  0.00000000000E+00 0.  1.
          6    1    1    2  501    0  0.10855991363E+03 -0.70024921895E+02  0.47467324394E+03  0.52147141154E+03  0.17300000000E+03 0. -1.
         -6    1    1    2    0  503 -0.10855991363E+03  0.70024921895E+02  0.13631849301E+03  0.25534383891E+03  0.17300000000E+03 0.  1.
<mgrwt>
<rscale>  2 0.21591143E+03</rscale>
<asrwt>0</asrwt>
<pdfrwt beam="1">  1       21 0.10675438E+00 0.21591143E+03</pdfrwt>
<pdfrwt beam="2">  1       21 0.12755655E-01 0.21591143E+03</pdfrwt>
<totfact> 0.36461938E+04</totfact>
</mgrwt>
</event>
<event>
 4    1  0.4067306E+000  0.2866419E+03  0.7546771E-02  0.1092116E+00
         21   -1    0    0  503  502  0.00000000000E+00  0.00000000000E+00  0.88851355810E+03  0.88851355810E+03  0.00000000000E+00 0.  1.
         21   -1    0    0  501  503 -0.00000000000E+00 -0.00000000000E+00 -0.94532547537E+02  0.94532547537E+02  0.00000000000E+00 0. -1.
          6    1    1    2  501    0  0.22683724438E+03 -0.27918900208E+02  0.46953908174E+03  0.55011866875E+03  0.17300000000E+03 0. -1.
         -6    1    1    2    0  502 -0.22683724438E+03  0.27918900208E+02  0.32444192882E+03  0.43292743688E+03  0.17300000000E+03 0.  1.
<mgrwt>
<rscale>  2 0.28664194E+03</rscale>
<asrwt>0</asrwt>
<pdfrwt beam="1">  1       21 0.13669439E+00 0.28664194E+03</pdfrwt>
<pdfrwt beam="2">  1       21 0.14543469E-01 0.28664194E+03</pdfrwt>
<totfact> 0.14952266E+04</totfact>
</mgrwt>
</event>
<event>
 4    1  0.4067306E+000  0.1834385E+03  0.7546771E-02  0.1164516E+00
         21   -1    0    0  503  502  0.00000000000E+00  0.00000000000E+00  0.15270554406E+03  0.15270554406E+03  0.00000000000E+00 0.  1.
         21   -1    0    0  501  503 -0.00000000000E+00 -0.00000000000E+00 -0.22074631560E+03  0.22074631560E+03  0.00000000000E+00 0.  1.
          6    1    1    2  501    0  0.45329394203E+02  0.40815865921E+02 -0.41865138311E+02  0.18815519843E+03  0.17300000000E+03 0.  1.
         -6    1    1    2    0  502 -0.45329394203E+02 -0.40815865921E+02 -0.26175633231E+02  0.18529666123E+03  0.17300000000E+03 0.  1.
<mgrwt>
<rscale>  2 0.18343852E+03</rscale>
<asrwt>0</asrwt>
<pdfrwt beam="1">  1       21 0.23493161E-01 0.18343852E+03</pdfrwt>
<pdfrwt beam="2">  1       21 0.33960971E-01 0.18343852E+03</pdfrwt>
<totfact> 0.14284894E+05</totfact>
</mgrwt>
</event>
<event>
 4    1  0.4067306E+000  0.2319432E+03  0.7546771E-02  0.1125279E+00
         21   -1    0    0  503  502  0.00000000000E+00  0.00000000000E+00  0.40235175595E+03  0.40235175595E+03  0.00000000000E+00 0. -1.
         21   -1    0    0  501  503 -0.00000000000E+00 -0.00000000000E+00 -0.88333396803E+03  0.88333396803E+03  0.00000000000E+00 0. -1.
          6    1    1    2  501    0 -0.15145043457E+03 -0.30519419339E+02 -0.83268599782E+03  0.86438627942E+03  0.17300000000E+03 0. -1.
         -6    1    1    2    0  502  0.15145043457E+03  0.30519419339E+02  0.35170378574E+03  0.42129944456E+03  0.17300000000E+03 0. -1.
<mgrwt>
<rscale>  2 0.23194325E+03</rscale>
<asrwt>0</asrwt>
<pdfrwt beam="1">  1       21 0.61900271E-01 0.23194325E+03</pdfrwt>
<pdfrwt beam="2">  1       21 0.13589753E+00 0.23194325E+03</pdfrwt>
<totfact> 0.90076129E+02</totfact>
</mgrwt>
</event>
<event>
 4    1  0.4067306E+000  0.1951880E+03  0.7546771E-02  0.1153864E+00
         21   -1    0    0  503  502  0.00000000000E+00  0.00000000000E+00  0.27031408913E+02  0.27031408913E+02  0.00000000000E+00 0.  1.
         21   -1    0    0  501  503 -0.00000000000E+00 -0.00000000000E+00 -0.15844125028E+04  0.15844125028E+04  0.00000000000E+00 0.  1.
          6    1    1    2  501    0  0.57971862166E+02  0.69344124998E+02 -0.10464673192E+04  0.10645150044E+04  0.17300000000E+03 0.  1.
         -6    1    1    2    0  502 -0.57971862166E+02 -0.69344124998E+02 -0.51091377473E+03  0.54692890734E+03  0.17300000000E+03 0.  1.
<mgrwt>
<rscale>  2 0.19518797E+03</rscale>
<asrwt>0</asrwt>
<pdfrwt beam="1">  1       21 0.41586767E-02 0.19518797E+03</pdfrwt>
<pdfrwt beam="2">  1       21 0.24375586E+00 0.19518797E+03</pdfrwt>
<totfact> 0.26513875E+04</totfact>
</mgrwt>
</event>
<event>
 4    1  0.4067306E+000  0.1848623E+03  0.7546771E-02  0.1163179E+00
         21   -1    0    0  501  502  0.00000000000E+00  0.00000000000E+00  0.30359679093E+02  0.30359679093E+02  0.00000000000E+00 0.  1.
         21   -1    0    0  502  503 -0.00000000000E+00 -0.00000000000E+00 -0.12471463120E+04  0.12471463120E+04  0.00000000000E+00 0.  1.
          6    1    1    2  501    0  0.32509832802E+02  0.56463834607E+02 -0.80777009208E+03  0.82865347130E+03  0.17300000000E+03 0.  1.
         -6    1    1    2    0  503 -0.32509832802E+02 -0.56463834607E+02 -0.40901654079E+03  0.44885251975E+03  0.17300000000E+03 0.  1.
<mgrwt>
<rscale>  2 0.18486226E+03</rscale>
<asrwt>0</asrwt>
<pdfrwt beam="1">  1       21 0.46707202E-02 0.18486226E+03</pdfrwt>
<pdfrwt beam="2">  1       21 0.19186865E+00 0.18486226E+03</pdfrwt>
<totfact> 0.46000675E+04</totfact>
</mgrwt>
</event>
<event>
 4    1  0.4067306E+000  0.2762741E+03  0.7546771E-02  0.1097742E+00
         21   -1    0    0  501  502  0.00000000000E+00  0.00000000000E+00  0.11605117193E+03  0.11605117193E+03  0.00000000000E+00 0. -1.
         21   -1    0    0  502  503 -0.00000000000E+00 -0.00000000000E+00 -0.68722813169E+03  0.68722813169E+03  0.00000000000E+00 0.  1.
          6    1    1    2  501    0  0.58009496940E+02  0.20744462370E+03 -0.20234096383E+03  0.34244596549E+03  0.17300000000E+03 0.  1.
         -6    1    1    2    0  503 -0.58009496940E+02 -0.20744462370E+03 -0.36883599592E+03  0.46083333812E+03  0.17300000000E+03 0.  1.
<mgrwt>
<rscale>  2 0.27627409E+03</rscale>
<asrwt>0</asrwt>
<pdfrwt beam="1">  1       21 0.17854026E-01 0.27627409E+03</pdfrwt>
<pdfrwt beam="2">  1       21 0.10572741E+00 0.27627409E+03</pdfrwt>
<totfact> 0.19576066E+04</totfact>
</mgrwt>
</event>
<event>
 4    1  0.4067306E+000  0.2403907E+03  0.7546771E-02  0.1119533E+00
         21   -1    0    0  503  502  0.00000000000E+00  0.00000000000E+00  0.44511895160E+03  0.44511895160E+03  0.00000000000E+00 0.  1.
         21   -1    0    0  501  503 -0.00000000000E+00 -0.00000000000E+00 -0.23191753433E+03  0.23191753433E+03  0.00000000000E+00 0.  1.
          6    1    1    2  501    0 -0.14586756228E+03  0.81125468954E+02 -0.11800030228E+03  0.26779051286E+03  0.17300000000E+03 0.  1.
         -6    1    1    2    0  502  0.14586756228E+03 -0.81125468954E+02  0.33120171955E+03  0.40924597307E+03  0.17300000000E+03 0.  1.
<mgrwt>
<rscale>  2 0.24039070E+03</rscale>
<asrwt>0</asrwt>
<pdfrwt beam="1">  1       21 0.68479839E-01 0.24039070E+03</pdfrwt>
<pdfrwt beam="2">  1       21 0.35679621E-01 0.24039070E+03</pdfrwt>
<totfact> 0.14314918E+04</totfact>
</mgrwt>
</event>
<event>
 4    1  0.4067306E+000  0.1740164E+03  0.7546771E-02  0.1173723E+00
         21   -1    0    0  503  502  0.00000000000E+00  0.00000000000E+00  0.17442048496E+04  0.17442048496E+04  0.00000000000E+00 0.  1.
         21   -1    0    0  501  503 -0.00000000000E+00 -0.00000000000E+00 -0.88403183298E+02  0.88403183298E+02  0.00000000000E+00 0.  1.
          6    1    1    2  501    0  0.26811174404E+01 -0.18587810594E+02  0.64854796459E+01  0.17413717736E+03  0.17300000000E+03 0.  1.
         -6    1    1    2    0  502 -0.26811174404E+01  0.18587810594E+02  0.16493161867E+04  0.16584708556E+04  0.17300000000E+03 0.  1.
<mgrwt>
<rscale>  2 0.17401636E+03</rscale>
<asrwt>0</asrwt>
<pdfrwt beam="1">  1       21 0.26833918E+00 0.17401636E+03</pdfrwt>
<pdfrwt beam="2">  1       21 0.13600491E-01 0.17401636E+03</pdfrwt>
<totfact> 0.24912881E+03</totfact>
</mgrwt>
</event>
<event>
 4    1  0.4067306E+000  0.2785526E+03  0.7546771E-02  0.1096482E+00
         21   -1    0    0  503  502  0.00000000000E+00  0.00000000000E+00  0.56174683966E+03  0.56174683966E+03  0.00000000000E+00 0.  1.
         21   -1    0    0  501  503 -0.00000000000E+00 -0.00000000000E+00 -0.30658878971E+03  0.30658878971E+03  0.00000000000E+00 0. -1.
          6    1    1    2  501    0 -0.11372654329E+03  0.18635678276E+03 -0.19425510359E+03  0.33959773616E+03  0.17300000000E+03 0. -1.
         -6    1    1    2    0  502  0.11372654329E+03 -0.18635678276E+03  0.44941315355E+03  0.52873789321E+03  0.17300000000E+03 0.  1.
<mgrwt>
<rscale>  2 0.27855265E+03</rscale>
<asrwt>0</asrwt>
<pdfrwt beam="1">  1       21 0.86422591E-01 0.27855265E+03</pdfrwt>
<pdfrwt beam="2">  1       21 0.47167506E-01 0.27855265E+03</pdfrwt>
<totfact> 0.46827472E+03</totfact>
</mgrwt>
</event>
<event>
 4    1  0.4067306E+000  0.1869227E+03  0.7546771E-02  0.1161267E+00
         21   -1    0    0  503  502  0.00000000000E+00  0.00000000000E+00  0.20959492153E+03  0.20959492153E+03  0.00000000000E+00 0. -1.
         21   -1    0    0  501  503 -0.00000000000E+00 -0.00000000000E+00 -0.21184026402E+03  0.21184026402E+03  0.00000000000E+00 0. -1.
          6    1    1    2  501    0  0.68652684118E+02 -0.17259456357E+02 -0.98389480586E+02  0.21123581552E+03  0.17300000000E+03 0. -1.
         -6    1    1    2    0  502 -0.68652684118E+02  0.17259456357E+02  0.96144138090E+02  0.21019937003E+03  0.17300000000E+03 0. -1.
<mgrwt>
<rscale>  2 0.18692266E+03</rscale>
<asrwt>0</asrwt>
<pdfrwt beam="1">  1       21 0.32245373E-01 0.18692266E+03</pdfrwt>
<pdfrwt beam="2">  1       21 0.32590810E-01 0.18692266E+03</pdfrwt>
<totfact> 0.84022687E+04</totfact>
</mgrwt>
</event>
<event>
 4    1  0.4067306E+000  0.1749810E+03  0.7546771E-02  0.1172751E+00
         21   -1    0    0  501  502  0.00000000000E+00  0.00000000000E+00  0.26719083092E+03  0.26719083092E+03  0.00000000000E+00 0. -1.
         21   -1    0    0  502  503 -0.00000000000E+00 -0.00000000000E+00 -0.12590011736E+03  0.12590011736E+03  0.00000000000E+00 0. -1.
          6    1    1    2  501    0  0.16768538685E+02 -0.20203291560E+02  0.12954525904E+03  0.21771617078E+03  0.17300000000E+03 0.  1.
         -6    1    1    2    0  503 -0.16768538685E+02  0.20203291560E+02  0.11745454520E+02  0.17537477749E+03  0.17300000000E+03 0.  1.
<mgrwt>
<rscale>  2 0.17498102E+03</rscale>
<asrwt>0</asrwt>
<pdfrwt beam="1">  1       21 0.41106282E-01 0.17498102E+03</pdfrwt>
<pdfrwt beam="2">  1       21 0.19369249E-01 0.17498102E+03</pdfrwt>
<totfact> 0.14050183E+05</totfact>
</mgrwt>
</event>
<event>
 4    1  0.4067306E+000  0.2645811E+03  0.7546771E-02  0.1104422E+00
         21   -1    0    0  501  502  0.00000000000E+00  0.00000000000E+00  0.11901046418E+04  0.11901046418E+04  0.00000000000E+00 0. -1.
         21   -1    0    0  502  503 -0.00000000000E+00 -0.00000000000E+00 -0.58884262049E+02  0.58884262049E+02  0.00000000000E+00 0.  1.
          6    1    1    2  501    0  0.17210467776E+01  0.20017784736E+03  0.54513929587E+03  0.60595378081E+03  0.17300000000E+03 0. -1.
         -6    1    1    2    0  503 -0.17210467776E+01 -0.20017784736E+03  0.58608108388E+03  0.64303512303E+03  0.17300000000E+03 0.  1.
<mgrwt>
<rscale>  2 0.26458105E+03</rscale>
<asrwt>0</asrwt>
<pdfrwt beam="1">  1       21 0.18309300E+00 0.26458105E+03</pdfrwt>
<pdfrwt beam="2">  1       21 0.90591181E-02 0.26458105E+03</pdfrwt>
<totfact> 0.15967537E+04</totfact>
</mgrwt>
</event>
<event>
 4    1  0.4067306E+000  0.1788560E+03  0.7546771E-02  0.1168915E+00
         21   -1    0    0  503  502  0.00000000000E+00  0.00000000000E+00  0.61169049394E+02  0.61169049394E+02  0.00000000000E+00 0.  1.
         21   -1    0    0  501  503 -0.00000000000E+00 -0.00000000000E+00 -0.26636174243E+04  0.26636174243E+04  0.00000000000E+00 0. -1.
          6    1    1    2  501    0 -0.11800209125E+01 -0.45377118657E+02 -0.25225718248E+04  0.25289045230E+04  0.17300000000E+03 0. -1.
         -6    1    1    2    0  502  0.11800209125E+01  0.45377118657E+02 -0.79876550146E+02  0.19588195070E+03  0.17300000000E+03 0.  1.
<mgrwt>
<rscale>  2 0.17885602E+03</rscale>
<asrwt>0</asrwt>
<pdfrwt beam="1">  1       21 0.94106235E-02 0.17885602E+03</pdfrwt>
<pdfrwt beam="2">  1       21 0.40978727E+00 0.17885602E+03</pdfrwt>
<totfact> 0.69944675E+02</totfact>
</mgrwt>
</event>
<event>
 4    1  0.4067306E+000  0.2299555E+03  0.7546771E-02  0.1126671E+00
         21   -1    0    0  503  502  0.00000000000E+00  0.00000000000E+00  0.90080793975E+02  0.90080793975E+02  0.00000000000E+00 0. -1.
         21   -1    0    0  501  503 -0.00000000000E+00 -0.00000000000E+00 -0.96792811704E+03  0.96792811704E+03  0.00000000000E+00 0.  1.
          6    1    1    2  501    0  0.12737835321E+03  0.82007721342E+02 -0.77077692761E+03  0.80434854595E+03  0.17300000000E+03 0.  1.
         -6    1    1    2    0  502 -0.12737835321E+03 -0.82007721342E+02 -0.10707039546E+03  0.25366036507E+03  0.17300000000E+03 0. -1.
<mgrwt>
<rscale>  2 0.22995545E+03</rscale>
<asrwt>0</asrwt>
<pdfrwt beam="1">  1       21 0.13858582E-01 0.22995545E+03</pdfrwt>
<pdfrwt beam="2">  1       21 0.14891203E+00 0.22995545E+03</pdfrwt>
<totfact> 0.13451750E+04</totfact>
</mgrwt>
</event>
<event>
 4    1  0.4067306E+000  0.2252909E+03  0.7546771E-02  0.1129999E+00
         21   -1    0    0  501  502  0.00000000000E+00  0.00000000000E+00  0.50205025529E+03  0.50205025529E+03  0.00000000000E+00 0. -1.
         21   -1    0    0  502  503 -0.00000000000E+00 -0.00000000000E+00 -0.20170347449E+03  0.20170347449E+03  0.00000000000E+00 0.  1.
          6    1    1    2  501    0 -0.59838043877E+02  0.13132551047E+03  0.39868466770E+03  0.45793607136E+03  0.17300000000E+03 0. -1.
         -6    1    1    2    0  503  0.59838043877E+02 -0.13132551047E+03 -0.98337886900E+02  0.24581765843E+03  0.17300000000E+03 0.  1.
<mgrwt>
<rscale>  2 0.22529088E+03</rscale>
<asrwt>0</asrwt>
<pdfrwt beam="1">  1       21 0.77238500E-01 0.22529088E+03</pdfrwt>
<pdfrwt beam="2">  1       21 0.31031304E-01 0.22529088E+03</pdfrwt>
<totfact> 0.14552512E+04</totfact>
</mgrwt>
</event>
<event>
 4    1  0.4067306E+000  0.1817755E+03  0.7546771E-02  0.1166096E+00
         21   -1    0    0  501  502  0.00000000000E+00  0.00000000000E+00  0.14021533587E+03  0.14021533587E+03  0.00000000000E+00 0. -1.
         21   -1    0    0  502  503 -0.00000000000E+00 -0.00000000000E+00 -0.25640525540E+03  0.25640525540E+03  0.00000000000E+00 0. -1.
          6    1    1    2  501    0 -0.65155392045E+01  0.55415491884E+02 -0.11451094542E+03  0.21483734687E+03  0.17300000000E+03 0. -1.
         -6    1    1    2    0  503  0.65155392045E+01 -0.55415491884E+02 -0.16789741161E+01  0.18178324440E+03  0.17300000000E+03 0. -1.
<mgrwt>
<rscale>  2 0.18177549E+03</rscale>
<asrwt>0</asrwt>
<pdfrwt beam="1">  1       21 0.21571590E-01 0.18177549E+03</pdfrwt>
<pdfrwt beam="2">  1       21 0.39446962E-01 0.18177549E+03</pdfrwt>
<totfact> 0.12456645E+05</totfact>
</mgrwt>
</event>
<event>
 4    1  0.4067306E+000  0.2637219E+03  0.7546771E-02  0.1104927E+00
         21   -1    0    0  501  502  0.00000000000E+00  0.00000000000E+00  0.15329115186E+03  0.15329115186E+03  0.00000000000E+00 0. -1.
         21   -1    0    0  502  503 -0.00000000000E+00 -0.00000000000E+00 -0.72498896850E+03  0.72498896850E+03  0.00000000000E+00 0.  1.
          6    1    1    2  501    0  0.19864218412E+03  0.12709438433E+02 -0.55447483967E+03  0.61399641282E+03  0.17300000000E+03 0. -1.
         -6    1    1    2    0  503 -0.19864218412E+03 -0.12709438433E+02 -0.17222976969E+02  0.26428370754E+03  0.17300000000E+03 0. -1.
<mgrwt>
<rscale>  2 0.26372191E+03</rscale>
<asrwt>0</asrwt>
<pdfrwt beam="1">  1       21 0.23583253E-01 0.26372191E+03</pdfrwt>
<pdfrwt beam="2">  1       21 0.11153677E+00 0.26372191E+03</pdfrwt>
<totfact> 0.10224457E+04</totfact>
</mgrwt>
</event>
<event>
 4    1  0.4067306E+000  0.1752155E+03  0.7546771E-02  0.1172516E+00
         21   -1    0    0  503  502  0.00000000000E+00  0.00000000000E+00  0.23460559801E+04  0.23460559801E+04  0.00000000000E+00 0.  1.
         21   -1    0    0  501  503 -0.00000000000E+00 -0.00000000000E+00 -0.30288767815E+02  0.30288767815E+02  0.00000000000E+00 0.  1.
          6    1    1    2  501    0 -0.26821630031E+02  0.72148623182E+01  0.26244050095E+03  0.31555581220E+03  0.17300000000E+03 0. -1.
         -6    1    1    2    0  502  0.26821630031E+02 -0.72148623182E+01  0.20533267114E+04  0.20607889358E+04  0.17300000000E+03 0. -1.
<mgrwt>
<rscale>  2 0.17521545E+03</rscale>
<asrwt>0</asrwt>
<pdfrwt beam="1">  1       21 0.36093154E+00 0.17521545E+03</pdfrwt>
<pdfrwt beam="2">  1       21 0.46598123E-02 0.17521545E+03</pdfrwt>
<totfact> 0.46749893E+03</totfact>
</mgrwt>
</event>
<event>
 4    1  0.4067306E+000  0.2577436E+03  0.7546771E-02  0.1108507E+00
         21   -1    0    0  501  502  0.00000000000E+00  0.00000000000E+00  0.10181466425E+03  0.10181466425E+03  0.00000000000E+00 0.  1.
         21   -1    0    0  502  503 -0.00000000000E+00 -0.00000000000E+00 -0.71050477867E+03  0.71050477867E+03  0.00000000000E+00 0. -1.
          6    1    1    2  501    0 -0.15690342225E+03  0.10901402546E+03 -0.18827217368E+03  0.31918357264E+03  0.17300000000E+03 0.  1.
         -6    1    1    2    0  503  0.15690342225E+03 -0.10901402546E+03 -0.42041794074E+03  0.49313587028E+03  0.17300000000E+03 0. -1.
<mgrwt>
<rscale>  2 0.25774356E+03</rscale>
<asrwt>0</asrwt>
<pdfrwt beam="1">  1       21 0.15663794E-01 0.25774356E+03</pdfrwt>
<pdfrwt beam="2">  1       21 0.10930843E+00 0.25774356E+03</pdfrwt>
<totfact> 0.23199148E+04</totfact>
</mgrwt>
</event>
<event>
 4    1  0.4067306E+000  0.1804426E+03  0.7546771E-02  0.1167375E+00
         21   -1    0    0  503  502  0.00000000000E+00  0.00000000000E+00  0.54039901025E+02  0.54039901025E+02  0.00000000000E+00 0. -1.
         21   -1    0    0  501  503 -0.00000000000E+00 -0.00000000000E+00 -0.60251750653E+03  0.60251750653E+03  0.00000000000E+00 0. -1.
          6    1    1    2  501    0 -0.51760906944E+01  0.51026896367E+02 -0.27301791381E+03  0.32725879259E+03  0.17300000000E+03 0. -1.
         -6    1    1    2    0  502  0.51760906944E+01 -0.51026896367E+02 -0.27545969169E+03  0.32929861496E+03  0.17300000000E+03 0. -1.
<mgrwt>
<rscale>  2 0.18044261E+03</rscale>
<asrwt>0</asrwt>
<pdfrwt beam="1">  1       21 0.83138308E-02 0.18044261E+03</pdfrwt>
<pdfrwt beam="2">  1       21 0.92695002E-01 0.18044261E+03</pdfrwt>
<totfact> 0.11061705E+05</totfact>
</mgrwt>
</event>
<event>
 4    1  0.4067306E+000  0.1963402E+03  0.7546771E-02  0.1152864E+00
         21   -1    0    0  503  502  0.00000000000E+00  0.00000000000E+00  0.21220639241E+03  0.21220639241E+03  0.00000000000E+00 0. -1.
         21   -1    0    0  501  503 -0.00000000000E+00 -0.00000000000E+00 -0.36311440873E+03  0.36311440873E+03  0.00000000000E+00 0. -1.
          6    1    1    2  501    0  0.69154483381E+02  0.61952593676E+02 -0.27880289622E+03  0.34099929820E+03  0.17300000000E+03 0. -1.
         -6    1    1    2    0  502 -0.69154483381E+02 -0.61952593676E+02  0.12789487990E+03  0.23432150294E+03  0.17300000000E+03 0. -1.
<mgrwt>
<rscale>  2 0.19634018E+03</rscale>
<asrwt>0</asrwt>
<pdfrwt beam="1">  1       21 0.32647138E-01 0.19634018E+03</pdfrwt>
<pdfrwt beam="2">  1       21 0.55863754E-01 0.19634018E+03</pdfrwt>
<totfact> 0.27194974E+04</totfact>
</mgrwt>
</event>
<event>
 4    1  0.4067306E+000  0.1877161E+03  0.7546771E-02  0.1160538E+00
         21   -1    0    0  501  502  0.00000000000E+00  0.00000000000E+00  0.37113458023E+03  0.37113458023E+03  0.00000000000E+00 0. -1.
         21   -1    0    0  502  503 -0.00000000000E+00 -0.00000000000E+00 -0.32199872476E+03  0.32199872476E+03  0.00000000000E+00 0. -1.
          6    1    1    2  501    0  0.71060105899E+02  0.16087285311E+02  0.31558877240E+03  0.36719696712E+03  0.17300000000E+03 0. -1.
         -6    1    1    2    0  503 -0.71060105899E+02 -0.16087285311E+02 -0.26645291693E+03  0.32593633786E+03  0.17300000000E+03 0. -1.
<mgrwt>
<rscale>  2 0.18771611E+03</rscale>
<asrwt>0</asrwt>
<pdfrwt beam="1">  1       21 0.57097628E-01 0.18771611E+03</pdfrwt>
<pdfrwt beam="2">  1       21 0.49538265E-01 0.18771611E+03</pdfrwt>
<totfact> 0.11229415E+04</totfact>
</mgrwt>
</event>
<event>
 4    1  0.4067306E+000  0.2221487E+03  0.7546771E-02  0.1132291E+00
         21   -1    0    0  503  502  0.00000000000E+00  0.00000000000E+00  0.17300094554E+03  0.17300094554E+03  0.00000000000E+00 0.  1.
         21   -1    0    0  501  503 -0.00000000000E+00 -0.00000000000E+00 -0.33758762229E+03  0.33758762229E+03  0.00000000000E+00 0.  1.
          6    1    1    2  501    0  0.13806932192E+03  0.18918602901E+02 -0.18280538044E+03  0.28769403592E+03  0.17300000000E+03 0.  1.
         -6    1    1    2    0  502 -0.13806932192E+03 -0.18918602901E+02  0.18218703687E+02  0.22289453191E+03  0.17300000000E+03 0.  1.
<mgrwt>
<rscale>  2 0.22214871E+03</rscale>
<asrwt>0</asrwt>
<pdfrwt beam="1">  1       21 0.26615530E-01 0.22214871E+03</pdfrwt>
<pdfrwt beam="2">  1       21 0.51936557E-01 0.22214871E+03</pdfrwt>
<totfact> 0.46616036E+04</totfact>
</mgrwt>
</event>
<event>
 4    1  0.4067306E+000  0.2917108E+03  0.7546771E-02  0.1089459E+00
         21   -1    0    0  503  502  0.00000000000E+00  0.00000000000E+00  0.18070240393E+03  0.18070240393E+03  0.00000000000E+00 0.  1.
         21   -1    0    0  501  503 -0.00000000000E+00 -0.00000000000E+00 -0.47134861724E+03  0.47134861724E+03  0.00000000000E+00 0. -1.
          6    1    1    2  501    0  0.59351899398E+02 -0.22725211066E+03 -0.13541544342E+03  0.32160925372E+03  0.17300000000E+03 0. -1.
         -6    1    1    2    0  502 -0.59351899398E+02  0.22725211066E+03 -0.15523076988E+03  0.33044176745E+03  0.17300000000E+03 0.  1.
<mgrwt>
<rscale>  2 0.29171076E+03</rscale>
<asrwt>0</asrwt>
<pdfrwt beam="1">  1       21 0.27800370E-01 0.29171076E+03</pdfrwt>
<pdfrwt beam="2">  1       21 0.72515171E-01 0.29171076E+03</pdfrwt>
<totfact> 0.20138407E+04</totfact>
</mgrwt>
</event>
<event>
 4    1  0.4067306E+000  0.1880325E+03  0.7546771E-02  0.1160248E+00
         21   -1    0    0  501  502  0.00000000000E+00  0.00000000000E+00  0.34577856331E+03  0.34577856331E+03  0.00000000000E+00 0.  1.
         21   -1    0    0  502  503 -0.00000000000E+00 -0.00000000000E+00 -0.10686567752E+03  0.10686567752E+03  0.00000000000E+00 0.  1.
          6    1    1    2  501    0  0.68294052724E+02 -0.27624774583E+02  0.72426083521E+02  0.20149874288E+03  0.17300000000E+03 0.  1.
         -6    1    1    2    0  503 -0.68294052724E+02  0.27624774583E+02  0.16648680227E+03  0.25114549795E+03  0.17300000000E+03 0.  1.
<mgrwt>
<rscale>  2 0.18803246E+03</rscale>
<asrwt>0</asrwt>
<pdfrwt beam="1">  1       21 0.53196702E-01 0.18803246E+03</pdfrwt>
<pdfrwt beam="2">  1       21 0.16440874E-01 0.18803246E+03</pdfrwt>
<totfact> 0.11120479E+05</totfact>
</mgrwt>
</event>
<event>
 4    1  0.4067306E+000  0.2274338E+03  0.7546771E-02  0.1128459E+00
         21   -1    0    0  501  502  0.00000000000E+00  0.00000000000E+00  0.15528655103E+03  0.15528655103E+03  0.00000000000E+00 0. -1.
         21   -1    0    0  502  503 -0.00000000000E+00 -0.00000000000E+00 -0.37614556713E+03  0.37614556713E+03  0.00000000000E+00 0.  1.
          6    1    1    2  501    0  0.12075768242E+03 -0.84939383888E+02 -0.20542146705E+02  0.22835957740E+03  0.17300000000E+03 0. -1.
         -6    1    1    2    0  503 -0.12075768242E+03  0.84939383888E+02 -0.20031686940E+03  0.30307254076E+03  0.17300000000E+03 0.  1.
<mgrwt>
<rscale>  2 0.22743376E+03</rscale>
<asrwt>0</asrwt>
<pdfrwt beam="1">  1       21 0.23890239E-01 0.22743376E+03</pdfrwt>
<pdfrwt beam="2">  1       21 0.57868548E-01 0.22743376E+03</pdfrwt>
<totfact> 0.45473984E+04</totfact>
</mgrwt>
</event>
<event>
 4    1  0.4067306E+000  0.3032283E+03  0.7546771E-02  0.1083638E+00
         21   -1    0    0  503  502  0.00000000000E+00  0.00000000000E+00  0.36455164687E+03  0.36455164687E+03  0.00000000000E+00 0.  1.
         21   -1    0    0  501  503 -0.00000000000E+00 -0.00000000000E+00 -0.38154278173E+03  0.38154278173E+03  0.00000000000E+00 0.  1.
          6    1    1    2  501    0 -0.11933453369E+03 -0.21858108014E+03 -0.22568003553E+03  0.37799325122E+03  0.17300000000E+03 0.  1.
         -6    1    1    2    0  502  0.11933453369E+03  0.21858108014E+03  0.20868890068E+03  0.36810117739E+03  0.17300000000E+03 0.  1.
<mgrwt>
<rscale>  2 0.30322833E+03</rscale>
<asrwt>0</asrwt>
<pdfrwt beam="1">  1       21 0.56084869E-01 0.30322833E+03</pdfrwt>
<pdfrwt beam="2">  1       21 0.58698889E-01 0.30322833E+03</pdfrwt>
<totfact> 0.76181148E+03</totfact>
</mgrwt>
</event>
<event>
 4    1  0.4067306E+000  0.3172892E+03  0.7546771E-02  0.1076904E+00
         21   -1    0    0  501  502  0.00000000000E+00  0.00000000000E+00  0.33155346285E+03  0.33155346285E+03  0.00000000000E+00 0. -1.
         21   -1    0    0  502  503 -0.00000000000E+00 -0.00000000000E+00 -0.43832980718E+03  0.43832980718E+03  0.00000000000E+00 0.  1.
          6    1    1    2  501    0 -0.14086737714E+03  0.22560982660E+03 -0.26677327283E+03  0.41453635654E+03  0.17300000000E+03 0.  1.
         -6    1    1    2    0  503  0.14086737714E+03 -0.22560982660E+03  0.15999692850E+03  0.35534691349E+03  0.17300000000E+03 0. -1.
<mgrwt>
<rscale>  2 0.31728916E+03</rscale>
<asrwt>0</asrwt>
<pdfrwt beam="1">  1       21 0.51008225E-01 0.31728916E+03</pdfrwt>
<pdfrwt beam="2">  1       21 0.67435355E-01 0.31728916E+03</pdfrwt>
<totfact> 0.68366990E+03</totfact>
</mgrwt>
</event>
<event>
 4    1  0.4067306E+000  0.1932389E+03  0.7546771E-02  0.1155572E+00
         21   -1    0    0  501  502  0.00000000000E+00  0.00000000000E+00  0.97958447403E+02  0.97958447403E+02  0.00000000000E+00 0.  1.
         21   -1    0    0  502  503 -0.00000000000E+00 -0.00000000000E+00 -0.83377453114E+03  0.83377453114E+03  0.00000000000E+00 0.  1.
          6    1    1    2  501    0 -0.39395096030E+02 -0.76552486044E+02 -0.24678484383E+02  0.19480832709E+03  0.17300000000E+03 0.  1.
         -6    1    1    2    0  503  0.39395096030E+02  0.76552486044E+02 -0.71113759936E+03  0.73692465146E+03  0.17300000000E+03 0.  1.
<mgrwt>
<rscale>  2 0.19323886E+03</rscale>
<asrwt>0</asrwt>
<pdfrwt beam="1">  1       21 0.15070531E-01 0.19323886E+03</pdfrwt>
<pdfrwt beam="2">  1       21 0.12827300E+00 0.19323886E+03</pdfrwt>
<totfact> 0.17382724E+04</totfact>
</mgrwt>
</event>
<event>
 4    1  0.4067306E+000  0.1893006E+03  0.7546771E-02  0.1159094E+00
         21   -1    0    0  501  502  0.00000000000E+00  0.00000000000E+00  0.10101159988E+04  0.10101159988E+04  0.00000000000E+00 0.  1.
         21   -1    0    0  502  503 -0.00000000000E+00 -0.00000000000E+00 -0.50083054760E+02  0.50083054760E+02  0.00000000000E+00 0.  1.
          6    1    1    2  501    0  0.74489222628E+02 -0.18896235273E+02  0.76629959195E+03  0.78933502178E+03  0.17300000000E+03 0.  1.
         -6    1    1    2    0  503 -0.74489222628E+02  0.18896235273E+02  0.19373335208E+03  0.27086403176E+03  0.17300000000E+03 0.  1.
<mgrwt>
<rscale>  2 0.18930059E+03</rscale>
<asrwt>0</asrwt>
<pdfrwt beam="1">  1       21 0.15540245E+00 0.18930059E+03</pdfrwt>
<pdfrwt beam="2">  1       21 0.77050861E-02 0.18930059E+03</pdfrwt>
<totfact> 0.34939117E+04</totfact>
</mgrwt>
</event>
<event>
 4    1  0.4067306E+000  0.2641224E+03  0.7546771E-02  0.1104691E+00
         21   -1    0    0  503  502  0.00000000000E+00  0.00000000000E+00  0.72366815004E+03  0.72366815004E+03  0.00000000000E+00 0. -1.
         21   -1    0    0  501  503 -0.00000000000E+00 -0.00000000000E+00 -0.12303568320E+03  0.12303568320E+03  0.00000000000E+00 0. -1.
          6    1    1    2  501    0  0.16886639798E+03  0.10637573504E+03  0.10333328398E+03  0.28361668666E+03  0.17300000000E+03 0. -1.
         -6    1    1    2    0  502 -0.16886639798E+03 -0.10637573504E+03  0.49729918286E+03  0.56308714658E+03  0.17300000000E+03 0. -1.
<mgrwt>
<rscale>  2 0.26412243E+03</rscale>
<asrwt>0</asrwt>
<pdfrwt beam="1">  1       21 0.11133356E+00 0.26412243E+03</pdfrwt>
<pdfrwt beam="2">  1       21 0.18928567E-01 0.26412243E+03</pdfrwt>
<totfact> 0.15563864E+04</totfact>
</mgrwt>
</event>
<event>
 4    1  0.4067306E+000  0.1828820E+03  0.7546771E-02  0.1165043E+00
         21   -1    0    0  503  502  0.00000000000E+00  0.00000000000E+00  0.75007343160E+03  0.75007343160E+03  0.00000000000E+00 0.  1.
         21   -1    0    0  501  503 -0.00000000000E+00 -0.00000000000E+00 -0.81611538099E+02  0.81611538099E+02  0.00000000000E+00 0.  1.
          6    1    1    2  501    0 -0.48789230141E+02 -0.33711207848E+02  0.54152406599E+02  0.19073100863E+03  0.17300000000E+03 0.  1.
         -6    1    1    2    0  502  0.48789230141E+02  0.33711207848E+02  0.61430948690E+03  0.64095396107E+03  0.17300000000E+03 0.  1.
<mgrwt>
<rscale>  2 0.18288202E+03</rscale>
<asrwt>0</asrwt>
<pdfrwt beam="1">  1       21 0.11539591E+00 0.18288202E+03</pdfrwt>
<pdfrwt beam="2">  1       21 0.12555622E-01 0.18288202E+03</pdfrwt>
<totfact> 0.31633833E+04</totfact>
</mgrwt>
</event>
<event>
 4    1  0.4067306E+000  0.1889442E+03  0.7546771E-02  0.1159417E+00
         21   -1    0    0  501  502  0.00000000000E+00  0.00000000000E+00  0.14163243928E+03  0.14163243928E+03  0.00000000000E+00 0. -1.
         21   -1    0    0  502  503 -0.00000000000E+00 -0.00000000000E+00 -0.25363826149E+03  0.25363826149E+03  0.00000000000E+00 0. -1.
          6    1    1    2  501    0  0.33690094719E+02 -0.68087366697E+02 -0.40414261209E+02  0.19321807497E+03  0.17300000000E+03 0. -1.
         -6    1    1    2    0  503 -0.33690094719E+02  0.68087366697E+02 -0.71591561003E+02  0.20205262580E+03  0.17300000000E+03 0. -1.
<mgrwt>
<rscale>  2 0.18894420E+03</rscale>
<asrwt>0</asrwt>
<pdfrwt beam="1">  1       21 0.21789606E-01 0.18894420E+03</pdfrwt>
<pdfrwt beam="2">  1       21 0.39021271E-01 0.18894420E+03</pdfrwt>
<totfact> 0.12462397E+05</totfact>
</mgrwt>
</event>
<event>
 4    1  0.4067306E+000  0.2165965E+03  0.7546771E-02  0.1136446E+00
         21   -1    0    0  503  502  0.00000000000E+00  0.00000000000E+00  0.20340522294E+04  0.20340522294E+04  0.00000000000E+00 0.  1.
         21   -1    0    0  501  503 -0.00000000000E+00 -0.00000000000E+00 -0.31558752468E+02  0.31558752468E+02  0.00000000000E+00 0. -1.
          6    1    1    2  501    0  0.27747279256E+02  0.12733871559E+03  0.46541868098E+03  0.51335037606E+03  0.17300000000E+03 0. -1.
         -6    1    1    2    0  502 -0.27747279256E+02 -0.12733871559E+03  0.15370747959E+04  0.15522606058E+04  0.17300000000E+03 0.  1.
<mgrwt>
<rscale>  2 0.21659654E+03</rscale>
<asrwt>0</asrwt>
<pdfrwt beam="1">  1       21 0.31293101E+00 0.21659654E+03</pdfrwt>
<pdfrwt beam="2">  1       21 0.48551943E-02 0.21659654E+03</pdfrwt>
<totfact> 0.79216092E+03</totfact>
</mgrwt>
</event>
<event>
 4    1  0.4067306E+000  0.1868369E+03  0.7546771E-02  0.1161346E+00
         21   -1    0    0  501  502  0.00000000000E+00  0.00000000000E+00  0.30191870259E+03  0.30191870259E+03  0.00000000000E+00 0.  1.
         21   -1    0    0  502  503 -0.00000000000E+00 -0.00000000000E+00 -0.17419320953E+03  0.17419320953E+03  0.00000000000E+00 0. -1.
          6    1    1    2  501    0  0.61977057604E+02  0.33732214019E+02  0.20190459692E+03  0.27508813894E+03  0.17300000000E+03 0.  1.
         -6    1    1    2    0  503 -0.61977057604E+02 -0.33732214019E+02 -0.74179103853E+02  0.20102377317E+03  0.17300000000E+03 0. -1.
<mgrwt>
<rscale>  2 0.18683688E+03</rscale>
<asrwt>0</asrwt>
<pdfrwt beam="1">  1       21 0.46449031E-01 0.18683688E+03</pdfrwt>
<pdfrwt beam="2">  1       21 0.26798955E-01 0.18683688E+03</pdfrwt>
<totfact> 0.59013024E+04</totfact>
</mgrwt>
</event>
<event>
 4    1  0.4067306E+000  0.1778579E+03  0.7546771E-02  0.1169892E+00
         21   -1    0    0  503  502  0.00000000000E+00  0.00000000000E+00  0.33374243331E+03  0.33374243331E+03  0.00000000000E+00 0.  1.
         21   -1    0    0  501  503 -0.00000000000E+00 -0.00000000000E+00 -0.20781308095E+03  0.20781308095E+03  0.00000000000E+00 0.  1.
          6    1    1    2  501    0 -0.29842399500E+02  0.28528432738E+02 -0.13673237814E+03  0.22434166691E+03  0.17300000000E+03 0.  1.
         -6    1    1    2    0  502  0.29842399500E+02 -0.28528432738E+02  0.26266173050E+03  0.31721384735E+03  0.17300000000E+03 0.  1.
<mgrwt>
<rscale>  2 0.17785792E+03</rscale>
<asrwt>0</asrwt>
<pdfrwt beam="1">  1       21 0.51344989E-01 0.17785792E+03</pdfrwt>
<pdfrwt beam="2">  1       21 0.31971243E-01 0.17785792E+03</pdfrwt>
<totfact> 0.34182303E+04</totfact>
</mgrwt>
</event>
<event>
 4    1  0.4067306E+000  0.2001571E+03  0.7546771E-02  0.1149607E+00
         21   -1    0    0  501  502  0.00000000000E+00  0.00000000000E+00  0.13367939899E+04  0.13367939899E+04  0.00000000000E+00 0. -1.
         21   -1    0    0  502  503 -0.00000000000E+00 -0.00000000000E+00 -0.44673277560E+02  0.44673277560E+02  0.00000000000E+00 0. -1.
          6    1    1    2  501    0  0.73261531070E+02 -0.69040758808E+02  0.10423411516E+04  0.10613849230E+04  0.17300000000E+03 0. -1.
         -6    1    1    2    0  503 -0.73261531070E+02  0.69040758808E+02  0.24977956072E+03  0.32008234451E+03  0.17300000000E+03 0. -1.
<mgrwt>
<rscale>  2 0.20015713E+03</rscale>
<asrwt>0</asrwt>
<pdfrwt beam="1">  1       21 0.20566058E+00 0.20015713E+03</pdfrwt>
<pdfrwt beam="2">  1       21 0.68728130E-02 0.20015713E+03</pdfrwt>
<totfact> 0.19181016E+04</totfact>
</mgrwt>
</event>
<event>
 4    1  0.4067306E+000  0.1918950E+03  0.7546771E-02  0.1156763E+00
         21   -1    0    0  503  502  0.00000000000E+00  0.00000000000E+00  0.74575405745E+03  0.74575405745E+03  0.00000000000E+00 0. -1.
         21   -1    0    0  501  503 -0.00000000000E+00 -0.00000000000E+00 -0.69950102332E+02  0.69950102332E+02  0.00000000000E+00 0. -1.
          6    1    1    2  501    0 -0.67784166428E+02  0.47958213593E+02  0.11671980872E+03  0.22460453517E+03  0.17300000000E+03 0. -1.
         -6    1    1    2    0  502  0.67784166428E+02 -0.47958213593E+02  0.55908414640E+03  0.59109962461E+03  0.17300000000E+03 0. -1.
<mgrwt>
<rscale>  2 0.19189498E+03</rscale>
<asrwt>0</asrwt>
<pdfrwt beam="1">  1       21 0.11473139E+00 0.19189498E+03</pdfrwt>
<pdfrwt beam="2">  1       21 0.10761555E-01 0.19189498E+03</pdfrwt>
<totfact> 0.42031157E+04</totfact>
</mgrwt>
</event>
<event>
 4    1  0.4067306E+000  0.2173208E+03  0.7546771E-02  0.1135896E+00
         21   -1    0    0  503  502  0.00000000000E+00  0.00000000000E+00  0.76008769623E+02  0.76008769623E+02  0.00000000000E+00 0.  1.
         21   -1    0    0  501  503 -0.00000000000E+00 -0.00000000000E+00 -0.69729711920E+03  0.69729711920E+03  0.00000000000E+00 0. -1.
          6    1    1    2  501    0 -0.39187133123E+02 -0.12555351156E+03 -0.43824632937E+03  0.48917089128E+03  0.17300000000E+03 0. -1.
         -6    1    1    2    0  502  0.39187133123E+02  0.12555351156E+03 -0.18304202021E+03  0.28413499755E+03  0.17300000000E+03 0.  1.
<mgrwt>
<rscale>  2 0.21732077E+03</rscale>
<asrwt>0</asrwt>
<pdfrwt beam="1">  1       21 0.11693657E-01 0.21732077E+03</pdfrwt>
<pdfrwt beam="2">  1       21 0.10727648E+00 0.21732077E+03</pdfrwt>
<totfact> 0.42093521E+04</totfact>
</mgrwt>
</event>
<event>
 4    1  0.4067306E+000  0.2602724E+03  0.7546771E-02  0.1106980E+00
         21   -1    0    0  503  502  0.00000000000E+00  0.00000000000E+00  0.20721415629E+03  0.20721415629E+03  0.00000000000E+00 0. -1.
         21   -1    0    0  501  503 -0.00000000000E+00 -0.00000000000E+00 -0.32936566072E+03  0.32936566072E+03  0.00000000000E+00 0. -1.
          6    1    1    2  501    0  0.18870910497E+03 -0.46921427079E+02 -0.84210528778E+02  0.27355650198E+03  0.17300000000E+03 0. -1.
         -6    1    1    2    0  502 -0.18870910497E+03  0.46921427079E+02 -0.37940975653E+02  0.26302331503E+03  0.17300000000E+03 0. -1.
<mgrwt>
<rscale>  2 0.26027245E+03</rscale>
<asrwt>0</asrwt>
<pdfrwt beam="1">  1       21 0.31879101E-01 0.26027245E+03</pdfrwt>
<pdfrwt beam="2">  1       21 0.50671640E-01 0.26027245E+03</pdfrwt>
<totfact> 0.33953068E+04</totfact>
</mgrwt>
</event>
<event>
 4    1  0.4067306E+000  0.2765128E+03  0.7546771E-02  0.1097609E+00
         21   -1    0    0  501  502  0.00000000000E+00  0.00000000000E+00  0.69102579688E+02  0.69102579688E+02  0.00000000000E+00 0. -1.
         21   -1    0    0  502  503 -0.00000000000E+00 -0.00000000000E+00 -0.14306611239E+04  0.14306611239E+04  0.00000000000E+00 0.  1.
          6    1    1    2  501    0  0.21419029201E+03  0.25550395901E+02 -0.32380978378E+03  0.42580756216E+03  0.17300000000E+03 0.  1.
         -6    1    1    2    0  503 -0.21419029201E+03 -0.25550395901E+02 -0.10377487604E+04  0.10739561414E+04  0.17300000000E+03 0.  1.
<mgrwt>
<rscale>  2 0.27651276E+03</rscale>
<asrwt>0</asrwt>
<pdfrwt beam="1">  1       21 0.10631167E-01 0.27651276E+03</pdfrwt>
<pdfrwt beam="2">  1       21 0.22010169E+00 0.27651276E+03</pdfrwt>
<totfact> 0.68471670E+03</totfact>
</mgrwt>
</event>
<event>
 4    1  0.4067306E+000  0.2229980E+03  0.7546771E-02  0.1131667E+00
         21   -1    0    0  501  502  0.00000000000E+00  0.00000000000E+00  0.58820218264E+03  0.58820218264E+03  0.00000000000E+00 0. -1.
         21   -1    0    0  502  503 -0.00000000000E+00 -0.00000000000E+00 -0.34919283506E+03  0.34919283506E+03  0.00000000000E+00 0. -1.
          6    1    1    2  501    0 -0.30297793365E+02  0.13740865142E+03  0.52753852302E+03  0.57273465674E+03  0.17300000000E+03 0. -1.
         -6    1    1    2    0  503  0.30297793365E+02 -0.13740865142E+03 -0.28852917544E+03  0.36466036095E+03  0.17300000000E+03 0. -1.
<mgrwt>
<rscale>  2 0.22299797E+03</rscale>
<asrwt>0</asrwt>
<pdfrwt beam="1">  1       21 0.90492643E-01 0.22299797E+03</pdfrwt>
<pdfrwt beam="2">  1       21 0.53721975E-01 0.22299797E+03</pdfrwt>
<totfact> 0.33186362E+03</totfact>
</mgrwt>
</event>
<event>
 4    1  0.4067306E+000  0.2075778E+03  0.7546771E-02  0.1143499E+00
         21   -1    0    0  501  502  0.00000000000E+00  0.00000000000E+00  0.44643006658E+02  0.44643006658E+02  0.00000000000E+00 0.  1.
         21   -1    0    0  502  503 -0.00000000000E+00 -0.00000000000E+00 -0.13006168691E+04  0.13006168691E+04  0.00000000000E+00 0.  1.
          6    1    1    2  501    0  0.11135071565E+03 -0.27578519211E+02 -0.28639577513E+03  0.35371047003E+03  0.17300000000E+03 0.  1.
         -6    1    1    2    0  503 -0.11135071565E+03  0.27578519211E+02 -0.96957808729E+03  0.99154940570E+03  0.17300000000E+03 0.  1.
<mgrwt>
<rscale>  2 0.20757783E+03</rscale>
<asrwt>0</asrwt>
<pdfrwt beam="1">  1       21 0.68681543E-02 0.20757783E+03</pdfrwt>
<pdfrwt beam="2">  1       21 0.20009492E+00 0.20757783E+03</pdfrwt>
<totfact> 0.20726332E+04</totfact>
</mgrwt>
</event>
<event>
 4    1  0.4067306E+000  0.1929196E+03  0.7546771E-02  0.1155854E+00
         21   -1    0    0  501  502  0.00000000000E+00  0.00000000000E+00  0.23726268421E+03  0.23726268421E+03  0.00000000000E+00 0. -1.
         21   -1    0    0  502  503 -0.00000000000E+00 -0.00000000000E+00 -0.19678499334E+03  0.19678499334E+03  0.00000000000E+00 0. -1.
          6    1    1    2  501    0 -0.84967733266E+02  0.83349984287E+01  0.11798772701E+03  0.22613954015E+03  0.17300000000E+03 0. -1.
         -6    1    1    2    0  503  0.84967733266E+02 -0.83349984287E+01 -0.77510036131E+02  0.20790813740E+03  0.17300000000E+03 0. -1.
<mgrwt>
<rscale>  2 0.19291964E+03</rscale>
<asrwt>0</asrwt>
<pdfrwt beam="1">  1       21 0.36501952E-01 0.19291964E+03</pdfrwt>
<pdfrwt beam="2">  1       21 0.30274614E-01 0.19291964E+03</pdfrwt>
<totfact> 0.75769572E+04</totfact>
</mgrwt>
</event>
<event>
 4    1  0.4067306E+000  0.2192888E+03  0.7546771E-02  0.1134414E+00
         21   -1    0    0  503  502  0.00000000000E+00  0.00000000000E+00  0.30516741869E+03  0.30516741869E+03  0.00000000000E+00 0. -1.
         21   -1    0    0  501  503 -0.00000000000E+00 -0.00000000000E+00 -0.26031423029E+03  0.26031423029E+03  0.00000000000E+00 0. -1.
          6    1    1    2  501    0 -0.37025977977E+01  0.13470285245E+03 -0.15519759040E+03  0.26865193049E+03  0.17300000000E+03 0. -1.
         -6    1    1    2    0  502  0.37025977977E+01 -0.13470285245E+03  0.20005077880E+03  0.29682971850E+03  0.17300000000E+03 0. -1.
<mgrwt>
<rscale>  2 0.21928878E+03</rscale>
<asrwt>0</asrwt>
<pdfrwt beam="1">  1       21 0.46948834E-01 0.21928878E+03</pdfrwt>
<pdfrwt beam="2">  1       21 0.40048343E-01 0.21928878E+03</pdfrwt>
<totfact> 0.25711226E+04</totfact>
</mgrwt>
</event>
<event>
 4    1  0.4067306E+000  0.3463507E+03  0.7546771E-02  0.1064123E+00
         21   -1    0    0  503  502  0.00000000000E+00  0.00000000000E+00  0.34361519458E+03  0.34361519458E+03  0.00000000000E+00 0. -1.
         21   -1    0    0  501  503 -0.00000000000E+00 -0.00000000000E+00 -0.41950285145E+03  0.41950285145E+03  0.00000000000E+00 0.  1.
          6    1    1    2  501    0 -0.25465815019E+03  0.15867910324E+03 -0.19424583632E+03  0.39710234977E+03  0.17300000000E+03 0.  1.
         -6    1    1    2    0  502  0.25465815019E+03 -0.15867910324E+03  0.11835817946E+03  0.36601569626E+03  0.17300000000E+03 0. -1.
<mgrwt>
<rscale>  2 0.34635073E+03</rscale>
<asrwt>0</asrwt>
<pdfrwt beam="1">  1       21 0.52863876E-01 0.34635073E+03</pdfrwt>
<pdfrwt beam="2">  1       21 0.64538900E-01 0.34635073E+03</pdfrwt>
<totfact> 0.68955594E+03</totfact>
</mgrwt>
</event>
<event>
 4    1  0.4067306E+000  0.1886229E+03  0.7546771E-02  0.1159709E+00
         21   -1    0    0  503  502  0.00000000000E+00  0.00000000000E+00  0.30048420547E+03  0.30048420547E+03  0.00000000000E+00 0.  1.
         21   -1    0    0  501  503 -0.00000000000E+00 -0.00000000000E+00 -0.11876020719E+03  0.11876020719E+03  0.00000000000E+00 0.  1.
          6    1    1    2  501    0  0.71091538594E+02  0.24404727746E+02  0.10233877136E+03  0.21459688190E+03  0.17300000000E+03 0.  1.
         -6    1    1    2    0  502 -0.71091538594E+02 -0.24404727746E+02  0.79385226918E+02  0.20464753077E+03  0.17300000000E+03 0.  1.
<mgrwt>
<rscale>  2 0.18862290E+03</rscale>
<asrwt>0</asrwt>
<pdfrwt beam="1">  1       21 0.46228339E-01 0.18862290E+03</pdfrwt>
<pdfrwt beam="2">  1       21 0.18270801E-01 0.18862290E+03</pdfrwt>
<totfact> 0.12261437E+05</totfact>
</mgrwt>
</event>
<event>
 4    1  0.4067306E+000  0.1864732E+03  0.7546771E-02  0.1161681E+00
         21   -1    0    0  503  502  0.00000000000E+00  0.00000000000E+00  0.16076909400E+03  0.16076909400E+03  0.00000000000E+00 0.  1.
         21   -1    0    0  501  503 -0.00000000000E+00 -0.00000000000E+00 -0.22889224442E+03  0.22889224442E+03  0.00000000000E+00 0.  1.
          6    1    1    2  501    0  0.40574121517E+02 -0.56542026691E+02  0.11659659033E+02  0.18683738322E+03  0.17300000000E+03 0. -1.
         -6    1    1    2    0  502 -0.40574121517E+02  0.56542026691E+02 -0.79782809456E+02  0.20282395520E+03  0.17300000000E+03 0. -1.
<mgrwt>
<rscale>  2 0.18647322E+03</rscale>
<asrwt>0</asrwt>
<pdfrwt beam="1">  1       21 0.24733707E-01 0.18647322E+03</pdfrwt>
<pdfrwt beam="2">  1       21 0.35214191E-01 0.18647322E+03</pdfrwt>
<totfact> 0.12045147E+05</totfact>
</mgrwt>
</event>
<event>
 4    1  0.4067306E+000  0.1748309E+03  0.7546771E-02  0.1172902E+00
         21   -1    0    0  503  502  0.00000000000E+00  0.00000000000E+00  0.21616447758E+04  0.21616447758E+04  0.00000000000E+00 0. -1.
         21   -1    0    0  501  503 -0.00000000000E+00 -0.00000000000E+00 -0.14142210446E+02  0.14142210446E+02  0.00000000000E+00 0. -1.
          6    1    1    2  501    0  0.22069664187E+02 -0.12238052801E+02  0.10604132080E+04  0.10747288084E+04  0.17300000000E+03 0. -1.
         -6    1    1    2    0  502 -0.22069664187E+02  0.12238052801E+02  0.10870893574E+04  0.11010581778E+04  0.17300000000E+03 0. -1.
<mgrwt>
<rscale>  2 0.17483089E+03</rscale>
<asrwt>0</asrwt>
<pdfrwt beam="1">  1       21 0.33256047E+00 0.17483089E+03</pdfrwt>
<pdfrwt beam="2">  1       21 0.21757264E-02 0.17483089E+03</pdfrwt>
<totfact> 0.24213453E+04</totfact>
</mgrwt>
</event>
<event>
 4    1  0.4067306E+000  0.1817750E+03  0.7546771E-02  0.1166096E+00
         21   -1    0    0  503  502  0.00000000000E+00  0.00000000000E+00  0.19261895926E+03  0.19261895926E+03  0.00000000000E+00 0.  1.
         21   -1    0    0  501  503 -0.00000000000E+00 -0.00000000000E+00 -0.23206037510E+03  0.23206037510E+03  0.00000000000E+00 0.  1.
          6    1    1    2  501    0 -0.19456014998E+02 -0.52293385682E+02 -0.12815739890E+03  0.22241055190E+03  0.17300000000E+03 0.  1.
         -6    1    1    2    0  502  0.19456014998E+02  0.52293385682E+02  0.88715983057E+02  0.20226878245E+03  0.17300000000E+03 0.  1.
<mgrwt>
<rscale>  2 0.18177496E+03</rscale>
<asrwt>0</asrwt>
<pdfrwt beam="1">  1       21 0.29633686E-01 0.18177496E+03</pdfrwt>
<pdfrwt beam="2">  1       21 0.35701596E-01 0.18177496E+03</pdfrwt>
<totfact> 0.82926510E+04</totfact>
</mgrwt>
</event>
<event>
 4    1  0.4067306E+000  0.1954023E+03  0.7546771E-02  0.1153677E+00
         21   -1    0    0  501  502  0.00000000000E+00  0.00000000000E+00  0.33212184695E+03  0.33212184695E+03  0.00000000000E+00 0. -1.
         21   -1    0    0  502  503 -0.00000000000E+00 -0.00000000000E+00 -0.12657628210E+03  0.12657628210E+03  0.00000000000E+00 0. -1.
          6    1    1    2  501    0 -0.81229142890E+02 -0.40680140321E+02  0.17224002740E+03  0.26047778122E+03  0.17300000000E+03 0. -1.
         -6    1    1    2    0  503  0.81229142890E+02  0.40680140321E+02  0.33305537450E+02  0.19822034784E+03  0.17300000000E+03 0. -1.
<mgrwt>
<rscale>  2 0.19540227E+03</rscale>
<asrwt>0</asrwt>
<pdfrwt beam="1">  1       21 0.51095668E-01 0.19540227E+03</pdfrwt>
<pdfrwt beam="2">  1       21 0.19473274E-01 0.19540227E+03</pdfrwt>
<totfact> 0.88256351E+04</totfact>
</mgrwt>
</event>
<event>
 4    1  0.4067306E+000  0.2174884E+03  0.7546771E-02  0.1135770E+00
         21   -1    0    0  503  502  0.00000000000E+00  0.00000000000E+00  0.11530818472E+03  0.11530818472E+03  0.00000000000E+00 0. -1.
         21   -1    0    0  501  503 -0.00000000000E+00 -0.00000000000E+00 -0.53715771972E+03  0.53715771972E+03  0.00000000000E+00 0.  1.
          6    1    1    2  501    0 -0.16907459788E+02  0.13071472193E+03 -0.36951630802E+03  0.42876975478E+03  0.17300000000E+03 0.  1.
         -6    1    1    2    0  502  0.16907459788E+02 -0.13071472193E+03 -0.52333226988E+02  0.22369614966E+03  0.17300000000E+03 0. -1.
<mgrwt>
<rscale>  2 0.21748839E+03</rscale>
<asrwt>0</asrwt>
<pdfrwt beam="1">  1       21 0.17739721E-01 0.21748839E+03</pdfrwt>
<pdfrwt beam="2">  1       21 0.82639649E-01 0.21748839E+03</pdfrwt>
<totfact> 0.36374701E+04</totfact>
</mgrwt>
</event>
<event>
 4    1  0.4067306E+000  0.1827897E+03  0.7546771E-02  0.1165130E+00
         21   -1    0    0  501  502  0.00000000000E+00  0.00000000000E+00  0.13865862416E+04  0.13865862416E+04  0.00000000000E+00 0. -1.
         21   -1    0    0  502  503 -0.00000000000E+00 -0.00000000000E+00 -0.24446584174E+02  0.24446584174E+02  0.00000000000E+00 0. -1.
          6    1    1    2  501    0 -0.38258794117E+02 -0.44937236261E+02  0.59666097596E+03  0.62403237958E+03  0.17300000000E+03 0. -1.
         -6    1    1    2    0  503  0.38258794117E+02  0.44937236261E+02  0.76547868146E+03  0.78700044618E+03  0.17300000000E+03 0. -1.
<mgrwt>
<rscale>  2 0.18278974E+03</rscale>
<asrwt>0</asrwt>
<pdfrwt beam="1">  1       21 0.21332090E+00 0.18278974E+03</pdfrwt>
<pdfrwt beam="2">  1       21 0.37610140E-02 0.18278974E+03</pdfrwt>
<totfact> 0.48388206E+04</totfact>
</mgrwt>
</event>
<event>
 4    1  0.4067306E+000  0.2631761E+03  0.7546771E-02  0.1105250E+00
         21   -1    0    0  501  502  0.00000000000E+00  0.00000000000E+00  0.19326078597E+04  0.19326078597E+04  0.00000000000E+00 0.  1.
         21   -1    0    0  502  503 -0.00000000000E+00 -0.00000000000E+00 -0.47252906045E+02  0.47252906045E+02  0.00000000000E+00 0.  1.
          6    1    1    2  501    0  0.17303199777E+03 -0.96915461779E+02  0.14292167651E+04  0.14532454165E+04  0.17300000000E+03 0.  1.
         -6    1    1    2    0  503 -0.17303199777E+03  0.96915461779E+02  0.45613818856E+03  0.52661534923E+03  0.17300000000E+03 0.  1.
<mgrwt>
<rscale>  2 0.26317614E+03</rscale>
<asrwt>0</asrwt>
<pdfrwt beam="1">  1       21 0.29732423E+00 0.26317614E+03</pdfrwt>
<pdfrwt beam="2">  1       21 0.72696793E-02 0.26317614E+03</pdfrwt>
<totfact> 0.46721116E+03</totfact>
</mgrwt>
</event>
<event>
 4    1  0.4067306E+000  0.2785341E+03  0.7546771E-02  0.1096492E+00
         21   -1    0    0  503  502  0.00000000000E+00  0.00000000000E+00  0.45045607891E+03  0.45045607891E+03  0.00000000000E+00 0.  1.
         21   -1    0    0  501  503 -0.00000000000E+00 -0.00000000000E+00 -0.18188754112E+03  0.18188754112E+03  0.00000000000E+00 0. -1.
          6    1    1    2  501    0  0.47699158519E+02  0.21301881640E+03  0.20714543362E+03  0.34711735268E+03  0.17300000000E+03 0.  1.
         -6    1    1    2    0  502 -0.47699158519E+02 -0.21301881640E+03  0.61423104167E+02  0.28522626735E+03  0.17300000000E+03 0. -1.
<mgrwt>
<rscale>  2 0.27853407E+03</rscale>
<asrwt>0</asrwt>
<pdfrwt beam="1">  1       21 0.69300935E-01 0.27853407E+03</pdfrwt>
<pdfrwt beam="2">  1       21 0.27982699E-01 0.27853407E+03</pdfrwt>
<totfact> 0.22122114E+04</totfact>
</mgrwt>
</event>
<event>
 4    1  0.4067306E+000  0.1898963E+03  0.7546771E-02  0.1158555E+00
         21   -1    0    0  503  502  0.00000000000E+00  0.00000000000E+00  0.35845887785E+03  0.35845887785E+03  0.00000000000E+00 0. -1.
         21   -1    0    0  501  503 -0.00000000000E+00 -0.00000000000E+00 -0.11940726664E+03  0.11940726664E+03  0.00000000000E+00 0. -1.
          6    1    1    2  501    0 -0.36445921579E+02  0.69305950539E+02  0.24698200648E+02  0.19149574694E+03  0.17300000000E+03 0. -1.
         -6    1    1    2    0  502  0.36445921579E+02 -0.69305950539E+02  0.21435341056E+03  0.28637039756E+03  0.17300000000E+03 0. -1.
<mgrwt>
<rscale>  2 0.18989634E+03</rscale>
<asrwt>0</asrwt>
<pdfrwt beam="1">  1       21 0.55147519E-01 0.18989634E+03</pdfrwt>
<pdfrwt beam="2">  1       21 0.18370349E-01 0.18989634E+03</pdfrwt>
<totfact> 0.83952550E+04</totfact>
</mgrwt>
</event>
<event>
 4    1  0.4067306E+000  0.1747244E+03  0.7546771E-02  0.1173009E+00
         21   -1    0    0  501  502  0.00000000000E+00  0.00000000000E+00  0.17768175727E+03  0.17768175727E+03  0.00000000000E+00 0. -1.
         21   -1    0    0  502  503 -0.00000000000E+00 -0.00000000000E+00 -0.17785247534E+03  0.17785247534E+03  0.00000000000E+00 0. -1.
          6    1    1    2  501    0  0.12121843030E+02  0.21276347014E+02 -0.32834688483E+02  0.17778284166E+03  0.17300000000E+03 0.  1.
         -6    1    1    2    0  503 -0.12121843030E+02 -0.21276347014E+02  0.32663970408E+02  0.17775139095E+03  0.17300000000E+03 0.  1.
<mgrwt>
<rscale>  2 0.17472442E+03</rscale>
<asrwt>0</asrwt>
<pdfrwt beam="1">  1       21 0.27335655E-01 0.17472442E+03</pdfrwt>
<pdfrwt beam="2">  1       21 0.27361919E-01 0.17472442E+03</pdfrwt>
<totfact> 0.16347471E+05</totfact>
</mgrwt>
</event>
<event>
 4    1  0.4067306E+000  0.1938508E+03  0.7546771E-02  0.1155033E+00
         21   -1    0    0  503  502  0.00000000000E+00  0.00000000000E+00  0.14704612150E+03  0.14704612150E+03  0.00000000000E+00 0.  1.
         21   -1    0    0  501  503 -0.00000000000E+00 -0.00000000000E+00 -0.33909458544E+03  0.33909458544E+03  0.00000000000E+00 0.  1.
          6    1    1    2  501    0 -0.40828871464E+02 -0.77344318305E+02 -0.21667269975E+03  0.29073217768E+03  0.17300000000E+03 0. -1.
         -6    1    1    2    0  502  0.40828871464E+02  0.77344318305E+02  0.24624235806E+02  0.19540852926E+03  0.17300000000E+03 0. -1.
<mgrwt>
<rscale>  2 0.19385082E+03</rscale>
<asrwt>0</asrwt>
<pdfrwt beam="1">  1       21 0.22622480E-01 0.19385082E+03</pdfrwt>
<pdfrwt beam="2">  1       21 0.52168398E-01 0.19385082E+03</pdfrwt>
<totfact> 0.63819348E+04</totfact>
</mgrwt>
</event>
<event>
 4    1  0.4067306E+000  0.2019077E+03  0.7546771E-02  0.1148139E+00
         21   -1    0    0  501  502  0.00000000000E+00  0.00000000000E+00  0.94066375532E+03  0.94066375532E+03  0.00000000000E+00 0.  1.
         21   -1    0    0  502  503 -0.00000000000E+00 -0.00000000000E+00 -0.68467351357E+02  0.68467351357E+02  0.00000000000E+00 0.  1.
          6    1    1    2  501    0 -0.33180797365E+02 -0.98674993657E+02  0.74177630192E+03  0.76876446443E+03  0.17300000000E+03 0.  1.
         -6    1    1    2    0  503  0.33180797365E+02  0.98674993657E+02  0.13042010205E+03  0.24036664225E+03  0.17300000000E+03 0.  1.
<mgrwt>
<rscale>  2 0.20190770E+03</rscale>
<asrwt>0</asrwt>
<pdfrwt beam="1">  1       21 0.14471749E+00 0.20190770E+03</pdfrwt>
<pdfrwt beam="2">  1       21 0.10533439E-01 0.20190770E+03</pdfrwt>
<totfact> 0.24156782E+04</totfact>
</mgrwt>
</event>
<event>
 4    1  0.4067306E+000  0.2063661E+03  0.7546771E-02  0.1144476E+00
         21   -1    0    0  501  502  0.00000000000E+00  0.00000000000E+00  0.15767309863E+03  0.15767309863E+03  0.00000000000E+00 0. -1.
         21   -1    0    0  502  503 -0.00000000000E+00 -0.00000000000E+00 -0.32808006483E+03  0.32808006483E+03  0.00000000000E+00 0. -1.
          6    1    1    2  501    0  0.11112495093E+03 -0.17584091008E+02 -0.18730874140E+03  0.27869610615E+03  0.17300000000E+03 0. -1.
         -6    1    1    2    0  503 -0.11112495093E+03  0.17584091008E+02  0.16901775202E+02  0.20705705731E+03  0.17300000000E+03 0. -1.
<mgrwt>
<rscale>  2 0.20636607E+03</rscale>
<asrwt>0</asrwt>
<pdfrwt beam="1">  1       21 0.24257400E-01 0.20636607E+03</pdfrwt>
<pdfrwt beam="2">  1       21 0.50473855E-01 0.20636607E+03</pdfrwt>
<totfact> 0.59556919E+04</totfact>
</mgrwt>
</event>
<event>
 4    1  0.4067306E+000  0.1745388E+03  0.7546771E-02  0.1173196E+00
         21   -1    0    0  503  502  0.00000000000E+00  0.00000000000E+00  0.57449429346E+03  0.57449429346E+03  0.00000000000E+00 0.  1.
         21   -1    0    0  501  503 -0.00000000000E+00 -0.00000000000E+00 -0.69072823402E+02  0.69072823402E+02  0.00000000000E+00 0.  1.
          6    1    1    2  501    0 -0.19558229545E+02 -0.12339162090E+02  0.40780280494E+03  0.44358415998E+03  0.17300000000E+03 0.  1.
         -6    1    1    2    0  502  0.19558229545E+02  0.12339162090E+02  0.97618665109E+02  0.19998295688E+03  0.17300000000E+03 0.  1.
<mgrwt>
<rscale>  2 0.17453876E+03</rscale>
<asrwt>0</asrwt>
<pdfrwt beam="1">  1       21 0.88383734E-01 0.17453876E+03</pdfrwt>
<pdfrwt beam="2">  1       21 0.10626589E-01 0.17453876E+03</pdfrwt>
<totfact> 0.80456026E+04</totfact>
</mgrwt>
</event>
<event>
 4    1  0.4067306E+000  0.2121894E+03  0.7546771E-02  0.1139844E+00
         21   -1    0    0  503  502  0.00000000000E+00  0.00000000000E+00  0.35367057184E+03  0.35367057184E+03  0.00000000000E+00 0.  1.
         21   -1    0    0  501  503 -0.00000000000E+00 -0.00000000000E+00 -0.25828864359E+03  0.25828864359E+03  0.00000000000E+00 0.  1.
          6    1    1    2  501    0 -0.12149848323E+03  0.18261172232E+02 -0.17020383420E+03  0.27201782481E+03  0.17300000000E+03 0.  1.
         -6    1    1    2    0  502  0.12149848323E+03 -0.18261172232E+02  0.26558576245E+03  0.33994139062E+03  0.17300000000E+03 0.  1.
<mgrwt>
<rscale>  2 0.21218942E+03</rscale>
<asrwt>0</asrwt>
<pdfrwt beam="1">  1       21 0.54410857E-01 0.21218942E+03</pdfrwt>
<pdfrwt beam="2">  1       21 0.39736715E-01 0.21218942E+03</pdfrwt>
<totfact> 0.19253389E+04</totfact>
</mgrwt>
</event>
<event>
 4    1  0.4067306E+000  0.2712972E+03  0.7546771E-02  0.1100539E+00
         21   -1    0    0  501  502  0.00000000000E+00  0.00000000000E+00  0.10035123437E+04  0.10035123437E+04  0.00000000000E+00 0.  1.
         21   -1    0    0  502  503 -0.00000000000E+00 -0.00000000000E+00 -0.11291204855E+03  0.11291204855E+03  0.00000000000E+00 0.  1.
          6    1    1    2  501    0  0.20263456104E+03 -0.51111796542E+02  0.77574452508E+03  0.82181612863E+03  0.17300000000E+03 0.  1.
         -6    1    1    2    0  503 -0.20263456104E+03  0.51111796542E+02  0.11485577006E+03  0.29460826361E+03  0.17300000000E+03 0.  1.
<mgrwt>
<rscale>  2 0.27129722E+03</rscale>
<asrwt>0</asrwt>
<pdfrwt beam="1">  1       21 0.15438651E+00 0.27129722E+03</pdfrwt>
<pdfrwt beam="2">  1       21 0.17371085E-01 0.27129722E+03</pdfrwt>
<totfact> 0.78698700E+03</totfact>
</mgrwt>
</event>
<event>
 4    1  0.4067306E+000  0.1761497E+03  0.7546771E-02  0.1171582E+00
         21   -1    0    0  503  502  0.00000000000E+00  0.00000000000E+00  0.17342667173E+03  0.17342667173E+03  0.00000000000E+00 0. -1.
         21   -1    0    0  501  503 -0.00000000000E+00 -0.00000000000E+00 -0.20252506010E+03  0.20252506010E+03  0.00000000000E+00 0. -1.
          6    1    1    2  501    0  0.25660319050E+01  0.33062807666E+02  0.49631721638E+02  0.18300831009E+03  0.17300000000E+03 0. -1.
         -6    1    1    2    0  502 -0.25660319050E+01 -0.33062807666E+02 -0.78730110010E+02  0.19294342174E+03  0.17300000000E+03 0. -1.
<mgrwt>
<rscale>  2 0.17614975E+03</rscale>
<asrwt>0</asrwt>
<pdfrwt beam="1">  1       21 0.26681027E-01 0.17614975E+03</pdfrwt>
<pdfrwt beam="2">  1       21 0.31157701E-01 0.17614975E+03</pdfrwt>
<totfact> 0.13307372E+05</totfact>
</mgrwt>
</event>
<event>
 4    1  0.4067306E+000  0.2127842E+03  0.7546771E-02  0.1139380E+00
         21   -1    0    0  503  502  0.00000000000E+00  0.00000000000E+00  0.69170752127E+02  0.69170752127E+02  0.00000000000E+00 0.  1.
         21   -1    0    0  501  503 -0.00000000000E+00 -0.00000000000E+00 -0.13404797128E+04  0.13404797128E+04  0.00000000000E+00 0. -1.
          6    1    1    2  501    0  0.11808237054E+03  0.37478842549E+02 -0.11398334751E+04  0.11595246702E+04  0.17300000000E+03 0. -1.
         -6    1    1    2    0  502 -0.11808237054E+03 -0.37478842549E+02 -0.13147548556E+03  0.25012579470E+03  0.17300000000E+03 0.  1.
<mgrwt>
<rscale>  2 0.21278419E+03</rscale>
<asrwt>0</asrwt>
<pdfrwt beam="1">  1       21 0.10641655E-01 0.21278419E+03</pdfrwt>
<pdfrwt beam="2">  1       21 0.20622763E+00 0.21278419E+03</pdfrwt>
<totfact> 0.87571697E+03</totfact>
</mgrwt>
</event>
<event>
 4    1  0.4067306E+000  0.1783066E+03  0.7546771E-02  0.1169452E+00
         21   -1    0    0  503  502  0.00000000000E+00  0.00000000000E+00  0.32695490148E+02  0.32695490148E+02  0.00000000000E+00 0. -1.
         21   -1    0    0  501  503 -0.00000000000E+00 -0.00000000000E+00 -0.12130537982E+04  0.12130537982E+04  0.00000000000E+00 0. -1.
          6    1    1    2  501    0  0.54220144828E+01  0.42835058525E+02 -0.86760885629E+03  0.88574170501E+03  0.17300000000E+03 0. -1.
         -6    1    1    2    0  502 -0.54220144828E+01 -0.42835058525E+02 -0.31274945173E+03  0.36000758330E+03  0.17300000000E+03 0. -1.
<mgrwt>
<rscale>  2 0.17830659E+03</rscale>
<asrwt>0</asrwt>
<pdfrwt beam="1">  1       21 0.50300762E-02 0.17830659E+03</pdfrwt>
<pdfrwt beam="2">  1       21 0.18662363E+00 0.17830659E+03</pdfrwt>
<totfact> 0.44132201E+04</totfact>
</mgrwt>
</event>
<event>
 4    1  0.4067306E+000  0.1829633E+03  0.7546771E-02  0.1164966E+00
         21   -1    0    0  503  502  0.00000000000E+00  0.00000000000E+00  0.40752943076E+03  0.40752943076E+03  0.00000000000E+00 0. -1.
         21   -1    0    0  501  503 -0.00000000000E+00 -0.00000000000E+00 -0.15465066116E+03  0.15465066116E+03  0.00000000000E+00 0. -1.
          6    1    1    2  501    0 -0.41884407991E+02  0.42334971125E+02 -0.66030385607E+02  0.19451366337E+03  0.17300000000E+03 0. -1.
         -6    1    1    2    0  502  0.41884407991E+02 -0.42334971125E+02  0.31890915520E+03  0.36766642855E+03  0.17300000000E+03 0. -1.
<mgrwt>
<rscale>  2 0.18296326E+03</rscale>
<asrwt>0</asrwt>
<pdfrwt beam="1">  1       21 0.62696835E-01 0.18296326E+03</pdfrwt>
<pdfrwt beam="2">  1       21 0.23792410E-01 0.18296326E+03</pdfrwt>
<totfact> 0.39421991E+04</totfact>
</mgrwt>
</event>
<event>
 4    1  0.4067306E+000  0.2107942E+03  0.7546771E-02  0.1140939E+00
         21   -1    0    0  501  502  0.00000000000E+00  0.00000000000E+00  0.16440411022E+03  0.16440411022E+03  0.00000000000E+00 0.  1.
         21   -1    0    0  502  503 -0.00000000000E+00 -0.00000000000E+00 -0.27041518690E+03  0.27041518690E+03  0.00000000000E+00 0. -1.
          6    1    1    2  501    0 -0.65792519678E+02 -0.10087879172E+03 -0.57970109209E+02  0.21862003528E+03  0.17300000000E+03 0. -1.
         -6    1    1    2    0  503  0.65792519678E+02  0.10087879172E+03 -0.48040967476E+02  0.21619926184E+03  0.17300000000E+03 0.  1.
<mgrwt>
<rscale>  2 0.21079418E+03</rscale>
<asrwt>0</asrwt>
<pdfrwt beam="1">  1       21 0.25292940E-01 0.21079418E+03</pdfrwt>
<pdfrwt beam="2">  1       21 0.41602336E-01 0.21079418E+03</pdfrwt>
<totfact> 0.81773225E+04</totfact>
</mgrwt>
</event>
<event>
 4    1  0.4067306E+000  0.2691739E+03  0.7546771E-02  0.1101753E+00
         21   -1    0    0  503  502  0.00000000000E+00  0.00000000000E+00  0.12767965436E+04  0.12767965436E+04  0.00000000000E+00 0. -1.
         21   -1    0    0  501  503 -0.00000000000E+00 -0.00000000000E+00 -0.21179547384E+03  0.21179547384E+03  0.00000000000E+00 0.  1.
          6    1    1    2  501    0 -0.13017230646E+03 -0.15993987062E+03 -0.10432557522E+03  0.28868394002E+03  0.17300000000E+03 0.  1.
         -6    1    1    2    0  502  0.13017230646E+03  0.15993987062E+03  0.11693266449E+04  0.11999080774E+04  0.17300000000E+03 0. -1.
<mgrwt>
<rscale>  2 0.26917391E+03</rscale>
<asrwt>0</asrwt>
<pdfrwt beam="1">  1       21 0.19643023E+00 0.26917391E+03</pdfrwt>
<pdfrwt beam="2">  1       21 0.32583920E-01 0.26917391E+03</pdfrwt>
<totfact> 0.11946315E+03</totfact>
</mgrwt>
</event>
<event>
 4    1  0.4067306E+000  0.1776593E+03  0.7546771E-02  0.1170088E+00
         21   -1    0    0  501  502  0.00000000000E+00  0.00000000000E+00  0.42159365327E+03  0.42159365327E+03  0.00000000000E+00 0.  1.
         21   -1    0    0  502  503 -0.00000000000E+00 -0.00000000000E+00 -0.83545291832E+02  0.83545291832E+02  0.00000000000E+00 0.  1.
          6    1    1    2  501    0 -0.32982587089E+02 -0.23366305543E+02  0.25043340078E+03  0.30705003421E+03  0.17300000000E+03 0.  1.
         -6    1    1    2    0  503  0.32982587089E+02  0.23366305543E+02  0.87614960664E+02  0.19808891089E+03  0.17300000000E+03 0.  1.
<mgrwt>
<rscale>  2 0.17765932E+03</rscale>
<asrwt>0</asrwt>
<pdfrwt beam="1">  1       21 0.64860561E-01 0.17765932E+03</pdfrwt>
<pdfrwt beam="2">  1       21 0.12853122E-01 0.17765932E+03</pdfrwt>
<totfact> 0.11423478E+05</totfact>
</mgrwt>
</event>
<event>
 4    1  0.4067306E+000  0.2109203E+03  0.7546771E-02  0.1140839E+00
         21   -1    0    0  503  502  0.00000000000E+00  0.00000000000E+00  0.17716737036E+03  0.17716737036E+03  0.00000000000E+00 0. -1.
         21   -1    0    0  501  503 -0.00000000000E+00 -0.00000000000E+00 -0.53216453702E+03  0.53216453702E+03  0.00000000000E+00 0. -1.
          6    1    1    2  501    0 -0.87226484351E+01 -0.12034241268E+03 -0.43524741689E+03  0.48366072281E+03  0.17300000000E+03 0. -1.
         -6    1    1    2    0  502  0.87226484351E+01  0.12034241268E+03  0.80250250221E+02  0.22567118457E+03  0.17300000000E+03 0. -1.
<mgrwt>
<rscale>  2 0.21092032E+03</rscale>
<asrwt>0</asrwt>
<pdfrwt beam="1">  1       21 0.27256519E-01 0.21092032E+03</pdfrwt>
<pdfrwt beam="2">  1       21 0.81871467E-01 0.21092032E+03</pdfrwt>
<totfact> 0.16559689E+04</totfact>
</mgrwt>
</event>
<event>
 4    1  0.4067306E+000  0.3429886E+03  0.7546771E-02  0.1065530E+00
         21   -1    0    0  503  502  0.00000000000E+00  0.00000000000E+00  0.85669140256E+03  0.85669140256E+03  0.00000000000E+00 0. -1.
         21   -1    0    0  501  503 -0.00000000000E+00 -0.00000000000E+00 -0.15534129633E+03  0.15534129633E+03  0.00000000000E+00 0.  1.
          6    1    1    2  501    0 -0.29204744485E+03  0.49198283167E+02  0.17832571023E+03  0.38657630558E+03  0.17300000000E+03 0.  1.
         -6    1    1    2    0  502  0.29204744485E+03 -0.49198283167E+02  0.52302439600E+03  0.62545639330E+03  0.17300000000E+03 0. -1.
<mgrwt>
<rscale>  2 0.34298860E+03</rscale>
<asrwt>0</asrwt>
<pdfrwt beam="1">  1       21 0.13179867E+00 0.34298860E+03</pdfrwt>
<pdfrwt beam="2">  1       21 0.23898661E-01 0.34298860E+03</pdfrwt>
<totfact> 0.63006764E+03</totfact>
</mgrwt>
</event>
<event>
 4    1  0.4067306E+000  0.1755732E+03  0.7546771E-02  0.1172157E+00
         21   -1    0    0  501  502  0.00000000000E+00  0.00000000000E+00  0.48795561019E+02  0.48795561019E+02  0.00000000000E+00 0. -1.
         21   -1    0    0  502  503 -0.00000000000E+00 -0.00000000000E+00 -0.83980914648E+03  0.83980914648E+03  0.00000000000E+00 0. -1.
          6    1    1    2  501    0  0.14872740735E+02 -0.25995090089E+02 -0.17435234560E+03  0.24743622116E+03  0.17300000000E+03 0. -1.
         -6    1    1    2    0  503 -0.14872740735E+02  0.25995090089E+02 -0.61666123987E+03  0.64116848634E+03  0.17300000000E+03 0. -1.
<mgrwt>
<rscale>  2 0.17557318E+03</rscale>
<asrwt>0</asrwt>
<pdfrwt beam="1">  1       21 0.75070097E-02 0.17557318E+03</pdfrwt>
<pdfrwt beam="2">  1       21 0.12920140E+00 0.17557318E+03</pdfrwt>
<totfact> 0.59358726E+04</totfact>
</mgrwt>
</event>
<event>
 4    1  0.4067306E+000  0.1980745E+03  0.7546771E-02  0.1151374E+00
         21   -1    0    0  501  502  0.00000000000E+00  0.00000000000E+00  0.19098042668E+03  0.19098042668E+03  0.00000000000E+00 0. -1.
         21   -1    0    0  502  503 -0.00000000000E+00 -0.00000000000E+00 -0.20763330388E+03  0.20763330388E+03  0.00000000000E+00 0.  1.
          6    1    1    2  501    0  0.59706107475E+02  0.75760734943E+02 -0.28847738118E+02  0.20016418317E+03  0.17300000000E+03 0. -1.
         -6    1    1    2    0  503 -0.59706107475E+02 -0.75760734943E+02  0.12194860913E+02  0.19844954740E+03  0.17300000000E+03 0.  1.
<mgrwt>
<rscale>  2 0.19807450E+03</rscale>
<asrwt>0</asrwt>
<pdfrwt beam="1">  1       21 0.29381604E-01 0.19807450E+03</pdfrwt>
<pdfrwt beam="2">  1       21 0.31943585E-01 0.19807450E+03</pdfrwt>
<totfact> 0.10436590E+05</totfact>
</mgrwt>
</event>
<event>
 4    1  0.4067306E+000  0.2295906E+03  0.7546771E-02  0.1126928E+00
         21   -1    0    0  501  502  0.00000000000E+00  0.00000000000E+00  0.33218295681E+03  0.33218295681E+03  0.00000000000E+00 0. -1.
         21   -1    0    0  502  503 -0.00000000000E+00 -0.00000000000E+00 -0.55942285090E+03  0.55942285090E+03  0.00000000000E+00 0.  1.
          6    1    1    2  501    0 -0.14244056079E+03  0.49935187896E+02  0.26369497365E+03  0.34963820655E+03  0.17300000000E+03 0. -1.
         -6    1    1    2    0  503  0.14244056079E+03 -0.49935187896E+02 -0.49093486774E+03  0.54196760116E+03  0.17300000000E+03 0.  1.
<mgrwt>
<rscale>  2 0.22959058E+03</rscale>
<asrwt>0</asrwt>
<pdfrwt beam="1">  1       21 0.51105071E-01 0.22959058E+03</pdfrwt>
<pdfrwt beam="2">  1       21 0.86065053E-01 0.22959058E+03</pdfrwt>
<totfact> 0.41214003E+03</totfact>
</mgrwt>
</event>
<event>
 4    1  0.4067306E+000  0.2519428E+03  0.7546771E-02  0.1112083E+00
         21   -1    0    0  501  502  0.00000000000E+00  0.00000000000E+00  0.63923206387E+03  0.63923206387E+03  0.00000000000E+00 0.  1.
         21   -1    0    0  502  503 -0.00000000000E+00 -0.00000000000E+00 -0.14869135674E+03  0.14869135674E+03  0.00000000000E+00 0.  1.
          6    1    1    2  501    0 -0.11544016294E+03 -0.14219615485E+03  0.47233029666E+03  0.53532334791E+03  0.17300000000E+03 0.  1.
         -6    1    1    2    0  503  0.11544016294E+03  0.14219615485E+03  0.18210410462E+02  0.25260007269E+03  0.17300000000E+03 0.  1.
<mgrwt>
<rscale>  2 0.25194281E+03</rscale>
<asrwt>0</asrwt>
<pdfrwt beam="1">  1       21 0.98343393E-01 0.25194281E+03</pdfrwt>
<pdfrwt beam="2">  1       21 0.22875594E-01 0.25194281E+03</pdfrwt>
<totfact> 0.14785607E+04</totfact>
</mgrwt>
</event>
<event>
 4    1  0.4067306E+000  0.2294436E+03  0.7546771E-02  0.1127032E+00
         21   -1    0    0  503  502  0.00000000000E+00  0.00000000000E+00  0.42708870220E+02  0.42708870220E+02  0.00000000000E+00 0.  1.
         21   -1    0    0  501  503 -0.00000000000E+00 -0.00000000000E+00 -0.13595504933E+04  0.13595504933E+04  0.00000000000E+00 0. -1.
          6    1    1    2  501    0  0.13871790527E+03 -0.58929709557E+02 -0.87264140661E+03  0.90230116505E+03  0.17300000000E+03 0. -1.
         -6    1    1    2    0  502 -0.13871790527E+03  0.58929709557E+02 -0.44420021648E+03  0.49995819849E+03  0.17300000000E+03 0.  1.
<mgrwt>
<rscale>  2 0.22944361E+03</rscale>
<asrwt>0</asrwt>
<pdfrwt beam="1">  1       21 0.65705965E-02 0.22944361E+03</pdfrwt>
<pdfrwt beam="2">  1       21 0.20916158E+00 0.22944361E+03</pdfrwt>
<totfact> 0.19282279E+04</totfact>
</mgrwt>
</event>
<event>
 4    1  0.4067306E+000  0.1749974E+03  0.7546771E-02  0.1172734E+00
         21   -1    0    0  501  502  0.00000000000E+00  0.00000000000E+00  0.18863783513E+03  0.18863783513E+03  0.00000000000E+00 0.  1.
         21   -1    0    0  502  503 -0.00000000000E+00 -0.00000000000E+00 -0.19094907111E+03  0.19094907111E+03  0.00000000000E+00 0.  1.
          6    1    1    2  501    0  0.26305056598E+02 -0.17672391862E+01  0.72304169093E+02  0.18934616977E+03  0.17300000000E+03 0. -1.
         -6    1    1    2    0  503 -0.26305056598E+02  0.17672391862E+01 -0.74615405076E+02  0.19024073647E+03  0.17300000000E+03 0. -1.
<mgrwt>
<rscale>  2 0.17499737E+03</rscale>
<asrwt>0</asrwt>
<pdfrwt beam="1">  1       21 0.29021206E-01 0.17499737E+03</pdfrwt>
<pdfrwt beam="2">  1       21 0.29376780E-01 0.17499737E+03</pdfrwt>
<totfact> 0.12694967E+05</totfact>
</mgrwt>
</event>
<event>
 4    1  0.4067306E+000  0.3516840E+03  0.7546771E-02  0.1061926E+00
         21   -1    0    0  503  502  0.00000000000E+00  0.00000000000E+00  0.22373594606E+03  0.22373594606E+03  0.00000000000E+00 0. -1.
         21   -1    0    0  501  503 -0.00000000000E+00 -0.00000000000E+00 -0.96773762179E+03  0.96773762179E+03  0.00000000000E+00 0. -1.
          6    1    1    2  501    0  0.30385598850E+03  0.37737981511E+02 -0.76209199711E+03  0.83932462674E+03  0.17300000000E+03 0. -1.
         -6    1    1    2    0  502 -0.30385598850E+03 -0.37737981511E+02  0.18090321382E+02  0.35214894111E+03  0.17300000000E+03 0. -1.
<mgrwt>
<rscale>  2 0.35168397E+03</rscale>
<asrwt>0</asrwt>
<pdfrwt beam="1">  1       21 0.34420915E-01 0.35168397E+03</pdfrwt>
<pdfrwt beam="2">  1       21 0.14888271E+00 0.35168397E+03</pdfrwt>
<totfact> 0.22212663E+03</totfact>
</mgrwt>
</event>
<event>
 4    1  0.4067306E+000  0.2100600E+03  0.7546771E-02  0.1141518E+00
         21   -1    0    0  501  502  0.00000000000E+00  0.00000000000E+00  0.27092491085E+03  0.27092491085E+03  0.00000000000E+00 0.  1.
         21   -1    0    0  502  503 -0.00000000000E+00 -0.00000000000E+00 -0.22843523741E+03  0.22843523741E+03  0.00000000000E+00 0.  1.
          6    1    1    2  501    0 -0.11913339252E+03  0.18584743038E+01  0.15501001732E+03  0.26106191720E+03  0.17300000000E+03 0.  1.
         -6    1    1    2    0  503  0.11913339252E+03 -0.18584743038E+01 -0.11252034389E+03  0.23829823107E+03  0.17300000000E+03 0.  1.
<mgrwt>
<rscale>  2 0.21006004E+03</rscale>
<asrwt>0</asrwt>
<pdfrwt beam="1">  1       21 0.41680755E-01 0.21006004E+03</pdfrwt>
<pdfrwt beam="2">  1       21 0.35143883E-01 0.21006004E+03</pdfrwt>
<totfact> 0.42879020E+04</totfact>
</mgrwt>
</event>
<event>
 4    1  0.4067306E+000  0.2164847E+03  0.7546771E-02  0.1136531E+00
         21   -1    0    0  501  502  0.00000000000E+00  0.00000000000E+00  0.42236615698E+02  0.42236615698E+02  0.00000000000E+00 0.  1.
         21   -1    0    0  502  503 -0.00000000000E+00 -0.00000000000E+00 -0.13974180774E+04  0.13974180774E+04  0.00000000000E+00 0.  1.
          6    1    1    2  501    0 -0.12868892197E+03 -0.19385520278E+02 -0.35090798819E+03  0.41231305244E+03  0.17300000000E+03 0.  1.
         -6    1    1    2    0  503  0.12868892197E+03  0.19385520278E+02 -0.10042734735E+04  0.10273416407E+04  0.17300000000E+03 0.  1.
<mgrwt>
<rscale>  2 0.21648473E+03</rscale>
<asrwt>0</asrwt>
<pdfrwt beam="1">  1       21 0.64979415E-02 0.21648473E+03</pdfrwt>
<pdfrwt beam="2">  1       21 0.21498738E+00 0.21648473E+03</pdfrwt>
<totfact> 0.18235404E+04</totfact>
</mgrwt>
</event>
<event>
 4    1  0.4067306E+000  0.1944326E+03  0.7546771E-02  0.1154523E+00
         21   -1    0    0  501  502  0.00000000000E+00  0.00000000000E+00  0.31109886377E+03  0.31109886377E+03  0.00000000000E+00 0.  1.
         21   -1    0    0  502  503 -0.00000000000E+00 -0.00000000000E+00 -0.14356722888E+03  0.14356722888E+03  0.00000000000E+00 0. -1.
          6    1    1    2  501    0  0.55292245884E+02  0.69410529082E+02  0.17285673729E+03  0.26016053818E+03  0.17300000000E+03 0.  1.
         -6    1    1    2    0  503 -0.55292245884E+02 -0.69410529082E+02 -0.53251023944E+01  0.19450555447E+03  0.17300000000E+03 0.  1.
<mgrwt>
<rscale>  2 0.19443265E+03</rscale>
<asrwt>0</asrwt>
<pdfrwt beam="1">  1       21 0.47861364E-01 0.19443265E+03</pdfrwt>
<pdfrwt beam="2">  1       21 0.22087266E-01 0.19443265E+03</pdfrwt>
<totfact> 0.79893187E+04</totfact>
</mgrwt>
</event>
<event>
 4    1  0.4067306E+000  0.2804000E+03  0.7546771E-02  0.1095471E+00
         21   -1    0    0  501  502  0.00000000000E+00  0.00000000000E+00  0.45223100524E+03  0.45223100524E+03  0.00000000000E+00 0. -1.
         21   -1    0    0  502  503 -0.00000000000E+00 -0.00000000000E+00 -0.27182212797E+03  0.27182212797E+03  0.00000000000E+00 0.  1.
          6    1    1    2  501    0 -0.14634717904E+03 -0.16515955631E+03  0.30753990668E+03  0.41617901203E+03  0.17300000000E+03 0. -1.
         -6    1    1    2    0  503  0.14634717904E+03  0.16515955631E+03 -0.12713102941E+03  0.30787412118E+03  0.17300000000E+03 0.  1.
<mgrwt>
<rscale>  2 0.28040003E+03</rscale>
<asrwt>0</asrwt>
<pdfrwt beam="1">  1       21 0.69574001E-01 0.28040003E+03</pdfrwt>
<pdfrwt beam="2">  1       21 0.41818789E-01 0.28040003E+03</pdfrwt>
<totfact> 0.98171955E+03</totfact>
</mgrwt>
</event>
<event>
 4    1  0.4067306E+000  0.1976973E+03  0.7546771E-02  0.1151696E+00
         21   -1    0    0  503  502  0.00000000000E+00  0.00000000000E+00  0.38710593057E+03  0.38710593057E+03  0.00000000000E+00 0. -1.
         21   -1    0    0  501  503 -0.00000000000E+00 -0.00000000000E+00 -0.28330848416E+03  0.28330848416E+03  0.00000000000E+00 0. -1.
          6    1    1    2  501    0  0.42579882353E+02 -0.85686600732E+02 -0.21702456099E+03  0.29357094543E+03  0.17300000000E+03 0. -1.
         -6    1    1    2    0  502 -0.42579882353E+02  0.85686600732E+02  0.32082200740E+03  0.37684346931E+03  0.17300000000E+03 0. -1.
<mgrwt>
<rscale>  2 0.19769734E+03</rscale>
<asrwt>0</asrwt>
<pdfrwt beam="1">  1       21 0.59554758E-01 0.19769734E+03</pdfrwt>
<pdfrwt beam="2">  1       21 0.43585921E-01 0.19769734E+03</pdfrwt>
<totfact> 0.13276368E+04</totfact>
</mgrwt>
</event>
<event>
 4    1  0.4067306E+000  0.2115807E+03  0.7546771E-02  0.1140320E+00
         21   -1    0    0  503  502  0.00000000000E+00  0.00000000000E+00  0.31622741750E+03  0.31622741750E+03  0.00000000000E+00 0.  1.
         21   -1    0    0  501  503 -0.00000000000E+00 -0.00000000000E+00 -0.15004081993E+03  0.15004081993E+03  0.00000000000E+00 0.  1.
          6    1    1    2  501    0 -0.61183548347E+02  0.10532789952E+03  0.27679281472E+02  0.21338354114E+03  0.17300000000E+03 0.  1.
         -6    1    1    2    0  502  0.61183548347E+02 -0.10532789952E+03  0.13850731609E+03  0.25288469629E+03  0.17300000000E+03 0.  1.
<mgrwt>
<rscale>  2 0.21158070E+03</rscale>
<asrwt>0</asrwt>
<pdfrwt beam="1">  1       21 0.48650372E-01 0.21158070E+03</pdfrwt>
<pdfrwt beam="2">  1       21 0.23083203E-01 0.21158070E+03</pdfrwt>
<totfact> 0.70512046E+04</totfact>
</mgrwt>
</event>
<event>
 4    1  0.4067306E+000  0.2428738E+03  0.7546771E-02  0.1117893E+00
         21   -1    0    0  501  502  0.00000000000E+00  0.00000000000E+00  0.60343532080E+03  0.60343532080E+03  0.00000000000E+00 0. -1.
         21   -1    0    0  502  503 -0.00000000000E+00 -0.00000000000E+00 -0.17570299175E+03  0.17570299175E+03  0.00000000000E+00 0.  1.
          6    1    1    2  501    0 -0.20113086423E+02  0.16927532885E+03 -0.45613151824E+02  0.24711987541E+03  0.17300000000E+03 0.  1.
         -6    1    1    2    0  503  0.20113086423E+02 -0.16927532885E+03  0.47334548087E+03  0.53201843714E+03  0.17300000000E+03 0. -1.
<mgrwt>
<rscale>  2 0.24287378E+03</rscale>
<asrwt>0</asrwt>
<pdfrwt beam="1">  1       21 0.92836202E-01 0.24287378E+03</pdfrwt>
<pdfrwt beam="2">  1       21 0.27031230E-01 0.24287378E+03</pdfrwt>
<totfact> 0.12356288E+04</totfact>
</mgrwt>
</event>
<event>
 4    1  0.4067306E+000  0.2955310E+03  0.7546771E-02  0.1087496E+00
         21   -1    0    0  501  502  0.00000000000E+00  0.00000000000E+00  0.13299444154E+03  0.13299444154E+03  0.00000000000E+00 0. -1.
         21   -1    0    0  502  503 -0.00000000000E+00 -0.00000000000E+00 -0.75195607071E+03  0.75195607071E+03  0.00000000000E+00 0. -1.
          6    1    1    2  501    0  0.20488645065E+03 -0.12422196822E+03 -0.46695890492E+03  0.55262028006E+03  0.17300000000E+03 0. -1.
         -6    1    1    2    0  503 -0.20488645065E+03  0.12422196822E+03 -0.15200272425E+03  0.33233023219E+03  0.17300000000E+03 0. -1.
<mgrwt>
<rscale>  2 0.29553097E+03</rscale>
<asrwt>0</asrwt>
<pdfrwt beam="1">  1       21 0.20460684E-01 0.29553097E+03</pdfrwt>
<pdfrwt beam="2">  1       21 0.11568555E+00 0.29553097E+03</pdfrwt>
<totfact> 0.12049795E+04</totfact>
</mgrwt>
</event>
<event>
 4    1  0.4067306E+000  0.4813673E+03  0.7546771E-02  0.1018760E+00
         21   -1    0    0  503  502  0.00000000000E+00  0.00000000000E+00  0.57316988103E+03  0.57316988103E+03  0.00000000000E+00 0.  1.
         21   -1    0    0  501  503 -0.00000000000E+00 -0.00000000000E+00 -0.20439681597E+04  0.20439681597E+04  0.00000000000E+00 0. -1.
          6    1    1    2  501    0  0.44530651755E+03  0.59055408942E+02 -0.19074372829E+04  0.19672395442E+04  0.17300000000E+03 0. -1.
         -6    1    1    2    0  502 -0.44530651755E+03 -0.59055408942E+02  0.43663900420E+03  0.64989849660E+03  0.17300000000E+03 0.  1.
<mgrwt>
<rscale>  2 0.48136726E+03</rscale>
<asrwt>0</asrwt>
<pdfrwt beam="1">  1       21 0.88179982E-01 0.48136726E+03</pdfrwt>
<pdfrwt beam="2">  1       21 0.31445664E+00 0.48136726E+03</pdfrwt>
<totfact> 0.22652374E+01</totfact>
</mgrwt>
</event>
<event>
 4    1  0.4067306E+000  0.1934901E+03  0.7546771E-02  0.1155351E+00
         21   -1    0    0  501  502  0.00000000000E+00  0.00000000000E+00  0.14380368285E+03  0.14380368285E+03  0.00000000000E+00 0.  1.
         21   -1    0    0  502  503 -0.00000000000E+00 -0.00000000000E+00 -0.43536991056E+03  0.43536991056E+03  0.00000000000E+00 0.  1.
          6    1    1    2  501    0  0.50335829270E+02 -0.70538722752E+02  0.37828812692E+02  0.19715330630E+03  0.17300000000E+03 0.  1.
         -6    1    1    2    0  503 -0.50335829270E+02  0.70538722752E+02 -0.32939504041E+03  0.38202028711E+03  0.17300000000E+03 0.  1.
<mgrwt>
<rscale>  2 0.19349007E+03</rscale>
<asrwt>0</asrwt>
<pdfrwt beam="1">  1       21 0.22123644E-01 0.19349007E+03</pdfrwt>
<pdfrwt beam="2">  1       21 0.66979986E-01 0.19349007E+03</pdfrwt>
<totfact> 0.38976049E+04</totfact>
</mgrwt>
</event>
<event>
 4    1  0.4067306E+000  0.1777156E+03  0.7546771E-02  0.1170032E+00
         21   -1    0    0  501  502  0.00000000000E+00  0.00000000000E+00  0.73857466704E+02  0.73857466704E+02  0.00000000000E+00 0. -1.
         21   -1    0    0  502  503 -0.00000000000E+00 -0.00000000000E+00 -0.51193340978E+03  0.51193340978E+03  0.00000000000E+00 0. -1.
          6    1    1    2  501    0 -0.26175569665E+02 -0.31123798116E+02 -0.33790377778E+03  0.38178765603E+03  0.17300000000E+03 0. -1.
         -6    1    1    2    0  503  0.26175569665E+02  0.31123798116E+02 -0.10017216530E+03  0.20400322046E+03  0.17300000000E+03 0. -1.
<mgrwt>
<rscale>  2 0.17771565E+03</rscale>
<asrwt>0</asrwt>
<pdfrwt beam="1">  1       21 0.11362687E-01 0.17771565E+03</pdfrwt>
<pdfrwt beam="2">  1       21 0.78758985E-01 0.17771565E+03</pdfrwt>
<totfact> 0.92722801E+04</totfact>
</mgrwt>
</event>
<event>
 4    1  0.4067306E+000  0.1762141E+03  0.7546771E-02  0.1171518E+00
         21   -1    0    0  503  502  0.00000000000E+00  0.00000000000E+00  0.19429967941E+04  0.19429967941E+04  0.00000000000E+00 0. -1.
         21   -1    0    0  501  503 -0.00000000000E+00 -0.00000000000E+00 -0.19918731302E+02  0.19918731302E+02  0.00000000000E+00 0. -1.
          6    1    1    2  501    0  0.29680852799E+02 -0.15539396652E+02  0.52517129662E+03  0.55394613156E+03  0.17300000000E+03 0. -1.
         -6    1    1    2    0  502 -0.29680852799E+02  0.15539396652E+02  0.13979067662E+04  0.14089693939E+04  0.17300000000E+03 0. -1.
<mgrwt>
<rscale>  2 0.17621415E+03</rscale>
<asrwt>0</asrwt>
<pdfrwt beam="1">  1       21 0.29892244E+00 0.17621415E+03</pdfrwt>
<pdfrwt beam="2">  1       21 0.30644217E-02 0.17621415E+03</pdfrwt>
<totfact> 0.21512151E+04</totfact>
</mgrwt>
</event>
<event>
 4    1  0.4067306E+000  0.1965960E+03  0.7546771E-02  0.1152643E+00
         21   -1    0    0  501  502  0.00000000000E+00  0.00000000000E+00  0.20717841564E+03  0.20717841564E+03  0.00000000000E+00 0. -1.
         21   -1    0    0  502  503 -0.00000000000E+00 -0.00000000000E+00 -0.24488937027E+03  0.24488937027E+03  0.00000000000E+00 0. -1.
          6    1    1    2  501    0  0.74666461415E+02 -0.56088473033E+02  0.91464444690E+02  0.21683113686E+03  0.17300000000E+03 0. -1.
         -6    1    1    2    0  503 -0.74666461415E+02  0.56088473033E+02 -0.12917539933E+03  0.23523664906E+03  0.17300000000E+03 0. -1.
<mgrwt>
<rscale>  2 0.19659603E+03</rscale>
<asrwt>0</asrwt>
<pdfrwt beam="1">  1       21 0.31873602E-01 0.19659603E+03</pdfrwt>
<pdfrwt beam="2">  1       21 0.37675288E-01 0.19659603E+03</pdfrwt>
<totfact> 0.64199324E+04</totfact>
</mgrwt>
</event>
<event>
 4    1  0.4067306E+000  0.2179352E+03  0.7546771E-02  0.1135432E+00
         21   -1    0    0  503  502  0.00000000000E+00  0.00000000000E+00  0.78133873961E+02  0.78133873961E+02  0.00000000000E+00 0.  1.
         21   -1    0    0  501  503 -0.00000000000E+00 -0.00000000000E+00 -0.72981534089E+03  0.72981534089E+03  0.00000000000E+00 0. -1.
          6    1    1    2  501    0 -0.67979678371E+02  0.11377839169E+03 -0.49096781403E+03  0.53716399126E+03  0.17300000000E+03 0. -1.
         -6    1    1    2    0  502  0.67979678371E+02 -0.11377839169E+03 -0.16071365289E+03  0.27078522359E+03  0.17300000000E+03 0.  1.
<mgrwt>
<rscale>  2 0.21793522E+03</rscale>
<asrwt>0</asrwt>
<pdfrwt beam="1">  1       21 0.12020596E-01 0.21793522E+03</pdfrwt>
<pdfrwt beam="2">  1       21 0.11227929E+00 0.21793522E+03</pdfrwt>
<totfact> 0.35854412E+04</totfact>
</mgrwt>
</event>
<event>
 4    1  0.4067306E+000  0.3721005E+03  0.7546771E-02  0.1053893E+00
         21   -1    0    0  501  502  0.00000000000E+00  0.00000000000E+00  0.27972312891E+03  0.27972312891E+03  0.00000000000E+00 0.  1.
         21   -1    0    0  502  503 -0.00000000000E+00 -0.00000000000E+00 -0.50166951296E+03  0.50166951296E+03  0.00000000000E+00 0. -1.
          6    1    1    2  501    0  0.27916617841E+03  0.17491726559E+03 -0.15607140284E+03  0.40350599469E+03  0.17300000000E+03 0.  1.
         -6    1    1    2    0  503 -0.27916617841E+03 -0.17491726559E+03 -0.65874981210E+02  0.37788664718E+03  0.17300000000E+03 0.  1.
<mgrwt>
<rscale>  2 0.37210053E+03</rscale>
<asrwt>0</asrwt>
<pdfrwt beam="1">  1       21 0.43034328E-01 0.37210053E+03</pdfrwt>
<pdfrwt beam="2">  1       21 0.77179924E-01 0.37210053E+03</pdfrwt>
<totfact> 0.70415609E+03</totfact>
</mgrwt>
</event>
<event>
 4    1  0.4067306E+000  0.2176941E+03  0.7546771E-02  0.1135614E+00
         21   -1    0    0  501  502  0.00000000000E+00  0.00000000000E+00  0.60369876937E+02  0.60369876937E+02  0.00000000000E+00 0. -1.
         21   -1    0    0  502  503 -0.00000000000E+00 -0.00000000000E+00 -0.84030230855E+03  0.84030230855E+03  0.00000000000E+00 0. -1.
          6    1    1    2  501    0  0.11601394777E+03 -0.63265360193E+02 -0.27444404569E+03  0.35030026562E+03  0.17300000000E+03 0.  1.
         -6    1    1    2    0  503 -0.11601394777E+03  0.63265360193E+02 -0.50548838592E+03  0.55037191987E+03  0.17300000000E+03 0.  1.
<mgrwt>
<rscale>  2 0.21769415E+03</rscale>
<asrwt>0</asrwt>
<pdfrwt beam="1">  1       21 0.92876739E-02 0.21769415E+03</pdfrwt>
<pdfrwt beam="2">  1       21 0.12927727E+00 0.21769415E+03</pdfrwt>
<totfact> 0.39961856E+04</totfact>
</mgrwt>
</event>
<event>
 4    1  0.4067306E+000  0.2445036E+03  0.7546771E-02  0.1116829E+00
         21   -1    0    0  501  502  0.00000000000E+00  0.00000000000E+00  0.21680126510E+03  0.21680126510E+03  0.00000000000E+00 0. -1.
         21   -1    0    0  502  503 -0.00000000000E+00 -0.00000000000E+00 -0.33210187865E+03  0.33210187865E+03  0.00000000000E+00 0.  1.
          6    1    1    2  501    0 -0.43759883641E+02  0.16714689984E+03  0.55407584115E+02  0.25070303931E+03  0.17300000000E+03 0. -1.
         -6    1    1    2    0  503  0.43759883641E+02 -0.16714689984E+03 -0.17070819767E+03  0.29820010445E+03  0.17300000000E+03 0.  1.
<mgrwt>
<rscale>  2 0.24450361E+03</rscale>
<asrwt>0</asrwt>
<pdfrwt beam="1">  1       21 0.33354041E-01 0.24450361E+03</pdfrwt>
<pdfrwt beam="2">  1       21 0.51092597E-01 0.24450361E+03</pdfrwt>
<totfact> 0.30715703E+04</totfact>
</mgrwt>
</event>
<event>
 4    1  0.4067306E+000  0.1818607E+03  0.7546771E-02  0.1166014E+00
         21   -1    0    0  503  502  0.00000000000E+00  0.00000000000E+00  0.56060127770E+02  0.56060127770E+02  0.00000000000E+00 0.  1.
         21   -1    0    0  501  503 -0.00000000000E+00 -0.00000000000E+00 -0.62957473970E+03  0.62957473970E+03  0.00000000000E+00 0.  1.
          6    1    1    2  501    0 -0.22167940160E+02  0.51506320848E+02 -0.37274954911E+03  0.41474756783E+03  0.17300000000E+03 0.  1.
         -6    1    1    2    0  502  0.22167940160E+02 -0.51506320848E+02 -0.20076506283E+03  0.27088729965E+03  0.17300000000E+03 0.  1.
<mgrwt>
<rscale>  2 0.18186071E+03</rscale>
<asrwt>0</asrwt>
<pdfrwt beam="1">  1       21 0.86246353E-02 0.18186071E+03</pdfrwt>
<pdfrwt beam="2">  1       21 0.96857649E-01 0.18186071E+03</pdfrwt>
<totfact> 0.93586012E+04</totfact>
</mgrwt>
</event>
<event>
 4    1  0.4067306E+000  0.2228824E+03  0.7546771E-02  0.1131752E+00
         21   -1    0    0  503  502  0.00000000000E+00  0.00000000000E+00  0.14034284030E+03  0.14034284030E+03  0.00000000000E+00 0.  1.
         21   -1    0    0  501  503 -0.00000000000E+00 -0.00000000000E+00 -0.10348602380E+04  0.10348602380E+04  0.00000000000E+00 0. -1.
          6    1    1    2  501    0  0.76773843938E+02 -0.11770025265E+03 -0.92388933315E+03  0.95039364081E+03  0.17300000000E+03 0. -1.
         -6    1    1    2    0  502 -0.76773843938E+02  0.11770025265E+03  0.29371935461E+02  0.22480943748E+03  0.17300000000E+03 0.  1.
<mgrwt>
<rscale>  2 0.22288242E+03</rscale>
<asrwt>0</asrwt>
<pdfrwt beam="1">  1       21 0.21591207E-01 0.22288242E+03</pdfrwt>
<pdfrwt beam="2">  1       21 0.15920926E+00 0.22288242E+03</pdfrwt>
<totfact> 0.49761901E+03</totfact>
</mgrwt>
</event>
<event>
 4    1  0.4067306E+000  0.2110648E+03  0.7546771E-02  0.1140726E+00
         21   -1    0    0  503  502  0.00000000000E+00  0.00000000000E+00  0.88484195237E+02  0.88484195237E+02  0.00000000000E+00 0. -1.
         21   -1    0    0  501  503 -0.00000000000E+00 -0.00000000000E+00 -0.50993629493E+03  0.50993629493E+03  0.00000000000E+00 0. -1.
          6    1    1    2  501    0  0.72169290405E+02 -0.97010068930E+02 -0.24444245399E+03  0.32295583795E+03  0.17300000000E+03 0. -1.
         -6    1    1    2    0  502 -0.72169290405E+02  0.97010068930E+02 -0.17700964571E+03  0.27546465222E+03  0.17300000000E+03 0. -1.
<mgrwt>
<rscale>  2 0.21106482E+03</rscale>
<asrwt>0</asrwt>
<pdfrwt beam="1">  1       21 0.13612953E-01 0.21106482E+03</pdfrwt>
<pdfrwt beam="2">  1       21 0.78451738E-01 0.21106482E+03</pdfrwt>
<totfact> 0.66668504E+04</totfact>
</mgrwt>
</event>
<event>
 4    1  0.4067306E+000  0.2177617E+03  0.7546771E-02  0.1135563E+00
         21   -1    0    0  503  502  0.00000000000E+00  0.00000000000E+00  0.74359275285E+03  0.74359275285E+03  0.00000000000E+00 0. -1.
         21   -1    0    0  501  503 -0.00000000000E+00 -0.00000000000E+00 -0.12100629438E+03  0.12100629438E+03  0.00000000000E+00 0. -1.
          6    1    1    2  501    0  0.23410990653E+02 -0.13016556289E+03  0.13982753390E+02  0.21821014100E+03  0.17300000000E+03 0. -1.
         -6    1    1    2    0  502 -0.23410990653E+02  0.13016556289E+03  0.60860370508E+03  0.64638890622E+03  0.17300000000E+03 0. -1.
<mgrwt>
<rscale>  2 0.21776168E+03</rscale>
<asrwt>0</asrwt>
<pdfrwt beam="1">  1       21 0.11439888E+00 0.21776168E+03</pdfrwt>
<pdfrwt beam="2">  1       21 0.18616354E-01 0.21776168E+03</pdfrwt>
<totfact> 0.15411497E+04</totfact>
</mgrwt>
</event>
<event>
 4    1  0.4067306E+000  0.3163330E+03  0.7546771E-02  0.1077349E+00
         21   -1    0    0  503  502  0.00000000000E+00  0.00000000000E+00  0.18245382068E+04  0.18245382068E+04  0.00000000000E+00 0. -1.
         21   -1    0    0  501  503 -0.00000000000E+00 -0.00000000000E+00 -0.42559374134E+03  0.42559374134E+03  0.00000000000E+00 0.  1.
          6    1    1    2  501    0  0.13515466250E+03  0.22775154410E+03 -0.35060271319E+03  0.47221691110E+03  0.17300000000E+03 0.  1.
         -6    1    1    2    0  502 -0.13515466250E+03 -0.22775154410E+03  0.17495471786E+04  0.17779150370E+04  0.17300000000E+03 0. -1.
<mgrwt>
<rscale>  2 0.31633297E+03</rscale>
<asrwt>0</asrwt>
<pdfrwt beam="1">  1       21 0.28069818E+00 0.31633297E+03</pdfrwt>
<pdfrwt beam="2">  1       21 0.65475961E-01 0.31633297E+03</pdfrwt>
<totfact> 0.81135536E+01</totfact>
</mgrwt>
</event>
<event>
 4    1  0.4067306E+000  0.2008296E+03  0.7546771E-02  0.1149041E+00
         21   -1    0    0  501  502  0.00000000000E+00  0.00000000000E+00  0.18991944069E+03  0.18991944069E+03  0.00000000000E+00 0. -1.
         21   -1    0    0  502  503 -0.00000000000E+00 -0.00000000000E+00 -0.27129301328E+03  0.27129301328E+03  0.00000000000E+00 0. -1.
          6    1    1    2  501    0  0.36475619838E+02  0.95252671515E+02  0.66788051792E+02  0.21164400803E+03  0.17300000000E+03 0. -1.
         -6    1    1    2    0  503 -0.36475619838E+02 -0.95252671515E+02 -0.14816162438E+03  0.24956844595E+03  0.17300000000E+03 0. -1.
<mgrwt>
<rscale>  2 0.20082963E+03</rscale>
<asrwt>0</asrwt>
<pdfrwt beam="1">  1       21 0.29218375E-01 0.20082963E+03</pdfrwt>
<pdfrwt beam="2">  1       21 0.41737387E-01 0.20082963E+03</pdfrwt>
<totfact> 0.61759661E+04</totfact>
</mgrwt>
</event>
<event>
 4    1  0.4067306E+000  0.2159003E+03  0.7546771E-02  0.1136977E+00
         21   -1    0    0  503  502  0.00000000000E+00  0.00000000000E+00  0.20015800462E+03  0.20015800462E+03  0.00000000000E+00 0. -1.
         21   -1    0    0  501  503 -0.00000000000E+00 -0.00000000000E+00 -0.38277937308E+03  0.38277937308E+03  0.00000000000E+00 0.  1.
          6    1    1    2  501    0  0.24164550869E+02  0.12688587260E+03 -0.27370715765E+03  0.34860946392E+03  0.17300000000E+03 0.  1.
         -6    1    1    2    0  502 -0.24164550869E+02 -0.12688587260E+03  0.91085789188E+02  0.23432791378E+03  0.17300000000E+03 0. -1.
<mgrwt>
<rscale>  2 0.21590032E+03</rscale>
<asrwt>0</asrwt>
<pdfrwt beam="1">  1       21 0.30793540E-01 0.21590032E+03</pdfrwt>
<pdfrwt beam="2">  1       21 0.58889133E-01 0.21590032E+03</pdfrwt>
<totfact> 0.26964260E+04</totfact>
</mgrwt>
</event>
<event>
 4    1  0.4067306E+000  0.3436624E+03  0.7546771E-02  0.1065247E+00
         21   -1    0    0  503  502  0.00000000000E+00  0.00000000000E+00  0.90930604237E+03  0.90930604237E+03  0.00000000000E+00 0.  1.
         21   -1    0    0  501  503 -0.00000000000E+00 -0.00000000000E+00 -0.57071670081E+03  0.57071670081E+03  0.00000000000E+00 0. -1.
          6    1    1    2  501    0  0.22732776692E+03  0.19104175874E+03 -0.48108243027E+03  0.59122260775E+03  0.17300000000E+03 0. -1.
         -6    1    1    2    0  502 -0.22732776692E+03 -0.19104175874E+03  0.81967177183E+03  0.88880013543E+03  0.17300000000E+03 0.  1.
<mgrwt>
<rscale>  2 0.34366243E+03</rscale>
<asrwt>0</asrwt>
<pdfrwt beam="1">  1       21 0.13989324E+00 0.34366243E+03</pdfrwt>
<pdfrwt beam="2">  1       21 0.87802570E-01 0.34366243E+03</pdfrwt>
<totfact> 0.34975915E+02</totfact>
</mgrwt>
</event>
<event>
 4    1  0.4067306E+000  0.4450765E+03  0.7546771E-02  0.1029201E+00
         21   -1    0    0  503  502  0.00000000000E+00  0.00000000000E+00  0.12740783146E+04  0.12740783146E+04  0.00000000000E+00 0.  1.
         21   -1    0    0  501  503 -0.00000000000E+00 -0.00000000000E+00 -0.27973308356E+03  0.27973308356E+03  0.00000000000E+00 0.  1.
          6    1    1    2  501    0  0.35678883317E+03  0.20215301737E+03 -0.20613949368E+02  0.44555364302E+03  0.17300000000E+03 0.  1.
         -6    1    1    2    0  502 -0.35678883317E+03 -0.20215301737E+03  0.10149591804E+04  0.11082577551E+04  0.17300000000E+03 0.  1.
<mgrwt>
<rscale>  2 0.44507653E+03</rscale>
<asrwt>0</asrwt>
<pdfrwt beam="1">  1       21 0.19601205E+00 0.44507653E+03</pdfrwt>
<pdfrwt beam="2">  1       21 0.43035860E-01 0.44507653E+03</pdfrwt>
<totfact> 0.61357503E+02</totfact>
</mgrwt>
</event>
<event>
 4    1  0.4067306E+000  0.2838213E+03  0.7546771E-02  0.1093620E+00
         21   -1    0    0  501  502  0.00000000000E+00  0.00000000000E+00  0.43764531640E+03  0.43764531640E+03  0.00000000000E+00 0. -1.
         21   -1    0    0  502  503 -0.00000000000E+00 -0.00000000000E+00 -0.18448550297E+03  0.18448550297E+03  0.00000000000E+00 0.  1.
          6    1    1    2  501    0 -0.22431743415E+03 -0.17527159991E+02  0.11170181348E+03  0.30501116002E+03  0.17300000000E+03 0. -1.
         -6    1    1    2    0  503  0.22431743415E+03  0.17527159991E+02  0.14145799994E+03  0.31711965935E+03  0.17300000000E+03 0.  1.
<mgrwt>
<rscale>  2 0.28382127E+03</rscale>
<asrwt>0</asrwt>
<pdfrwt beam="1">  1       21 0.67330048E-01 0.28382127E+03</pdfrwt>
<pdfrwt beam="2">  1       21 0.28382385E-01 0.28382127E+03</pdfrwt>
<totfact> 0.22888433E+04</totfact>
</mgrwt>
</event>
<event>
 4    1  0.4067306E+000  0.1815125E+03  0.7546771E-02  0.1166347E+00
         21   -1    0    0  501  502  0.00000000000E+00  0.00000000000E+00  0.11021612868E+03  0.11021612868E+03  0.00000000000E+00 0. -1.
         21   -1    0    0  502  503 -0.00000000000E+00 -0.00000000000E+00 -0.29933680764E+03  0.29933680764E+03  0.00000000000E+00 0. -1.
          6    1    1    2  501    0  0.19461939233E+02  0.51371226619E+02 -0.86999697390E+02  0.20128516425E+03  0.17300000000E+03 0. -1.
         -6    1    1    2    0  503 -0.19461939233E+02 -0.51371226619E+02 -0.10212098157E+03  0.20826777206E+03  0.17300000000E+03 0. -1.
<mgrwt>
<rscale>  2 0.18151245E+03</rscale>
<asrwt>0</asrwt>
<pdfrwt beam="1">  1       21 0.16956328E-01 0.18151245E+03</pdfrwt>
<pdfrwt beam="2">  1       21 0.46051815E-01 0.18151245E+03</pdfrwt>
<totfact> 0.14216134E+05</totfact>
</mgrwt>
</event>
<event>
 4    1  0.4067306E+000  0.1903201E+03  0.7546771E-02  0.1158173E+00
         21   -1    0    0  501  502  0.00000000000E+00  0.00000000000E+00  0.13905767581E+04  0.13905767581E+04  0.00000000000E+00 0. -1.
         21   -1    0    0  502  503 -0.00000000000E+00 -0.00000000000E+00 -0.54960089210E+02  0.54960089210E+02  0.00000000000E+00 0.  1.
          6    1    1    2  501    0  0.15553794133E+02 -0.77787122889E+02  0.11920301866E+04  0.12071278816E+04  0.17300000000E+03 0. -1.
         -6    1    1    2    0  503 -0.15553794133E+02  0.77787122889E+02  0.14358648234E+03  0.23840896567E+03  0.17300000000E+03 0.  1.
<mgrwt>
<rscale>  2 0.19032014E+03</rscale>
<asrwt>0</asrwt>
<pdfrwt beam="1">  1       21 0.21393486E+00 0.19032014E+03</pdfrwt>
<pdfrwt beam="2">  1       21 0.84553994E-02 0.19032014E+03</pdfrwt>
<totfact> 0.11972301E+04</totfact>
</mgrwt>
</event>
<event>
 4    1  0.4067306E+000  0.1914796E+03  0.7546771E-02  0.1157134E+00
         21   -1    0    0  503  502  0.00000000000E+00  0.00000000000E+00  0.18718680646E+04  0.18718680646E+04  0.00000000000E+00 0.  1.
         21   -1    0    0  501  503 -0.00000000000E+00 -0.00000000000E+00 -0.37489625078E+02  0.37489625078E+02  0.00000000000E+00 0. -1.
          6    1    1    2  501    0 -0.64791686033E+02  0.50373498855E+02  0.25747021835E+03  0.32086658489E+03  0.17300000000E+03 0. -1.
         -6    1    1    2    0  502  0.64791686033E+02 -0.50373498855E+02  0.15769082212E+04  0.15884911048E+04  0.17300000000E+03 0.  1.
<mgrwt>
<rscale>  2 0.19147964E+03</rscale>
<asrwt>0</asrwt>
<pdfrwt beam="1">  1       21 0.28797963E+00 0.19147964E+03</pdfrwt>
<pdfrwt beam="2">  1       21 0.57676361E-02 0.19147964E+03</pdfrwt>
<totfact> 0.84551879E+03</totfact>
</mgrwt>
</event>
<event>
 4    1  0.4067306E+000  0.1819441E+03  0.7546771E-02  0.1165935E+00
         21   -1    0    0  501  502  0.00000000000E+00  0.00000000000E+00  0.10799535413E+04  0.10799535413E+04  0.00000000000E+00 0. -1.
         21   -1    0    0  502  503 -0.00000000000E+00 -0.00000000000E+00 -0.48361269705E+02  0.48361269705E+02  0.00000000000E+00 0. -1.
          6    1    1    2  501    0  0.31344467407E+02 -0.46820604982E+02  0.85717879266E+03  0.87627571418E+03  0.17300000000E+03 0. -1.
         -6    1    1    2    0  503 -0.31344467407E+02  0.46820604982E+02  0.17441347892E+03  0.25203909680E+03  0.17300000000E+03 0. -1.
<mgrwt>
<rscale>  2 0.18194407E+03</rscale>
<asrwt>0</asrwt>
<pdfrwt beam="1">  1       21 0.16614668E+00 0.18194407E+03</pdfrwt>
<pdfrwt beam="2">  1       21 0.74401961E-02 0.18194407E+03</pdfrwt>
<totfact> 0.31143579E+04</totfact>
</mgrwt>
</event>
<event>
 4    1  0.4067306E+000  0.1816502E+03  0.7546771E-02  0.1166215E+00
         21   -1    0    0  501  502  0.00000000000E+00  0.00000000000E+00  0.61430669370E+03  0.61430669370E+03  0.00000000000E+00 0. -1.
         21   -1    0    0  502  503 -0.00000000000E+00 -0.00000000000E+00 -0.53715332443E+02  0.53715332443E+02  0.00000000000E+00 0.  1.
          6    1    1    2  501    0  0.80362234951E+01 -0.54801480182E+02  0.28204504665E+03  0.33547904772E+03  0.17300000000E+03 0.  1.
         -6    1    1    2    0  503 -0.80362234951E+01  0.54801480182E+02  0.27854631460E+03  0.33254297842E+03  0.17300000000E+03 0.  1.
<mgrwt>
<rscale>  2 0.18165017E+03</rscale>
<asrwt>0</asrwt>
<pdfrwt beam="1">  1       21 0.94508717E-01 0.18165017E+03</pdfrwt>
<pdfrwt beam="2">  1       21 0.82638977E-02 0.18165017E+03</pdfrwt>
<totfact> 0.10679909E+05</totfact>
</mgrwt>
</event>
<event>
 4    1  0.4067306E+000  0.2540919E+03  0.7546771E-02  0.1110746E+00
         21   -1    0    0  501  502  0.00000000000E+00  0.00000000000E+00  0.35608419904E+03  0.35608419904E+03  0.00000000000E+00 0. -1.
         21   -1    0    0  502  503 -0.00000000000E+00 -0.00000000000E+00 -0.21543449779E+03  0.21543449779E+03  0.00000000000E+00 0. -1.
          6    1    1    2  501    0 -0.12764128453E+03  0.13543048171E+03 -0.43400303761E+02  0.25777179686E+03  0.17300000000E+03 0. -1.
         -6    1    1    2    0  503  0.12764128453E+03 -0.13543048171E+03  0.18405000501E+03  0.31374689997E+03  0.17300000000E+03 0. -1.
<mgrwt>
<rscale>  2 0.25409194E+03</rscale>
<asrwt>0</asrwt>
<pdfrwt beam="1">  1       21 0.54782185E-01 0.25409194E+03</pdfrwt>
<pdfrwt beam="2">  1       21 0.33143769E-01 0.25409194E+03</pdfrwt>
<totfact> 0.26721338E+04</totfact>
</mgrwt>
</event>
<event>
 4    1  0.4067306E+000  0.2375408E+03  0.7546771E-02  0.1121442E+00
         21   -1    0    0  503  502  0.00000000000E+00  0.00000000000E+00  0.83081391678E+03  0.83081391678E+03  0.00000000000E+00 0.  1.
         21   -1    0    0  501  503 -0.00000000000E+00 -0.00000000000E+00 -0.79172139385E+02  0.79172139385E+02  0.00000000000E+00 0.  1.
          6    1    1    2  501    0 -0.14366032999E+03  0.76539892349E+02  0.20426278007E+03  0.31328729444E+03  0.17300000000E+03 0.  1.
         -6    1    1    2    0  502  0.14366032999E+03 -0.76539892349E+02  0.54737899732E+03  0.59669876172E+03  0.17300000000E+03 0.  1.
<mgrwt>
<rscale>  2 0.23754083E+03</rscale>
<asrwt>0</asrwt>
<pdfrwt beam="1">  1       21 0.12781752E+00 0.23754083E+03</pdfrwt>
<pdfrwt beam="2">  1       21 0.12180330E-01 0.23754083E+03</pdfrwt>
<totfact> 0.25111886E+04</totfact>
</mgrwt>
</event>
<event>
 4    1  0.4067306E+000  0.2587319E+03  0.7546771E-02  0.1107908E+00
         21   -1    0    0  501  502  0.00000000000E+00  0.00000000000E+00  0.32617646677E+03  0.32617646677E+03  0.00000000000E+00 0.  1.
         21   -1    0    0  502  503 -0.00000000000E+00 -0.00000000000E+00 -0.26713151927E+03  0.26713151927E+03  0.00000000000E+00 0. -1.
          6    1    1    2  501    0 -0.19175707535E+03 -0.15569090105E+02  0.17232233517E+03  0.31086517932E+03  0.17300000000E+03 0.  1.
         -6    1    1    2    0  503  0.19175707535E+03  0.15569090105E+02 -0.11327738767E+03  0.28244280673E+03  0.17300000000E+03 0. -1.
<mgrwt>
<rscale>  2 0.25873185E+03</rscale>
<asrwt>0</asrwt>
<pdfrwt beam="1">  1       21 0.50180995E-01 0.25873185E+03</pdfrwt>
<pdfrwt beam="2">  1       21 0.41097157E-01 0.25873185E+03</pdfrwt>
<totfact> 0.20822822E+04</totfact>
</mgrwt>
</event>
<event>
 4    1  0.4067306E+000  0.1830946E+03  0.7546771E-02  0.1164841E+00
         21   -1    0    0  501  502  0.00000000000E+00  0.00000000000E+00  0.80801469707E+03  0.80801469707E+03  0.00000000000E+00 0. -1.
         21   -1    0    0  502  503 -0.00000000000E+00 -0.00000000000E+00 -0.11776414716E+03  0.11776414716E+03  0.00000000000E+00 0. -1.
          6    1    1    2  501    0  0.12911583868E+02  0.58548573324E+02  0.71765635402E+03  0.74064450778E+03  0.17300000000E+03 0. -1.
         -6    1    1    2    0  503 -0.12911583868E+02 -0.58548573324E+02 -0.27405804111E+02  0.18513433646E+03  0.17300000000E+03 0. -1.
<mgrwt>
<rscale>  2 0.18309463E+03</rscale>
<asrwt>0</asrwt>
<pdfrwt beam="1">  1       21 0.12430995E+00 0.18309463E+03</pdfrwt>
<pdfrwt beam="2">  1       21 0.18117562E-01 0.18309463E+03</pdfrwt>
<totfact> 0.13505860E+04</totfact>
</mgrwt>
</event>
<event>
 4    1  0.4067306E+000  0.1777995E+03  0.7546771E-02  0.1169950E+00
         21   -1    0    0  503  502  0.00000000000E+00  0.00000000000E+00  0.67422252853E+02  0.67422252853E+02  0.00000000000E+00 0. -1.
         21   -1    0    0  501  503 -0.00000000000E+00 -0.00000000000E+00 -0.59918376582E+03  0.59918376582E+03  0.00000000000E+00 0. -1.
          6    1    1    2  501    0  0.19238727334E+02 -0.36242704530E+02 -0.42131428652E+03  0.45729464275E+03  0.17300000000E+03 0. -1.
         -6    1    1    2    0  502 -0.19238727334E+02  0.36242704530E+02 -0.11044722645E+03  0.20931137592E+03  0.17300000000E+03 0. -1.
<mgrwt>
<rscale>  2 0.17779950E+03</rscale>
<asrwt>0</asrwt>
<pdfrwt beam="1">  1       21 0.10372654E-01 0.17779950E+03</pdfrwt>
<pdfrwt beam="2">  1       21 0.92182120E-01 0.17779950E+03</pdfrwt>
<totfact> 0.76083125E+04</totfact>
</mgrwt>
</event>
<event>
 4    1  0.4067306E+000  0.1892565E+03  0.7546771E-02  0.1159134E+00
         21   -1    0    0  501  502  0.00000000000E+00  0.00000000000E+00  0.66999025139E+02  0.66999025139E+02  0.00000000000E+00 0. -1.
         21   -1    0    0  502  503 -0.00000000000E+00 -0.00000000000E+00 -0.63685350457E+03  0.63685350457E+03  0.00000000000E+00 0. -1.
          6    1    1    2  501    0 -0.76250097258E+02  0.86576447507E+01 -0.42594045356E+03  0.46609366239E+03  0.17300000000E+03 0. -1.
         -6    1    1    2    0  503  0.76250097258E+02 -0.86576447507E+01 -0.14391402587E+03  0.23775886731E+03  0.17300000000E+03 0. -1.
<mgrwt>
<rscale>  2 0.18925652E+03</rscale>
<asrwt>0</asrwt>
<pdfrwt beam="1">  1       21 0.10307543E-01 0.18925652E+03</pdfrwt>
<pdfrwt beam="2">  1       21 0.97977460E-01 0.18925652E+03</pdfrwt>
<totfact> 0.66370095E+04</totfact>
</mgrwt>
</event>
<event>
 4    1  0.4067306E+000  0.1770943E+03  0.7546771E-02  0.1170645E+00
         21   -1    0    0  503  502  0.00000000000E+00  0.00000000000E+00  0.50802043332E+02  0.50802043332E+02  0.00000000000E+00 0. -1.
         21   -1    0    0  501  503 -0.00000000000E+00 -0.00000000000E+00 -0.98858773150E+03  0.98858773150E+03  0.00000000000E+00 0. -1.
          6    1    1    2  501    0 -0.37830309928E+02 -0.14994203002E+01 -0.78736384623E+03  0.80703420433E+03  0.17300000000E+03 0. -1.
         -6    1    1    2    0  502  0.37830309928E+02  0.14994203002E+01 -0.15042184193E+03  0.23235557050E+03  0.17300000000E+03 0. -1.
<mgrwt>
<rscale>  2 0.17709427E+03</rscale>
<asrwt>0</asrwt>
<pdfrwt beam="1">  1       21 0.78156998E-02 0.17709427E+03</pdfrwt>
<pdfrwt beam="2">  1       21 0.15209040E+00 0.17709427E+03</pdfrwt>
<totfact> 0.36357129E+04</totfact>
</mgrwt>
</event>
<event>
 4    1  0.4067306E+000  0.1934252E+03  0.7546771E-02  0.1155408E+00
         21   -1    0    0  501  502  0.00000000000E+00  0.00000000000E+00  0.50312721057E+03  0.50312721057E+03  0.00000000000E+00 0. -1.
         21   -1    0    0  502  503 -0.00000000000E+00 -0.00000000000E+00 -0.95242085805E+02  0.95242085805E+02  0.00000000000E+00 0. -1.
          6    1    1    2  501    0 -0.39363274453E+02  0.77037914131E+02  0.34402894346E+03  0.39467609698E+03  0.17300000000E+03 0. -1.
         -6    1    1    2    0  503  0.39363274453E+02 -0.77037914131E+02  0.63856181309E+02  0.20369319940E+03  0.17300000000E+03 0. -1.
<mgrwt>
<rscale>  2 0.19342520E+03</rscale>
<asrwt>0</asrwt>
<pdfrwt beam="1">  1       21 0.77404185E-01 0.19342520E+03</pdfrwt>
<pdfrwt beam="2">  1       21 0.14652629E-01 0.19342520E+03</pdfrwt>
<totfact> 0.60627830E+04</totfact>
</mgrwt>
</event>
<event>
 4    1  0.4067306E+000  0.2234267E+03  0.7546771E-02  0.1131354E+00
         21   -1    0    0  503  502  0.00000000000E+00  0.00000000000E+00  0.22394885446E+03  0.22394885446E+03  0.00000000000E+00 0.  1.
         21   -1    0    0  501  503 -0.00000000000E+00 -0.00000000000E+00 -0.30700652330E+03  0.30700652330E+03  0.00000000000E+00 0. -1.
          6    1    1    2  501    0 -0.14113430674E+03 -0.84611632962E+01 -0.18047746211E+03  0.28721350621E+03  0.17300000000E+03 0. -1.
         -6    1    1    2    0  502  0.14113430674E+03  0.84611632962E+01  0.97419793264E+02  0.24374187154E+03  0.17300000000E+03 0.  1.
<mgrwt>
<rscale>  2 0.22342669E+03</rscale>
<asrwt>0</asrwt>
<pdfrwt beam="1">  1       21 0.34453670E-01 0.22342669E+03</pdfrwt>
<pdfrwt beam="2">  1       21 0.47231773E-01 0.22342669E+03</pdfrwt>
<totfact> 0.34272695E+04</totfact>
</mgrwt>
</event>
<event>
 4    1  0.4067306E+000  0.2895233E+03  0.7546771E-02  0.1090598E+00
         21   -1    0    0  503  502  0.00000000000E+00  0.00000000000E+00  0.31410330254E+03  0.31410330254E+03  0.00000000000E+00 0.  1.
         21   -1    0    0  501  503 -0.00000000000E+00 -0.00000000000E+00 -0.29704305390E+03  0.29704305390E+03  0.00000000000E+00 0. -1.
          6    1    1    2  501    0  0.17219634537E+03  0.15570215293E+03  0.10592547510E+03  0.30829198507E+03  0.17300000000E+03 0.  1.
         -6    1    1    2    0  502 -0.17219634537E+03 -0.15570215293E+03 -0.88865226458E+02  0.30285437137E+03  0.17300000000E+03 0. -1.
<mgrwt>
<rscale>  2 0.28952330E+03</rscale>
<asrwt>0</asrwt>
<pdfrwt beam="1">  1       21 0.48323585E-01 0.28952330E+03</pdfrwt>
<pdfrwt beam="2">  1       21 0.45698931E-01 0.28952330E+03</pdfrwt>
<totfact> 0.17866652E+04</totfact>
</mgrwt>
</event>
<event>
 4    1  0.4067306E+000  0.2324935E+03  0.7546771E-02  0.1124897E+00
         21   -1    0    0  501  502  0.00000000000E+00  0.00000000000E+00  0.11188294229E+04  0.11188294229E+04  0.00000000000E+00 0.  1.
         21   -1    0    0  502  503 -0.00000000000E+00 -0.00000000000E+00 -0.48315068401E+02  0.48315068401E+02  0.00000000000E+00 0.  1.
          6    1    1    2  501    0  0.13080398957E+03  0.83752743790E+02  0.53968665893E+03  0.58763500203E+03  0.17300000000E+03 0.  1.
         -6    1    1    2    0  503 -0.13080398957E+03 -0.83752743790E+02  0.53082769562E+03  0.57950948932E+03  0.17300000000E+03 0.  1.
<mgrwt>
<rscale>  2 0.23249345E+03</rscale>
<asrwt>0</asrwt>
<pdfrwt beam="1">  1       21 0.17212758E+00 0.23249345E+03</pdfrwt>
<pdfrwt beam="2">  1       21 0.74330883E-02 0.23249345E+03</pdfrwt>
<totfact> 0.27409292E+04</totfact>
</mgrwt>
</event>
<event>
 4    1  0.4067306E+000  0.1766648E+03  0.7546771E-02  0.1171070E+00
         21   -1    0    0  503  502  0.00000000000E+00  0.00000000000E+00  0.31208606273E+03  0.31208606273E+03  0.00000000000E+00 0.  1.
         21   -1    0    0  501  503 -0.00000000000E+00 -0.00000000000E+00 -0.20170241395E+03  0.20170241395E+03  0.00000000000E+00 0.  1.
          6    1    1    2  501    0  0.15008159400E+02  0.32499507041E+02 -0.12721947831E+03  0.21770452101E+03  0.17300000000E+03 0.  1.
         -6    1    1    2    0  502 -0.15008159400E+02 -0.32499507041E+02  0.23760312709E+03  0.29608395568E+03  0.17300000000E+03 0.  1.
<mgrwt>
<rscale>  2 0.17666483E+03</rscale>
<asrwt>0</asrwt>
<pdfrwt beam="1">  1       21 0.48013240E-01 0.17666483E+03</pdfrwt>
<pdfrwt beam="2">  1       21 0.31031141E-01 0.17666483E+03</pdfrwt>
<totfact> 0.41685788E+04</totfact>
</mgrwt>
</event>
<event>
 4    1  0.4067306E+000  0.1867471E+03  0.7546771E-02  0.1161428E+00
         21   -1    0    0  503  502  0.00000000000E+00  0.00000000000E+00  0.75909478041E+03  0.75909478041E+03  0.00000000000E+00 0. -1.
         21   -1    0    0  501  503 -0.00000000000E+00 -0.00000000000E+00 -0.66930591585E+02  0.66930591585E+02  0.00000000000E+00 0.  1.
          6    1    1    2  501    0  0.70319696640E+02 -0.78546123438E+00  0.11480067629E+03  0.21921147771E+03  0.17300000000E+03 0.  1.
         -6    1    1    2    0  502 -0.70319696640E+02  0.78546123438E+00  0.57736351254E+03  0.60681389429E+03  0.17300000000E+03 0. -1.
<mgrwt>
<rscale>  2 0.18674709E+03</rscale>
<asrwt>0</asrwt>
<pdfrwt beam="1">  1       21 0.11678381E+00 0.18674709E+03</pdfrwt>
<pdfrwt beam="2">  1       21 0.10297015E-01 0.18674709E+03</pdfrwt>
<totfact> 0.43642752E+04</totfact>
</mgrwt>
</event>
<event>
 4    1  0.4067306E+000  0.1739745E+03  0.7546771E-02  0.1173765E+00
         21   -1    0    0  503  502  0.00000000000E+00  0.00000000000E+00  0.38786793077E+02  0.38786793077E+02  0.00000000000E+00 0. -1.
         21   -1    0    0  501  503 -0.00000000000E+00 -0.00000000000E+00 -0.99245018083E+03  0.99245018083E+03  0.00000000000E+00 0. -1.
          6    1    1    2  501    0 -0.17543744258E+02  0.55083437824E+01 -0.71520003776E+03  0.73605585306E+03  0.17300000000E+03 0. -1.
         -6    1    1    2    0  502  0.17543744258E+02 -0.55083437824E+01 -0.23846334999E+03  0.29518112085E+03  0.17300000000E+03 0. -1.
<mgrwt>
<rscale>  2 0.17397449E+03</rscale>
<asrwt>0</asrwt>
<pdfrwt beam="1">  1       21 0.59671984E-02 0.17397449E+03</pdfrwt>
<pdfrwt beam="2">  1       21 0.15268466E+00 0.17397449E+03</pdfrwt>
<totfact> 0.57364938E+04</totfact>
</mgrwt>
</event>
<event>
 4    1  0.4067306E+000  0.3227477E+03  0.7546771E-02  0.1074392E+00
         21   -1    0    0  501  502  0.00000000000E+00  0.00000000000E+00  0.63415666359E+03  0.63415666359E+03  0.00000000000E+00 0. -1.
         21   -1    0    0  502  503 -0.00000000000E+00 -0.00000000000E+00 -0.53357789431E+03  0.53357789431E+03  0.00000000000E+00 0. -1.
          6    1    1    2  501    0  0.81785941039E+02  0.25990030682E+03 -0.43546399212E+03  0.54202859526E+03  0.17300000000E+03 0. -1.
         -6    1    1    2    0  503 -0.81785941039E+02 -0.25990030682E+03  0.53604276141E+03  0.62570596265E+03  0.17300000000E+03 0. -1.
<mgrwt>
<rscale>  2 0.32274775E+03</rscale>
<asrwt>0</asrwt>
<pdfrwt beam="1">  1       21 0.97562564E-01 0.32274775E+03</pdfrwt>
<pdfrwt beam="2">  1       21 0.82088907E-01 0.32274775E+03</pdfrwt>
<totfact> 0.10212220E+03</totfact>
</mgrwt>
</event>
<event>
 4    1  0.4067306E+000  0.2328982E+03  0.7546771E-02  0.1124616E+00
         21   -1    0    0  501  502  0.00000000000E+00  0.00000000000E+00  0.59228348095E+03  0.59228348095E+03  0.00000000000E+00 0.  1.
         21   -1    0    0  502  503 -0.00000000000E+00 -0.00000000000E+00 -0.10027206789E+03  0.10027206789E+03  0.00000000000E+00 0.  1.
          6    1    1    2  501    0 -0.59449794889E+02 -0.14414685780E+03  0.34795510052E+03  0.41870556087E+03  0.17300000000E+03 0.  1.
         -6    1    1    2    0  503  0.59449794889E+02  0.14414685780E+03  0.14405631254E+03  0.27384998797E+03  0.17300000000E+03 0.  1.
<mgrwt>
<rscale>  2 0.23289825E+03</rscale>
<asrwt>0</asrwt>
<pdfrwt beam="1">  1       21 0.91120534E-01 0.23289825E+03</pdfrwt>
<pdfrwt beam="2">  1       21 0.15426472E-01 0.23289825E+03</pdfrwt>
<totfact> 0.37276771E+04</totfact>
</mgrwt>
</event>
<event>
 4    1  0.4067306E+000  0.1842856E+03  0.7546771E-02  0.1163719E+00
         21   -1    0    0  501  502  0.00000000000E+00  0.00000000000E+00  0.53938471455E+02  0.53938471455E+02  0.00000000000E+00 0.  1.
         21   -1    0    0  502  503 -0.00000000000E+00 -0.00000000000E+00 -0.96870248090E+03  0.96870248090E+03  0.00000000000E+00 0.  1.
          6    1    1    2  501    0 -0.46116957688E+02  0.43650880634E+02 -0.15486797798E+03  0.24071822484E+03  0.17300000000E+03 0.  1.
         -6    1    1    2    0  503  0.46116957688E+02 -0.43650880634E+02 -0.75989603146E+03  0.78192272751E+03  0.17300000000E+03 0.  1.
<mgrwt>
<rscale>  2 0.18428558E+03</rscale>
<asrwt>0</asrwt>
<pdfrwt beam="1">  1       21 0.82982269E-02 0.18428558E+03</pdfrwt>
<pdfrwt beam="2">  1       21 0.14903114E+00 0.18428558E+03</pdfrwt>
<totfact> 0.34404007E+04</totfact>
</mgrwt>
</event>
<event>
 4    1  0.4067306E+000  0.1785483E+03  0.7546771E-02  0.1169215E+00
         21   -1    0    0  501  502  0.00000000000E+00  0.00000000000E+00  0.63064489777E+03  0.63064489777E+03  0.00000000000E+00 0.  1.
         21   -1    0    0  502  503 -0.00000000000E+00 -0.00000000000E+00 -0.85722750166E+02  0.85722750166E+02  0.00000000000E+00 0.  1.
          6    1    1    2  501    0  0.43707487901E+01  0.43947430477E+02  0.50189485332E+03  0.53270810382E+03  0.17300000000E+03 0.  1.
         -6    1    1    2    0  503 -0.43707487901E+01 -0.43947430477E+02  0.43027294286E+02  0.18365954411E+03  0.17300000000E+03 0.  1.
<mgrwt>
<rscale>  2 0.17854826E+03</rscale>
<asrwt>0</asrwt>
<pdfrwt beam="1">  1       21 0.97022289E-01 0.17854826E+03</pdfrwt>
<pdfrwt beam="2">  1       21 0.13188116E-01 0.17854826E+03</pdfrwt>
<totfact> 0.43989551E+04</totfact>
</mgrwt>
</event>
<event>
 4    1  0.4067306E+000  0.2177272E+03  0.7546771E-02  0.1135589E+00
         21   -1    0    0  501  502  0.00000000000E+00  0.00000000000E+00  0.17342588930E+03  0.17342588930E+03  0.00000000000E+00 0.  1.
         21   -1    0    0  502  503 -0.00000000000E+00 -0.00000000000E+00 -0.34142316334E+03  0.34142316334E+03  0.00000000000E+00 0.  1.
          6    1    1    2  501    0  0.17732729910E+01 -0.13218547627E+03 -0.19894798717E+03  0.29493295210E+03  0.17300000000E+03 0.  1.
         -6    1    1    2    0  503 -0.17732729910E+01  0.13218547627E+03  0.30950713128E+02  0.21991610054E+03  0.17300000000E+03 0.  1.
<mgrwt>
<rscale>  2 0.21772723E+03</rscale>
<asrwt>0</asrwt>
<pdfrwt beam="1">  1       21 0.26680906E-01 0.21772723E+03</pdfrwt>
<pdfrwt beam="2">  1       21 0.52526640E-01 0.21772723E+03</pdfrwt>
<totfact> 0.45397275E+04</totfact>
</mgrwt>
</event>
<event>
 4    1  0.4067306E+000  0.2824277E+03  0.7546771E-02  0.1094370E+00
         21   -1    0    0  503  502  0.00000000000E+00  0.00000000000E+00  0.21572237709E+03  0.21572237709E+03  0.00000000000E+00 0. -1.
         21   -1    0    0  501  503 -0.00000000000E+00 -0.00000000000E+00 -0.41582354582E+03  0.41582354582E+03  0.00000000000E+00 0. -1.
          6    1    1    2  501    0  0.11589802758E+03  0.19079850303E+03 -0.20515015281E+03  0.34907306793E+03  0.17300000000E+03 0. -1.
         -6    1    1    2    0  502 -0.11589802758E+03 -0.19079850303E+03  0.50489840832E+01  0.28247285497E+03  0.17300000000E+03 0. -1.
<mgrwt>
<rscale>  2 0.28242773E+03</rscale>
<asrwt>0</asrwt>
<pdfrwt beam="1">  1       21 0.33188059E-01 0.28242773E+03</pdfrwt>
<pdfrwt beam="2">  1       21 0.63972852E-01 0.28242773E+03</pdfrwt>
<totfact> 0.18827771E+04</totfact>
</mgrwt>
</event>
<event>
 4    1  0.4067306E+000  0.1769567E+03  0.7546771E-02  0.1170781E+00
         21   -1    0    0  501  502  0.00000000000E+00  0.00000000000E+00  0.12020949476E+03  0.12020949476E+03  0.00000000000E+00 0. -1.
         21   -1    0    0  502  503 -0.00000000000E+00 -0.00000000000E+00 -0.29016056640E+03  0.29016056640E+03  0.00000000000E+00 0. -1.
          6    1    1    2  501    0 -0.35421288494E+02 -0.11402753489E+02 -0.19365547002E+02  0.17801324354E+03  0.17300000000E+03 0.  1.
         -6    1    1    2    0  503  0.35421288494E+02  0.11402753489E+02 -0.15058552463E+03  0.23235681762E+03  0.17300000000E+03 0.  1.
<mgrwt>
<rscale>  2 0.17695675E+03</rscale>
<asrwt>0</asrwt>
<pdfrwt beam="1">  1       21 0.18493769E-01 0.17695675E+03</pdfrwt>
<pdfrwt beam="2">  1       21 0.44640087E-01 0.17695675E+03</pdfrwt>
<totfact> 0.12934196E+05</totfact>
</mgrwt>
</event>
<event>
 4    1  0.4067306E+000  0.1863715E+03  0.7546771E-02  0.1161775E+00
         21   -1    0    0  501  502  0.00000000000E+00  0.00000000000E+00  0.31018575576E+03  0.31018575576E+03  0.00000000000E+00 0.  1.
         21   -1    0    0  502  503 -0.00000000000E+00 -0.00000000000E+00 -0.14268319464E+03  0.14268319464E+03  0.00000000000E+00 0.  1.
          6    1    1    2  501    0 -0.68568998038E+02  0.10178931122E+02  0.18879119723E+03  0.26528557119E+03  0.17300000000E+03 0.  1.
         -6    1    1    2    0  503  0.68568998038E+02 -0.10178931122E+02 -0.21288636110E+02  0.18758337922E+03  0.17300000000E+03 0.  1.
<mgrwt>
<rscale>  2 0.18637145E+03</rscale>
<asrwt>0</asrwt>
<pdfrwt beam="1">  1       21 0.47720885E-01 0.18637145E+03</pdfrwt>
<pdfrwt beam="2">  1       21 0.21951261E-01 0.18637145E+03</pdfrwt>
<totfact> 0.81586856E+04</totfact>
</mgrwt>
</event>
<event>
 4    1  0.4067306E+000  0.1865194E+03  0.7546771E-02  0.1161639E+00
         21   -1    0    0  503  502  0.00000000000E+00  0.00000000000E+00  0.12842458570E+03  0.12842458570E+03  0.00000000000E+00 0.  1.
         21   -1    0    0  501  503 -0.00000000000E+00 -0.00000000000E+00 -0.27164754302E+03  0.27164754302E+03  0.00000000000E+00 0.  1.
          6    1    1    2  501    0  0.49499283439E+02 -0.49094902452E+02 -0.61077986386E+02  0.19626514955E+03  0.17300000000E+03 0.  1.
         -6    1    1    2    0  502 -0.49499283439E+02  0.49094902452E+02 -0.82144970928E+02  0.20380697917E+03  0.17300000000E+03 0.  1.
<mgrwt>
<rscale>  2 0.18651941E+03</rscale>
<asrwt>0</asrwt>
<pdfrwt beam="1">  1       21 0.19757629E-01 0.18651941E+03</pdfrwt>
<pdfrwt beam="2">  1       21 0.41791930E-01 0.18651941E+03</pdfrwt>
<totfact> 0.13042619E+05</totfact>
</mgrwt>
</event>
<event>
 4    1  0.4067306E+000  0.1766292E+03  0.7546771E-02  0.1171106E+00
         21   -1    0    0  503  502  0.00000000000E+00  0.00000000000E+00  0.75992906639E+02  0.75992906639E+02  0.00000000000E+00 0.  1.
         21   -1    0    0  501  503 -0.00000000000E+00 -0.00000000000E+00 -0.41861057367E+03  0.41861057367E+03  0.00000000000E+00 0.  1.
          6    1    1    2  501    0 -0.10751050922E+02 -0.33960301998E+02 -0.20565351383E+03  0.27109270547E+03  0.17300000000E+03 0.  1.
         -6    1    1    2    0  502  0.10751050922E+02  0.33960301998E+02 -0.13696415320E+03  0.22351077484E+03  0.17300000000E+03 0.  1.
<mgrwt>
<rscale>  2 0.17662924E+03</rscale>
<asrwt>0</asrwt>
<pdfrwt beam="1">  1       21 0.11691216E-01 0.17662924E+03</pdfrwt>
<pdfrwt beam="2">  1       21 0.64401627E-01 0.17662924E+03</pdfrwt>
<totfact> 0.13747923E+05</totfact>
</mgrwt>
</event>
<event>
 4    1  0.4067306E+000  0.1899475E+03  0.7546771E-02  0.1158509E+00
         21   -1    0    0  501  502  0.00000000000E+00  0.00000000000E+00  0.44743480201E+03  0.44743480201E+03  0.00000000000E+00 0. -1.
         21   -1    0    0  502  503 -0.00000000000E+00 -0.00000000000E+00 -0.19272847905E+03  0.19272847905E+03  0.00000000000E+00 0. -1.
          6    1    1    2  501    0  0.40258155179E+02  0.67307756350E+02  0.37145610799E+03  0.41720461801E+03  0.17300000000E+03 0. -1.
         -6    1    1    2    0  503 -0.40258155179E+02 -0.67307756350E+02 -0.11674978503E+03  0.22295866305E+03  0.17300000000E+03 0. -1.
<mgrwt>
<rscale>  2 0.18994750E+03</rscale>
<asrwt>0</asrwt>
<pdfrwt beam="1">  1       21 0.68836123E-01 0.18994750E+03</pdfrwt>
<pdfrwt beam="2">  1       21 0.29650535E-01 0.18994750E+03</pdfrwt>
<totfact> 0.20994274E+04</totfact>
</mgrwt>
</event>
<event>
 4    1  0.4067306E+000  0.1905956E+03  0.7546771E-02  0.1157925E+00
         21   -1    0    0  501  502  0.00000000000E+00  0.00000000000E+00  0.41189404219E+03  0.41189404219E+03  0.00000000000E+00 0.  1.
         21   -1    0    0  502  503 -0.00000000000E+00 -0.00000000000E+00 -0.91071166630E+02  0.91071166630E+02  0.00000000000E+00 0.  1.
          6    1    1    2  501    0 -0.13973445074E+02 -0.78755548458E+02  0.11571429393E+03  0.22297195205E+03  0.17300000000E+03 0.  1.
         -6    1    1    2    0  503  0.13973445074E+02  0.78755548458E+02  0.20510858164E+03  0.27999325678E+03  0.17300000000E+03 0.  1.
<mgrwt>
<rscale>  2 0.19059563E+03</rscale>
<asrwt>0</asrwt>
<pdfrwt beam="1">  1       21 0.63368313E-01 0.19059563E+03</pdfrwt>
<pdfrwt beam="2">  1       21 0.14010949E-01 0.19059563E+03</pdfrwt>
<totfact> 0.10234870E+05</totfact>
</mgrwt>
</event>
<event>
 4    1  0.4067306E+000  0.1993991E+03  0.7546771E-02  0.1150247E+00
         21   -1    0    0  503  502  0.00000000000E+00  0.00000000000E+00  0.21622270480E+03  0.21622270480E+03  0.00000000000E+00 0. -1.
         21   -1    0    0  501  503 -0.00000000000E+00 -0.00000000000E+00 -0.20653434447E+03  0.20653434447E+03  0.00000000000E+00 0. -1.
          6    1    1    2  501    0 -0.87592832129E+02 -0.46459651803E+02 -0.65155709454E+02  0.20977433103E+03  0.17300000000E+03 0. -1.
         -6    1    1    2    0  502  0.87592832129E+02  0.46459651803E+02  0.74844069777E+02  0.21298271824E+03  0.17300000000E+03 0. -1.
<mgrwt>
<rscale>  2 0.19939911E+03</rscale>
<asrwt>0</asrwt>
<pdfrwt beam="1">  1       21 0.33265031E-01 0.19939911E+03</pdfrwt>
<pdfrwt beam="2">  1       21 0.31774515E-01 0.19939911E+03</pdfrwt>
<totfact> 0.82639049E+04</totfact>
</mgrwt>
</event>
<event>
 4    1  0.4067306E+000  0.1756940E+03  0.7546771E-02  0.1172037E+00
         21   -1    0    0  501  502  0.00000000000E+00  0.00000000000E+00  0.13502385154E+03  0.13502385154E+03  0.00000000000E+00 0.  1.
         21   -1    0    0  502  503 -0.00000000000E+00 -0.00000000000E+00 -0.32346893834E+03  0.32346893834E+03  0.00000000000E+00 0.  1.
          6    1    1    2  501    0  0.15849815497E+01 -0.30608330079E+02  0.29918539917E+02  0.17822317769E+03  0.17300000000E+03 0.  1.
         -6    1    1    2    0  503 -0.15849815497E+01  0.30608330079E+02 -0.21836362672E+03  0.28026961218E+03  0.17300000000E+03 0.  1.
<mgrwt>
<rscale>  2 0.17569400E+03</rscale>
<asrwt>0</asrwt>
<pdfrwt beam="1">  1       21 0.20772901E-01 0.17569400E+03</pdfrwt>
<pdfrwt beam="2">  1       21 0.49764451E-01 0.17569400E+03</pdfrwt>
<totfact> 0.83314770E+04</totfact>
</mgrwt>
</event>
<event>
 4    1  0.4067306E+000  0.1808490E+03  0.7546771E-02  0.1166984E+00
         21   -1    0    0  501  502  0.00000000000E+00  0.00000000000E+00  0.11256244214E+03  0.11256244214E+03  0.00000000000E+00 0. -1.
         21   -1    0    0  502  503 -0.00000000000E+00 -0.00000000000E+00 -0.33375268567E+03  0.33375268567E+03  0.00000000000E+00 0. -1.
          6    1    1    2  501    0 -0.66688643960E+01  0.52276908837E+02 -0.30317381058E+02  0.18337255123E+03  0.17300000000E+03 0. -1.
         -6    1    1    2    0  503  0.66688643960E+01 -0.52276908837E+02 -0.19087286248E+03  0.26294257658E+03  0.17300000000E+03 0. -1.
<mgrwt>
<rscale>  2 0.18084897E+03</rscale>
<asrwt>0</asrwt>
<pdfrwt beam="1">  1       21 0.17317299E-01 0.18084897E+03</pdfrwt>
<pdfrwt beam="2">  1       21 0.51346568E-01 0.18084897E+03</pdfrwt>
<totfact> 0.10916130E+05</totfact>
</mgrwt>
</event>
<event>
 4    1  0.4067306E+000  0.1752731E+03  0.7546771E-02  0.1172458E+00
         21   -1    0    0  501  502  0.00000000000E+00  0.00000000000E+00  0.40714633628E+03  0.40714633628E+03  0.00000000000E+00 0.  1.
         21   -1    0    0  502  503 -0.00000000000E+00 -0.00000000000E+00 -0.99580288992E+02  0.99580288992E+02  0.00000000000E+00 0.  1.
          6    1    1    2  501    0 -0.27661297880E+02  0.51482367255E+01  0.27849438277E+03  0.32905892022E+03  0.17300000000E+03 0.  1.
         -6    1    1    2    0  503  0.27661297880E+02 -0.51482367255E+01  0.29071664522E+02  0.17766770506E+03  0.17300000000E+03 0.  1.
<mgrwt>
<rscale>  2 0.17527308E+03</rscale>
<asrwt>0</asrwt>
<pdfrwt beam="1">  1       21 0.62637897E-01 0.17527308E+03</pdfrwt>
<pdfrwt beam="2">  1       21 0.15320045E-01 0.17527308E+03</pdfrwt>
<totfact> 0.89775393E+04</totfact>
</mgrwt>
</event>
<event>
 4    1  0.4067306E+000  0.2568480E+03  0.7546771E-02  0.1109052E+00
         21   -1    0    0  501  502  0.00000000000E+00  0.00000000000E+00  0.26828464446E+03  0.26828464446E+03  0.00000000000E+00 0.  1.
         21   -1    0    0  502  503 -0.00000000000E+00 -0.00000000000E+00 -0.74545526997E+03  0.74545526997E+03  0.00000000000E+00 0.  1.
          6    1    1    2  501    0  0.17979515688E+03  0.60955512342E+02  0.17634775688E+03  0.31155963198E+03  0.17300000000E+03 0.  1.
         -6    1    1    2    0  503 -0.17979515688E+03 -0.60955512342E+02 -0.65351838240E+03  0.70218028244E+03  0.17300000000E+03 0.  1.
<mgrwt>
<rscale>  2 0.25684796E+03</rscale>
<asrwt>0</asrwt>
<pdfrwt beam="1">  1       21 0.41274561E-01 0.25684796E+03</pdfrwt>
<pdfrwt beam="2">  1       21 0.11468542E+00 0.25684796E+03</pdfrwt>
<totfact> 0.31771752E+03</totfact>
</mgrwt>
</event>
<event>
 4    1  0.4067306E+000  0.1800088E+03  0.7546771E-02  0.1167795E+00
         21   -1    0    0  503  502  0.00000000000E+00  0.00000000000E+00  0.12087027065E+04  0.12087027065E+04  0.00000000000E+00 0. -1.
         21   -1    0    0  501  503 -0.00000000000E+00 -0.00000000000E+00 -0.50763726802E+02  0.50763726802E+02  0.00000000000E+00 0. -1.
          6    1    1    2  501    0  0.44980291311E+02  0.21235542742E+02  0.14637350605E+03  0.23200943549E+03  0.17300000000E+03 0. -1.
         -6    1    1    2    0  502 -0.44980291311E+02 -0.21235542742E+02  0.10115654737E+04  0.10274569979E+04  0.17300000000E+03 0. -1.
<mgrwt>
<rscale>  2 0.18000882E+03</rscale>
<asrwt>0</asrwt>
<pdfrwt beam="1">  1       21 0.18595424E+00 0.18000882E+03</pdfrwt>
<pdfrwt beam="2">  1       21 0.78098050E-02 0.18000882E+03</pdfrwt>
<totfact> 0.20954273E+04</totfact>
</mgrwt>
</event>
<event>
 4    1  0.4067306E+000  0.2020562E+03  0.7546771E-02  0.1148016E+00
         21   -1    0    0  503  502  0.00000000000E+00  0.00000000000E+00  0.12352791898E+03  0.12352791898E+03  0.00000000000E+00 0.  1.
         21   -1    0    0  501  503 -0.00000000000E+00 -0.00000000000E+00 -0.16665249812E+04  0.16665249812E+04  0.00000000000E+00 0.  1.
          6    1    1    2  501    0  0.15404575298E+02  0.10324922250E+03 -0.15728744547E+04  0.15857997203E+04  0.17300000000E+03 0.  1.
         -6    1    1    2    0  502 -0.15404575298E+02 -0.10324922250E+03  0.29877392463E+02  0.20425317982E+03  0.17300000000E+03 0.  1.
<mgrwt>
<rscale>  2 0.20205619E+03</rscale>
<asrwt>0</asrwt>
<pdfrwt beam="1">  1       21 0.19004295E-01 0.20205619E+03</pdfrwt>
<pdfrwt beam="2">  1       21 0.25638846E+00 0.20205619E+03</pdfrwt>
<totfact> 0.15315703E+03</totfact>
</mgrwt>
</event>
<event>
 4    1  0.4067306E+000  0.2023534E+03  0.7546771E-02  0.1147768E+00
         21   -1    0    0  501  502  0.00000000000E+00  0.00000000000E+00  0.21168248075E+02  0.21168248075E+02  0.00000000000E+00 0.  1.
         21   -1    0    0  502  503 -0.00000000000E+00 -0.00000000000E+00 -0.19824952700E+04  0.19824952700E+04  0.00000000000E+00 0. -1.
          6    1    1    2  501    0 -0.95947145908E+02  0.42568189704E+02 -0.11367779860E+04  0.11546476064E+04  0.17300000000E+03 0.  1.
         -6    1    1    2    0  503  0.95947145908E+02 -0.42568189704E+02 -0.82454903595E+03  0.84901591167E+03  0.17300000000E+03 0. -1.
<mgrwt>
<rscale>  2 0.20235342E+03</rscale>
<asrwt>0</asrwt>
<pdfrwt beam="1">  1       21 0.32566524E-02 0.20235342E+03</pdfrwt>
<pdfrwt beam="2">  1       21 0.30499938E+00 0.20235342E+03</pdfrwt>
<totfact> 0.17470275E+04</totfact>
</mgrwt>
</event>
<event>
 4    1  0.4067306E+000  0.2381890E+03  0.7546771E-02  0.1121005E+00
         21   -1    0    0  501  502  0.00000000000E+00  0.00000000000E+00  0.14745851193E+03  0.14745851193E+03  0.00000000000E+00 0.  1.
         21   -1    0    0  502  503 -0.00000000000E+00 -0.00000000000E+00 -0.44692302496E+03  0.44692302496E+03  0.00000000000E+00 0. -1.
          6    1    1    2  501    0  0.14018440752E+03 -0.84577240611E+02 -0.26058237624E+03  0.35303987388E+03  0.17300000000E+03 0. -1.
         -6    1    1    2    0  503 -0.14018440752E+03  0.84577240611E+02 -0.38882136787E+02  0.24134166300E+03  0.17300000000E+03 0.  1.
<mgrwt>
<rscale>  2 0.23818895E+03</rscale>
<asrwt>0</asrwt>
<pdfrwt beam="1">  1       21 0.22685925E-01 0.23818895E+03</pdfrwt>
<pdfrwt beam="2">  1       21 0.68757387E-01 0.23818895E+03</pdfrwt>
<totfact> 0.34314716E+04</totfact>
</mgrwt>
</event>
<event>
 4    1  0.4067306E+000  0.1909020E+03  0.7546771E-02  0.1157650E+00
         21   -1    0    0  503  502  0.00000000000E+00  0.00000000000E+00  0.98790256046E+02  0.98790256046E+02  0.00000000000E+00 0. -1.
         21   -1    0    0  501  503 -0.00000000000E+00 -0.00000000000E+00 -0.39245475909E+03  0.39245475909E+03  0.00000000000E+00 0.  1.
          6    1    1    2  501    0  0.47523002690E+02 -0.65239138154E+02 -0.20700864839E+03  0.28159574116E+03  0.17300000000E+03 0.  1.
         -6    1    1    2    0  502 -0.47523002690E+02  0.65239138154E+02 -0.86655854653E+02  0.20964927397E+03  0.17300000000E+03 0. -1.
<mgrwt>
<rscale>  2 0.19090202E+03</rscale>
<asrwt>0</asrwt>
<pdfrwt beam="1">  1       21 0.15198501E-01 0.19090202E+03</pdfrwt>
<pdfrwt beam="2">  1       21 0.60377654E-01 0.19090202E+03</pdfrwt>
<totfact> 0.97983448E+04</totfact>
</mgrwt>
</event>
<event>
 4    1  0.4067306E+000  0.2316654E+03  0.7546771E-02  0.1125473E+00
         21   -1    0    0  501  502  0.00000000000E+00  0.00000000000E+00  0.51890170582E+03  0.51890170582E+03  0.00000000000E+00 0. -1.
         21   -1    0    0  502  503 -0.00000000000E+00 -0.00000000000E+00 -0.14811656377E+03  0.14811656377E+03  0.00000000000E+00 0. -1.
          6    1    1    2  501    0 -0.24044151516E+02  0.15218987085E+03  0.36858391074E+03  0.43534236788E+03  0.17300000000E+03 0. -1.
         -6    1    1    2    0  503  0.24044151516E+02 -0.15218987085E+03  0.22012313047E+01  0.23167590171E+03  0.17300000000E+03 0. -1.
<mgrwt>
<rscale>  2 0.23166544E+03</rscale>
<asrwt>0</asrwt>
<pdfrwt beam="1">  1       21 0.79831031E-01 0.23166544E+03</pdfrwt>
<pdfrwt beam="2">  1       21 0.22787164E-01 0.23166544E+03</pdfrwt>
<totfact> 0.24429242E+04</totfact>
</mgrwt>
</event>
<event>
 4    1  0.4067306E+000  0.1839098E+03  0.7546771E-02  0.1164072E+00
         21   -1    0    0  503  502  0.00000000000E+00  0.00000000000E+00  0.51652960242E+02  0.51652960242E+02  0.00000000000E+00 0. -1.
         21   -1    0    0  501  503 -0.00000000000E+00 -0.00000000000E+00 -0.73712659862E+03  0.73712659862E+03  0.00000000000E+00 0. -1.
          6    1    1    2  501    0 -0.72752397186E+00 -0.62396224090E+02 -0.47453251304E+03  0.50892428121E+03  0.17300000000E+03 0. -1.
         -6    1    1    2    0  502  0.72752397186E+00  0.62396224090E+02 -0.21094112534E+03  0.27985527766E+03  0.17300000000E+03 0. -1.
<mgrwt>
<rscale>  2 0.18390981E+03</rscale>
<asrwt>0</asrwt>
<pdfrwt beam="1">  1       21 0.79466101E-02 0.18390981E+03</pdfrwt>
<pdfrwt beam="2">  1       21 0.11340408E+00 0.18390981E+03</pdfrwt>
<totfact> 0.73938388E+04</totfact>
</mgrwt>
</event>
<event>
 4    1  0.4067306E+000  0.2139792E+03  0.7546771E-02  0.1138453E+00
         21   -1    0    0  503  502  0.00000000000E+00  0.00000000000E+00  0.43091863153E+03  0.43091863153E+03  0.00000000000E+00 0. -1.
         21   -1    0    0  501  503 -0.00000000000E+00 -0.00000000000E+00 -0.18027958145E+03  0.18027958145E+03  0.00000000000E+00 0. -1.
          6    1    1    2  501    0 -0.92973480470E+02  0.84935481088E+02  0.32114439469E+03  0.38590261240E+03  0.17300000000E+03 0. -1.
         -6    1    1    2    0  502  0.92973480470E+02 -0.84935481088E+02 -0.70505344614E+02  0.22529560057E+03  0.17300000000E+03 0. -1.
<mgrwt>
<rscale>  2 0.21397921E+03</rscale>
<asrwt>0</asrwt>
<pdfrwt beam="1">  1       21 0.66295174E-01 0.21397921E+03</pdfrwt>
<pdfrwt beam="2">  1       21 0.27735320E-01 0.21397921E+03</pdfrwt>
<totfact> 0.25597759E+04</totfact>
</mgrwt>
</event>
<event>
 4    1  0.4067306E+000  0.1925045E+03  0.7546771E-02  0.1156222E+00
         21   -1    0    0  503  502  0.00000000000E+00  0.00000000000E+00  0.15483522428E+03  0.15483522428E+03  0.00000000000E+00 0.  1.
         21   -1    0    0  501  503 -0.00000000000E+00 -0.00000000000E+00 -0.33840467533E+03  0.33840467533E+03  0.00000000000E+00 0. -1.
          6    1    1    2  501    0  0.83394034295E+02 -0.13206208890E+02 -0.22522090395E+03  0.29628098907E+03  0.17300000000E+03 0. -1.
         -6    1    1    2    0  502 -0.83394034295E+02  0.13206208890E+02  0.41651452902E+02  0.19695891053E+03  0.17300000000E+03 0.  1.
<mgrwt>
<rscale>  2 0.19250446E+03</rscale>
<asrwt>0</asrwt>
<pdfrwt beam="1">  1       21 0.23820804E-01 0.19250446E+03</pdfrwt>
<pdfrwt beam="2">  1       21 0.52062257E-01 0.19250446E+03</pdfrwt>
<totfact> 0.58156599E+04</totfact>
</mgrwt>
</event>
<event>
 4    1  0.4067306E+000  0.1754474E+03  0.7546771E-02  0.1172283E+00
         21   -1    0    0  503  502  0.00000000000E+00  0.00000000000E+00  0.98665174558E+03  0.98665174558E+03  0.00000000000E+00 0.  1.
         21   -1    0    0  501  503 -0.00000000000E+00 -0.00000000000E+00 -0.31838355860E+02  0.31838355860E+02  0.00000000000E+00 0.  1.
          6    1    1    2  501    0 -0.12834928075E+02 -0.26230597374E+02  0.40519839843E+03  0.44155126736E+03  0.17300000000E+03 0.  1.
         -6    1    1    2    0  502  0.12834928075E+02  0.26230597374E+02  0.54961499129E+03  0.57693883408E+03  0.17300000000E+03 0.  1.
<mgrwt>
<rscale>  2 0.17544737E+03</rscale>
<asrwt>0</asrwt>
<pdfrwt beam="1">  1       21 0.15179255E+00 0.17544737E+03</pdfrwt>
<pdfrwt beam="2">  1       21 0.48982094E-02 0.17544737E+03</pdfrwt>
<totfact> 0.81396502E+04</totfact>
</mgrwt>
</event>
<event>
 4    1  0.4067306E+000  0.2399371E+03  0.7546771E-02  0.1119835E+00
         21   -1    0    0  503  502  0.00000000000E+00  0.00000000000E+00  0.83037487031E+02  0.83037487031E+02  0.00000000000E+00 0. -1.
         21   -1    0    0  501  503 -0.00000000000E+00 -0.00000000000E+00 -0.71358068803E+03  0.71358068803E+03  0.00000000000E+00 0. -1.
          6    1    1    2  501    0 -0.15719849606E+03  0.54124134942E+02 -0.38242267806E+03  0.45146084419E+03  0.17300000000E+03 0. -1.
         -6    1    1    2    0  502  0.15719849606E+03 -0.54124134942E+02 -0.24812052295E+03  0.34515733087E+03  0.17300000000E+03 0. -1.
<mgrwt>
<rscale>  2 0.23993705E+03</rscale>
<asrwt>0</asrwt>
<pdfrwt beam="1">  1       21 0.12774998E-01 0.23993705E+03</pdfrwt>
<pdfrwt beam="2">  1       21 0.10978164E+00 0.23993705E+03</pdfrwt>
<totfact> 0.33572922E+04</totfact>
</mgrwt>
</event>
<event>
 4    1  0.4067306E+000  0.2180957E+03  0.7546771E-02  0.1135311E+00
         21   -1    0    0  503  502  0.00000000000E+00  0.00000000000E+00  0.11102345430E+03  0.11102345430E+03  0.00000000000E+00 0.  1.
         21   -1    0    0  501  503 -0.00000000000E+00 -0.00000000000E+00 -0.43078891540E+03  0.43078891540E+03  0.00000000000E+00 0. -1.
          6    1    1    2  501    0 -0.56356869668E+02  0.12025237575E+03 -0.13983419991E+03  0.25907399348E+03  0.17300000000E+03 0.  1.
         -6    1    1    2    0  502  0.56356869668E+02 -0.12025237575E+03 -0.17993126120E+03  0.28273837622E+03  0.17300000000E+03 0. -1.
<mgrwt>
<rscale>  2 0.21809569E+03</rscale>
<asrwt>0</asrwt>
<pdfrwt beam="1">  1       21 0.17080532E-01 0.21809569E+03</pdfrwt>
<pdfrwt beam="2">  1       21 0.66275217E-01 0.21809569E+03</pdfrwt>
<totfact> 0.63869256E+04</totfact>
</mgrwt>
</event>
<event>
 4    1  0.4067306E+000  0.1744279E+03  0.7546771E-02  0.1173307E+00
         21   -1    0    0  501  502  0.00000000000E+00  0.00000000000E+00  0.62186060325E+03  0.62186060325E+03  0.00000000000E+00 0. -1.
         21   -1    0    0  502  503 -0.00000000000E+00 -0.00000000000E+00 -0.92283862423E+02  0.92283862423E+02  0.00000000000E+00 0. -1.
          6    1    1    2  501    0  0.93128920403E+01 -0.20232663487E+02  0.50954114427E+03  0.53856965040E+03  0.17300000000E+03 0. -1.
         -6    1    1    2    0  503 -0.93128920403E+01  0.20232663487E+02  0.20035596564E+02  0.17557481528E+03  0.17300000000E+03 0. -1.
<mgrwt>
<rscale>  2 0.17442790E+03</rscale>
<asrwt>0</asrwt>
<pdfrwt beam="1">  1       21 0.95670859E-01 0.17442790E+03</pdfrwt>
<pdfrwt beam="2">  1       21 0.14197518E-01 0.17442790E+03</pdfrwt>
<totfact> 0.39884529E+04</totfact>
</mgrwt>
</event>
<event>
 4    1  0.4067306E+000  0.2368695E+03  0.7546771E-02  0.1121896E+00
         21   -1    0    0  503  502  0.00000000000E+00  0.00000000000E+00  0.10675841387E+04  0.10675841387E+04  0.00000000000E+00 0. -1.
         21   -1    0    0  501  503 -0.00000000000E+00 -0.00000000000E+00 -0.59445431440E+02  0.59445431440E+02  0.00000000000E+00 0. -1.
          6    1    1    2  501    0 -0.13470992074E+02 -0.16123485993E+03  0.69591922375E+03  0.73512632497E+03  0.17300000000E+03 0. -1.
         -6    1    1    2    0  502  0.13470992074E+02  0.16123485993E+03  0.31221948347E+03  0.39190324513E+03  0.17300000000E+03 0. -1.
<mgrwt>
<rscale>  2 0.23686947E+03</rscale>
<asrwt>0</asrwt>
<pdfrwt beam="1">  1       21 0.16424370E+00 0.23686947E+03</pdfrwt>
<pdfrwt beam="2">  1       21 0.91454518E-02 0.23686947E+03</pdfrwt>
<totfact> 0.21644959E+04</totfact>
</mgrwt>
</event>
<event>
 4    1  0.4067306E+000  0.2500970E+03  0.7546771E-02  0.1113244E+00
         21   -1    0    0  503  502  0.00000000000E+00  0.00000000000E+00  0.77808031874E+03  0.77808031874E+03  0.00000000000E+00 0.  1.
         21   -1    0    0  501  503 -0.00000000000E+00 -0.00000000000E+00 -0.86720371466E+02  0.86720371466E+02  0.00000000000E+00 0. -1.
          6    1    1    2  501    0  0.10287501270E+03 -0.14844611755E+03  0.22883771080E+03  0.33899146883E+03  0.17300000000E+03 0. -1.
         -6    1    1    2    0  502 -0.10287501270E+03  0.14844611755E+03  0.46252223647E+03  0.52580922137E+03  0.17300000000E+03 0.  1.
<mgrwt>
<rscale>  2 0.25009702E+03</rscale>
<asrwt>0</asrwt>
<pdfrwt beam="1">  1       21 0.11970466E+00 0.25009702E+03</pdfrwt>
<pdfrwt beam="2">  1       21 0.13341596E-01 0.25009702E+03</pdfrwt>
<totfact> 0.24965280E+04</totfact>
</mgrwt>
</event>
<event>
 4    1  0.4067306E+000  0.1746993E+03  0.7546771E-02  0.1173034E+00
         21   -1    0    0  501  502  0.00000000000E+00  0.00000000000E+00  0.22106037655E+03  0.22106037655E+03  0.00000000000E+00 0. -1.
         21   -1    0    0  502  503 -0.00000000000E+00 -0.00000000000E+00 -0.18178733718E+03  0.18178733718E+03  0.00000000000E+00 0. -1.
          6    1    1    2  501    0 -0.16451948667E+02 -0.17893405696E+02 -0.79150550525E+02  0.19179324866E+03  0.17300000000E+03 0. -1.
         -6    1    1    2    0  503  0.16451948667E+02  0.17893405696E+02  0.11842358990E+03  0.21105446507E+03  0.17300000000E+03 0. -1.
<mgrwt>
<rscale>  2 0.17469929E+03</rscale>
<asrwt>0</asrwt>
<pdfrwt beam="1">  1       21 0.34009289E-01 0.17469929E+03</pdfrwt>
<pdfrwt beam="2">  1       21 0.27967282E-01 0.17469929E+03</pdfrwt>
<totfact> 0.10240882E+05</totfact>
</mgrwt>
</event>
<event>
 4    1  0.4067306E+000  0.2132224E+03  0.7546771E-02  0.1139039E+00
         21   -1    0    0  501  502  0.00000000000E+00  0.00000000000E+00  0.16455645741E+03  0.16455645741E+03  0.00000000000E+00 0.  1.
         21   -1    0    0  502  503 -0.00000000000E+00 -0.00000000000E+00 -0.33977413730E+03  0.33977413730E+03  0.00000000000E+00 0.  1.
          6    1    1    2  501    0  0.11750840204E+03 -0.41551908149E+02  0.21398143670E+02  0.21429341141E+03  0.17300000000E+03 0.  1.
         -6    1    1    2    0  503 -0.11750840204E+03  0.41551908149E+02 -0.19661582356E+03  0.29003718330E+03  0.17300000000E+03 0.  1.
<mgrwt>
<rscale>  2 0.21322239E+03</rscale>
<asrwt>0</asrwt>
<pdfrwt beam="1">  1       21 0.25316378E-01 0.21322239E+03</pdfrwt>
<pdfrwt beam="2">  1       21 0.52272944E-01 0.21322239E+03</pdfrwt>
<totfact> 0.50837460E+04</totfact>
</mgrwt>
</event>
<event>
 4    1  0.4067306E+000  0.1903659E+03  0.7546771E-02  0.1158132E+00
         21   -1    0    0  501  502  0.00000000000E+00  0.00000000000E+00  0.16438199738E+04  0.16438199738E+04  0.00000000000E+00 0. -1.
         21   -1    0    0  502  503 -0.00000000000E+00 -0.00000000000E+00 -0.26373466324E+02  0.26373466324E+02  0.00000000000E+00 0. -1.
          6    1    1    2  501    0 -0.19124172891E+01 -0.79413568905E+02  0.11470098258E+04  0.11626997517E+04  0.17300000000E+03 0. -1.
         -6    1    1    2    0  503  0.19124172891E+01  0.79413568905E+02  0.47043668175E+03  0.50749368844E+03  0.17300000000E+03 0. -1.
<mgrwt>
<rscale>  2 0.19036589E+03</rscale>
<asrwt>0</asrwt>
<pdfrwt beam="1">  1       21 0.25289530E+00 0.19036589E+03</pdfrwt>
<pdfrwt beam="2">  1       21 0.40574576E-02 0.19036589E+03</pdfrwt>
<totfact> 0.24511032E+04</totfact>
</mgrwt>
</event>
<event>
 4    1  0.4067306E+000  0.1741727E+03  0.7546771E-02  0.1173565E+00
         21   -1    0    0  501  502  0.00000000000E+00  0.00000000000E+00  0.51211509554E+02  0.51211509554E+02  0.00000000000E+00 0. -1.
         21   -1    0    0  502  503 -0.00000000000E+00 -0.00000000000E+00 -0.71048465035E+03  0.71048465035E+03  0.00000000000E+00 0. -1.
          6    1    1    2  501    0  0.49871871591E+01  0.19551160852E+02 -0.17435217614E+03  0.24644431674E+03  0.17300000000E+03 0. -1.
         -6    1    1    2    0  503 -0.49871871591E+01 -0.19551160852E+02 -0.48492096465E+03  0.51525184316E+03  0.17300000000E+03 0. -1.
<mgrwt>
<rscale>  2 0.17417267E+03</rscale>
<asrwt>0</asrwt>
<pdfrwt beam="1">  1       21 0.78786938E-02 0.17417267E+03</pdfrwt>
<pdfrwt beam="2">  1       21 0.10930533E+00 0.17417267E+03</pdfrwt>
<totfact> 0.82411460E+04</totfact>
</mgrwt>
</event>
<event>
 4    1  0.4067306E+000  0.3532301E+03  0.7546771E-02  0.1061297E+00
         21   -1    0    0  501  502  0.00000000000E+00  0.00000000000E+00  0.21888403828E+03  0.21888403828E+03  0.00000000000E+00 0. -1.
         21   -1    0    0  502  503 -0.00000000000E+00 -0.00000000000E+00 -0.60379925317E+03  0.60379925317E+03  0.00000000000E+00 0. -1.
          6    1    1    2  501    0 -0.12804372690E+03 -0.28008445781E+03 -0.95185835291E+02  0.36583034694E+03  0.17300000000E+03 0. -1.
         -6    1    1    2    0  503  0.12804372690E+03  0.28008445781E+03 -0.28972937960E+03  0.45685294451E+03  0.17300000000E+03 0. -1.
<mgrwt>
<rscale>  2 0.35323009E+03</rscale>
<asrwt>0</asrwt>
<pdfrwt beam="1">  1       21 0.33674468E-01 0.35323009E+03</pdfrwt>
<pdfrwt beam="2">  1       21 0.92892192E-01 0.35323009E+03</pdfrwt>
<totfact> 0.75980150E+03</totfact>
</mgrwt>
</event>
<event>
 4    1  0.4067306E+000  0.3053287E+03  0.7546771E-02  0.1082607E+00
         21   -1    0    0  501  502  0.00000000000E+00  0.00000000000E+00  0.11405220761E+03  0.11405220761E+03  0.00000000000E+00 0. -1.
         21   -1    0    0  502  503 -0.00000000000E+00 -0.00000000000E+00 -0.82328146364E+03  0.82328146364E+03  0.00000000000E+00 0.  1.
          6    1    1    2  501    0 -0.24470272501E+03 -0.58456655896E+02 -0.31498229625E+03  0.43867921218E+03  0.17300000000E+03 0. -1.
         -6    1    1    2    0  503  0.24470272501E+03  0.58456655896E+02 -0.39424695978E+03  0.49865445906E+03  0.17300000000E+03 0. -1.
<mgrwt>
<rscale>  2 0.30532868E+03</rscale>
<asrwt>0</asrwt>
<pdfrwt beam="1">  1       21 0.17546494E-01 0.30532868E+03</pdfrwt>
<pdfrwt beam="2">  1       21 0.12665868E+00 0.30532868E+03</pdfrwt>
<totfact> 0.12743747E+04</totfact>
</mgrwt>
</event>
<event>
 4    1  0.4067306E+000  0.1905042E+03  0.7546771E-02  0.1158007E+00
         21   -1    0    0  501  502  0.00000000000E+00  0.00000000000E+00  0.18780364465E+03  0.18780364465E+03  0.00000000000E+00 0.  1.
         21   -1    0    0  502  503 -0.00000000000E+00 -0.00000000000E+00 -0.23323830961E+03  0.23323830961E+03  0.00000000000E+00 0.  1.
          6    1    1    2  501    0  0.77080350637E+02 -0.20530114108E+02  0.64458542228E+02  0.20111382276E+03  0.17300000000E+03 0.  1.
         -6    1    1    2    0  503 -0.77080350637E+02  0.20530114108E+02 -0.10989320718E+03  0.21992813150E+03  0.17300000000E+03 0.  1.
<mgrwt>
<rscale>  2 0.19050424E+03</rscale>
<asrwt>0</asrwt>
<pdfrwt beam="1">  1       21 0.28892868E-01 0.19050424E+03</pdfrwt>
<pdfrwt beam="2">  1       21 0.35882817E-01 0.19050424E+03</pdfrwt>
<totfact> 0.85936933E+04</totfact>
</mgrwt>
</event>
<event>
 4    1  0.4067306E+000  0.2484822E+03  0.7546771E-02  0.1114268E+00
         21   -1    0    0  503  502  0.00000000000E+00  0.00000000000E+00  0.66529400219E+03  0.66529400219E+03  0.00000000000E+00 0.  1.
         21   -1    0    0  501  503 -0.00000000000E+00 -0.00000000000E+00 -0.15966074208E+03  0.15966074208E+03  0.00000000000E+00 0.  1.
          6    1    1    2  501    0 -0.14396736765E+03  0.10529872893E+03 -0.14094345816E+02  0.24888165028E+03  0.17300000000E+03 0.  1.
         -6    1    1    2    0  502  0.14396736765E+03 -0.10529872893E+03  0.51972760592E+03  0.57607309399E+03  0.17300000000E+03 0.  1.
<mgrwt>
<rscale>  2 0.24848224E+03</rscale>
<asrwt>0</asrwt>
<pdfrwt beam="1">  1       21 0.10235292E+00 0.24848224E+03</pdfrwt>
<pdfrwt beam="2">  1       21 0.24563191E-01 0.24848224E+03</pdfrwt>
<totfact> 0.11749910E+04</totfact>
</mgrwt>
</event>
<event>
 4    1  0.4067306E+000  0.1938707E+03  0.7546771E-02  0.1155016E+00
         21   -1    0    0  501  502  0.00000000000E+00  0.00000000000E+00  0.24042509434E+03  0.24042509434E+03  0.00000000000E+00 0. -1.
         21   -1    0    0  502  503 -0.00000000000E+00 -0.00000000000E+00 -0.33841156706E+03  0.33841156706E+03  0.00000000000E+00 0. -1.
          6    1    1    2  501    0 -0.82706046688E+02  0.28575367249E+02  0.16329967822E+03  0.25348101838E+03  0.17300000000E+03 0. -1.
         -6    1    1    2    0  503  0.82706046688E+02 -0.28575367249E+02 -0.26128615094E+03  0.32535564302E+03  0.17300000000E+03 0. -1.
<mgrwt>
<rscale>  2 0.19387068E+03</rscale>
<asrwt>0</asrwt>
<pdfrwt beam="1">  1       21 0.36988476E-01 0.19387068E+03</pdfrwt>
<pdfrwt beam="2">  1       21 0.52063318E-01 0.19387068E+03</pdfrwt>
<totfact> 0.24666623E+04</totfact>
</mgrwt>
</event>
<event>
 4    1  0.4067306E+000  0.2543702E+03  0.7546771E-02  0.1110574E+00
         21   -1    0    0  501  502  0.00000000000E+00  0.00000000000E+00  0.52618772880E+03  0.52618772880E+03  0.00000000000E+00 0.  1.
         21   -1    0    0  502  503 -0.00000000000E+00 -0.00000000000E+00 -0.30513408170E+03  0.30513408170E+03  0.00000000000E+00 0.  1.
          6    1    1    2  501    0  0.18638626271E+03  0.59453877595E+01  0.43169146672E+03  0.50106058417E+03  0.17300000000E+03 0.  1.
         -6    1    1    2    0  503 -0.18638626271E+03 -0.59453877595E+01 -0.21063781962E+03  0.33026122633E+03  0.17300000000E+03 0.  1.
<mgrwt>
<rscale>  2 0.25437018E+03</rscale>
<asrwt>0</asrwt>
<pdfrwt beam="1">  1       21 0.80951958E-01 0.25437018E+03</pdfrwt>
<pdfrwt beam="2">  1       21 0.46943705E-01 0.25437018E+03</pdfrwt>
<totfact> 0.55748785E+03</totfact>
</mgrwt>
</event>
<event>
 4    1  0.4067306E+000  0.1854915E+03  0.7546771E-02  0.1162592E+00
         21   -1    0    0  501  502  0.00000000000E+00  0.00000000000E+00  0.10113115497E+03  0.10113115497E+03  0.00000000000E+00 0.  1.
         21   -1    0    0  502  503 -0.00000000000E+00 -0.00000000000E+00 -0.46766750310E+03  0.46766750310E+03  0.00000000000E+00 0.  1.
          6    1    1    2  501    0  0.22744072225E+02  0.62934914088E+02 -0.34804109699E+02  0.18872843528E+03  0.17300000000E+03 0.  1.
         -6    1    1    2    0  503 -0.22744072225E+02 -0.62934914088E+02 -0.33173223843E+03  0.38007022278E+03  0.17300000000E+03 0.  1.
<mgrwt>
<rscale>  2 0.18549150E+03</rscale>
<asrwt>0</asrwt>
<pdfrwt beam="1">  1       21 0.15558640E-01 0.18549150E+03</pdfrwt>
<pdfrwt beam="2">  1       21 0.71948844E-01 0.18549150E+03</pdfrwt>
<totfact> 0.64197289E+04</totfact>
</mgrwt>
</event>
<event>
 4    1  0.4067306E+000  0.1960302E+03  0.7546771E-02  0.1153132E+00
         21   -1    0    0  503  502  0.00000000000E+00  0.00000000000E+00  0.15720881032E+04  0.15720881032E+04  0.00000000000E+00 0.  1.
         21   -1    0    0  501  503 -0.00000000000E+00 -0.00000000000E+00 -0.31237350885E+02  0.31237350885E+02  0.00000000000E+00 0.  1.
          6    1    1    2  501    0  0.11297940811E+02  0.91494296305E+02  0.39657127857E+03  0.44237611680E+03  0.17300000000E+03 0.  1.
         -6    1    1    2    0  502 -0.11297940811E+02 -0.91494296305E+02  0.11442794737E+04  0.11609493372E+04  0.17300000000E+03 0.  1.
<mgrwt>
<rscale>  2 0.19603023E+03</rscale>
<asrwt>0</asrwt>
<pdfrwt beam="1">  1       21 0.24185965E+00 0.19603023E+03</pdfrwt>
<pdfrwt beam="2">  1       21 0.48057475E-02 0.19603023E+03</pdfrwt>
<totfact> 0.21305089E+04</totfact>
</mgrwt>
</event>
<event>
 4    1  0.4067306E+000  0.1995659E+03  0.7546771E-02  0.1150106E+00
         21   -1    0    0  501  502  0.00000000000E+00  0.00000000000E+00  0.39049516065E+03  0.39049516065E+03  0.00000000000E+00 0. -1.
         21   -1    0    0  502  503 -0.00000000000E+00 -0.00000000000E+00 -0.11806077224E+03  0.11806077224E+03  0.00000000000E+00 0. -1.
          6    1    1    2  501    0 -0.26895574452E+02 -0.95781961862E+02  0.23003296691E+03  0.30453525577E+03  0.17300000000E+03 0. -1.
         -6    1    1    2    0  503  0.26895574452E+02  0.95781961862E+02  0.42401421502E+02  0.20402067711E+03  0.17300000000E+03 0. -1.
<mgrwt>
<rscale>  2 0.19956592E+03</rscale>
<asrwt>0</asrwt>
<pdfrwt beam="1">  1       21 0.60076178E-01 0.19956592E+03</pdfrwt>
<pdfrwt beam="2">  1       21 0.18163196E-01 0.19956592E+03</pdfrwt>
<totfact> 0.71129639E+04</totfact>
</mgrwt>
</event>
<event>
 4    1  0.4067306E+000  0.1988753E+03  0.7546771E-02  0.1150691E+00
         21   -1    0    0  501  502  0.00000000000E+00  0.00000000000E+00  0.14791427004E+03  0.14791427004E+03  0.00000000000E+00 0. -1.
         21   -1    0    0  502  503 -0.00000000000E+00 -0.00000000000E+00 -0.31957370236E+03  0.31957370236E+03  0.00000000000E+00 0. -1.
          6    1    1    2  501    0  0.28682856649E+01  0.98051807077E+02  0.86211296372E+01  0.19906207024E+03  0.17300000000E+03 0. -1.
         -6    1    1    2    0  503 -0.28682856649E+01 -0.98051807077E+02 -0.18028056196E+03  0.26842590216E+03  0.17300000000E+03 0. -1.
<mgrwt>
<rscale>  2 0.19887530E+03</rscale>
<asrwt>0</asrwt>
<pdfrwt beam="1">  1       21 0.22756042E-01 0.19887530E+03</pdfrwt>
<pdfrwt beam="2">  1       21 0.49165185E-01 0.19887530E+03</pdfrwt>
<totfact> 0.71272569E+04</totfact>
</mgrwt>
</event>
<event>
 4    1  0.4067306E+000  0.2103043E+03  0.7546771E-02  0.1141325E+00
         21   -1    0    0  503  502  0.00000000000E+00  0.00000000000E+00  0.28228842321E+03  0.28228842321E+03  0.00000000000E+00 0. -1.
         21   -1    0    0  501  503 -0.00000000000E+00 -0.00000000000E+00 -0.25634970332E+03  0.25634970332E+03  0.00000000000E+00 0. -1.
          6    1    1    2  501    0  0.89918992047E+02  0.78825625650E+02 -0.15496530005E+03  0.26123198236E+03  0.17300000000E+03 0.  1.
         -6    1    1    2    0  502 -0.89918992047E+02 -0.78825625650E+02  0.18090401994E+03  0.27740614416E+03  0.17300000000E+03 0.  1.
<mgrwt>
<rscale>  2 0.21030431E+03</rscale>
<asrwt>0</asrwt>
<pdfrwt beam="1">  1       21 0.43428988E-01 0.21030431E+03</pdfrwt>
<pdfrwt beam="2">  1       21 0.39438416E-01 0.21030431E+03</pdfrwt>
<totfact> 0.31288418E+04</totfact>
</mgrwt>
</event>
<event>
 4    1  0.4067306E+000  0.3450400E+03  0.7546771E-02  0.1064669E+00
         21   -1    0    0  503  502  0.00000000000E+00  0.00000000000E+00  0.28309750338E+03  0.28309750338E+03  0.00000000000E+00 0.  1.
         21   -1    0    0  501  503 -0.00000000000E+00 -0.00000000000E+00 -0.44346671597E+03  0.44346671597E+03  0.00000000000E+00 0. -1.
          6    1    1    2  501    0  0.16070567870E+03  0.25158956642E+03 -0.16279306719E+03  0.38151567179E+03  0.17300000000E+03 0. -1.
         -6    1    1    2    0  502 -0.16070567870E+03 -0.25158956642E+03  0.24238546002E+01  0.34504854755E+03  0.17300000000E+03 0.  1.
<mgrwt>
<rscale>  2 0.34504003E+03</rscale>
<asrwt>0</asrwt>
<pdfrwt beam="1">  1       21 0.43553462E-01 0.34504003E+03</pdfrwt>
<pdfrwt beam="2">  1       21 0.68225649E-01 0.34504003E+03</pdfrwt>
<totfact> 0.91662727E+03</totfact>
</mgrwt>
</event>
<event>
 4    1  0.4067306E+000  0.1976135E+03  0.7546771E-02  0.1151768E+00
         21   -1    0    0  503  502  0.00000000000E+00  0.00000000000E+00  0.16080251342E+03  0.16080251342E+03  0.00000000000E+00 0.  1.
         21   -1    0    0  501  503 -0.00000000000E+00 -0.00000000000E+00 -0.28191888214E+03  0.28191888214E+03  0.00000000000E+00 0.  1.
          6    1    1    2  501    0  0.42367460167E+01  0.95415645703E+02 -0.14296190797E+03  0.24390408482E+03  0.17300000000E+03 0.  1.
         -6    1    1    2    0  502 -0.42367460167E+01 -0.95415645703E+02  0.21845539255E+02  0.19881731073E+03  0.17300000000E+03 0.  1.
<mgrwt>
<rscale>  2 0.19761350E+03</rscale>
<asrwt>0</asrwt>
<pdfrwt beam="1">  1       21 0.24738849E-01 0.19761350E+03</pdfrwt>
<pdfrwt beam="2">  1       21 0.43372135E-01 0.19761350E+03</pdfrwt>
<totfact> 0.78800462E+04</totfact>
</mgrwt>
</event>
<event>
 4    1  0.4067306E+000  0.1826892E+03  0.7546771E-02  0.1165225E+00
         21   -1    0    0  503  502  0.00000000000E+00  0.00000000000E+00  0.19330817327E+03  0.19330817327E+03  0.00000000000E+00 0. -1.
         21   -1    0    0  501  503 -0.00000000000E+00 -0.00000000000E+00 -0.17437407946E+03  0.17437407946E+03  0.00000000000E+00 0. -1.
          6    1    1    2  501    0  0.58092715083E+02  0.84615223463E+01  0.27727882874E+02  0.18478148282E+03  0.17300000000E+03 0. -1.
         -6    1    1    2    0  502 -0.58092715083E+02 -0.84615223463E+01 -0.87937890707E+01  0.18290076991E+03  0.17300000000E+03 0. -1.
<mgrwt>
<rscale>  2 0.18268925E+03</rscale>
<asrwt>0</asrwt>
<pdfrwt beam="1">  1       21 0.29739719E-01 0.18268925E+03</pdfrwt>
<pdfrwt beam="2">  1       21 0.26826781E-01 0.18268925E+03</pdfrwt>
<totfact> 0.14388327E+05</totfact>
</mgrwt>
</event>
<event>
 4    1  0.4067306E+000  0.2420203E+03  0.7546771E-02  0.1118454E+00
         21   -1    0    0  503  502  0.00000000000E+00  0.00000000000E+00  0.68279760853E+03  0.68279760853E+03  0.00000000000E+00 0. -1.
         21   -1    0    0  501  503 -0.00000000000E+00 -0.00000000000E+00 -0.29053772921E+03  0.29053772921E+03  0.00000000000E+00 0.  1.
          6    1    1    2  501    0  0.10483184130E+03  0.13287245816E+03 -0.21242085272E+03  0.32201929097E+03  0.17300000000E+03 0.  1.
         -6    1    1    2    0  502 -0.10483184130E+03 -0.13287245816E+03  0.60468073203E+03  0.65131604677E+03  0.17300000000E+03 0. -1.
<mgrwt>
<rscale>  2 0.24202026E+03</rscale>
<asrwt>0</asrwt>
<pdfrwt beam="1">  1       21 0.10504579E+00 0.24202026E+03</pdfrwt>
<pdfrwt beam="2">  1       21 0.44698112E-01 0.24202026E+03</pdfrwt>
<totfact> 0.33751076E+03</totfact>
</mgrwt>
</event>
<event>
 4    1  0.4067306E+000  0.1853043E+03  0.7546771E-02  0.1162766E+00
         21   -1    0    0  503  502  0.00000000000E+00  0.00000000000E+00  0.14150509512E+03  0.14150509512E+03  0.00000000000E+00 0. -1.
         21   -1    0    0  501  503 -0.00000000000E+00 -0.00000000000E+00 -0.32369408066E+03  0.32369408066E+03  0.00000000000E+00 0.  1.
          6    1    1    2  501    0  0.57256920583E+02  0.33620310722E+02 -0.20747343264E+03  0.27817783071E+03  0.17300000000E+03 0.  1.
         -6    1    1    2    0  502 -0.57256920583E+02 -0.33620310722E+02  0.25284447102E+02  0.18702134507E+03  0.17300000000E+03 0. -1.
<mgrwt>
<rscale>  2 0.18530429E+03</rscale>
<asrwt>0</asrwt>
<pdfrwt beam="1">  1       21 0.21770015E-01 0.18530429E+03</pdfrwt>
<pdfrwt beam="2">  1       21 0.49799089E-01 0.18530429E+03</pdfrwt>
<totfact> 0.75886215E+04</totfact>
</mgrwt>
</event>
<event>
 4    1  0.4067306E+000  0.2207227E+03  0.7546771E-02  0.1133345E+00
         21   -1    0    0  503  502  0.00000000000E+00  0.00000000000E+00  0.20644152081E+04  0.20644152081E+04  0.00000000000E+00 0.  1.
         21   -1    0    0  501  503 -0.00000000000E+00 -0.00000000000E+00 -0.37530004792E+02  0.37530004792E+02  0.00000000000E+00 0. -1.
          6    1    1    2  501    0  0.64374226222E+02  0.12101847568E+03  0.16537528507E+04  0.16684175148E+04  0.17300000000E+03 0.  1.
         -6    1    1    2    0  502 -0.64374226222E+02 -0.12101847568E+03  0.37313235259E+03  0.43352769808E+03  0.17300000000E+03 0. -1.
<mgrwt>
<rscale>  2 0.22072270E+03</rscale>
<asrwt>0</asrwt>
<pdfrwt beam="1">  1       21 0.31760225E+00 0.22072270E+03</pdfrwt>
<pdfrwt beam="2">  1       21 0.57738485E-02 0.22072270E+03</pdfrwt>
<totfact> 0.55136171E+03</totfact>
</mgrwt>
</event>
<event>
 4    1  0.4067306E+000  0.1824068E+03  0.7546771E-02  0.1165494E+00
         21   -1    0    0  501  502  0.00000000000E+00  0.00000000000E+00  0.40330706799E+03  0.40330706799E+03  0.00000000000E+00 0.  1.
         21   -1    0    0  502  503 -0.00000000000E+00 -0.00000000000E+00 -0.13071841992E+03  0.13071841992E+03  0.00000000000E+00 0.  1.
          6    1    1    2  501    0 -0.51553538063E+02  0.26181540062E+02  0.29846663349E+03  0.34979218350E+03  0.17300000000E+03 0.  1.
         -6    1    1    2    0  503  0.51553538063E+02 -0.26181540062E+02 -0.25877985427E+02  0.18423330442E+03  0.17300000000E+03 0.  1.
<mgrwt>
<rscale>  2 0.18240680E+03</rscale>
<asrwt>0</asrwt>
<pdfrwt beam="1">  1       21 0.62047241E-01 0.18240680E+03</pdfrwt>
<pdfrwt beam="2">  1       21 0.20110526E-01 0.18240680E+03</pdfrwt>
<totfact> 0.55334187E+04</totfact>
</mgrwt>
</event>
<event>
 4    1  0.4067306E+000  0.2790503E+03  0.7546771E-02  0.1096209E+00
         21   -1    0    0  501  502  0.00000000000E+00  0.00000000000E+00  0.31296570988E+03  0.31296570988E+03  0.00000000000E+00 0. -1.
         21   -1    0    0  502  503 -0.00000000000E+00 -0.00000000000E+00 -0.35793585325E+03  0.35793585325E+03  0.00000000000E+00 0.  1.
          6    1    1    2  501    0 -0.46361175332E+01 -0.21890311897E+03  0.16273565464E+03  0.32303554351E+03  0.17300000000E+03 0. -1.
         -6    1    1    2    0  503  0.46361175332E+01  0.21890311897E+03 -0.20770579800E+03  0.34786601962E+03  0.17300000000E+03 0.  1.
<mgrwt>
<rscale>  2 0.27905030E+03</rscale>
<asrwt>0</asrwt>
<pdfrwt beam="1">  1       21 0.48148571E-01 0.27905030E+03</pdfrwt>
<pdfrwt beam="2">  1       21 0.55067054E-01 0.27905030E+03</pdfrwt>
<totfact> 0.12211403E+04</totfact>
</mgrwt>
</event>
<event>
 4    1  0.4067306E+000  0.2266219E+03  0.7546771E-02  0.1129040E+00
         21   -1    0    0  503  502  0.00000000000E+00  0.00000000000E+00  0.53973436179E+03  0.53973436179E+03  0.00000000000E+00 0. -1.
         21   -1    0    0  501  503 -0.00000000000E+00 -0.00000000000E+00 -0.11199764510E+03  0.11199764510E+03  0.00000000000E+00 0.  1.
          6    1    1    2  501    0 -0.14501564524E+03  0.19973165233E+02  0.87492926643E+02  0.24292483798E+03  0.17300000000E+03 0. -1.
         -6    1    1    2    0  502  0.14501564524E+03 -0.19973165233E+02  0.34024379005E+03  0.40880716892E+03  0.17300000000E+03 0. -1.
<mgrwt>
<rscale>  2 0.22662185E+03</rscale>
<asrwt>0</asrwt>
<pdfrwt beam="1">  1       21 0.83036054E-01 0.22662185E+03</pdfrwt>
<pdfrwt beam="2">  1       21 0.17230407E-01 0.22662185E+03</pdfrwt>
<totfact> 0.37802558E+04</totfact>
</mgrwt>
</event>
<event>
 4    1  0.4067306E+000  0.1859932E+03  0.7546771E-02  0.1162126E+00
         21   -1    0    0  501  502  0.00000000000E+00  0.00000000000E+00  0.41461378116E+03  0.41461378116E+03  0.00000000000E+00 0.  1.
         21   -1    0    0  502  503 -0.00000000000E+00 -0.00000000000E+00 -0.11796460746E+03  0.11796460746E+03  0.00000000000E+00 0.  1.
          6    1    1    2  501    0 -0.37863640823E+02 -0.56840256142E+02  0.29239371721E+03  0.34653651450E+03  0.17300000000E+03 0.  1.
         -6    1    1    2    0  503  0.37863640823E+02  0.56840256142E+02  0.42554564879E+01  0.18604187412E+03  0.17300000000E+03 0.  1.
<mgrwt>
<rscale>  2 0.18599320E+03</rscale>
<asrwt>0</asrwt>
<pdfrwt beam="1">  1       21 0.63786735E-01 0.18599320E+03</pdfrwt>
<pdfrwt beam="2">  1       21 0.18148401E-01 0.18599320E+03</pdfrwt>
<totfact> 0.62972676E+04</totfact>
</mgrwt>
</event>
<event>
 4    1  0.4067306E+000  0.3011649E+03  0.7546771E-02  0.1084660E+00
         21   -1    0    0  501  502  0.00000000000E+00  0.00000000000E+00  0.26403222577E+03  0.26403222577E+03  0.00000000000E+00 0.  1.
         21   -1    0    0  502  503 -0.00000000000E+00 -0.00000000000E+00 -0.59697386965E+03  0.59697386965E+03  0.00000000000E+00 0. -1.
          6    1    1    2  501    0 -0.10393825747E+03  0.22353559439E+03  0.11403903050E+03  0.32203295453E+03  0.17300000000E+03 0.  1.
         -6    1    1    2    0  503  0.10393825747E+03 -0.22353559439E+03 -0.44698067438E+03  0.53897314089E+03  0.17300000000E+03 0.  1.
<mgrwt>
<rscale>  2 0.30116494E+03</rscale>
<asrwt>0</asrwt>
<pdfrwt beam="1">  1       21 0.40620343E-01 0.30116494E+03</pdfrwt>
<pdfrwt beam="2">  1       21 0.91842133E-01 0.30116494E+03</pdfrwt>
<totfact> 0.54664773E+03</totfact>
</mgrwt>
</event>
<event>
 4    1  0.4067306E+000  0.1871880E+03  0.7546771E-02  0.1161022E+00
         21   -1    0    0  501  502  0.00000000000E+00  0.00000000000E+00  0.57786003682E+03  0.57786003682E+03  0.00000000000E+00 0. -1.
         21   -1    0    0  502  503 -0.00000000000E+00 -0.00000000000E+00 -0.71210261728E+02  0.71210261728E+02  0.00000000000E+00 0.  1.
          6    1    1    2  501    0 -0.35260769835E+02  0.62185321838E+02  0.37838183931E+03  0.42215181210E+03  0.17300000000E+03 0. -1.
         -6    1    1    2    0  503  0.35260769835E+02 -0.62185321838E+02  0.12826793578E+03  0.22691848645E+03  0.17300000000E+03 0.  1.
<mgrwt>
<rscale>  2 0.18718797E+03</rscale>
<asrwt>0</asrwt>
<pdfrwt beam="1">  1       21 0.88901541E-01 0.18718797E+03</pdfrwt>
<pdfrwt beam="2">  1       21 0.10955425E-01 0.18718797E+03</pdfrwt>
<totfact> 0.74787857E+04</totfact>
</mgrwt>
</event>
<event>
 4    1  0.4067306E+000  0.1999841E+03  0.7546771E-02  0.1149752E+00
         21   -1    0    0  501  502  0.00000000000E+00  0.00000000000E+00  0.10828128852E+03  0.10828128852E+03  0.00000000000E+00 0. -1.
         21   -1    0    0  502  503 -0.00000000000E+00 -0.00000000000E+00 -0.10238755680E+04  0.10238755680E+04  0.00000000000E+00 0.  1.
          6    1    1    2  501    0  0.99315903605E+02 -0.14177312591E+02 -0.51951344930E+01  0.20005157916E+03  0.17300000000E+03 0. -1.
         -6    1    1    2    0  503 -0.99315903605E+02  0.14177312591E+02 -0.91039914499E+03  0.93210527737E+03  0.17300000000E+03 0.  1.
<mgrwt>
<rscale>  2 0.19998411E+03</rscale>
<asrwt>0</asrwt>
<pdfrwt beam="1">  1       21 0.16658660E-01 0.19998411E+03</pdfrwt>
<pdfrwt beam="2">  1       21 0.15751932E+00 0.19998411E+03</pdfrwt>
<totfact> 0.84513754E+03</totfact>
</mgrwt>
</event>
<event>
 4    1  0.4067306E+000  0.1742803E+03  0.7546771E-02  0.1173456E+00
         21   -1    0    0  503  502  0.00000000000E+00  0.00000000000E+00  0.16894755956E+03  0.16894755956E+03  0.00000000000E+00 0. -1.
         21   -1    0    0  501  503 -0.00000000000E+00 -0.00000000000E+00 -0.19343062034E+03  0.19343062034E+03  0.00000000000E+00 0. -1.
          6    1    1    2  501    0  0.16441027782E+02  0.13203400910E+02 -0.60372272979E+02  0.18444090798E+03  0.17300000000E+03 0.  1.
         -6    1    1    2    0  502 -0.16441027782E+02 -0.13203400910E+02  0.35889212200E+02  0.17793727193E+03  0.17300000000E+03 0.  1.
<mgrwt>
<rscale>  2 0.17428034E+03</rscale>
<asrwt>0</asrwt>
<pdfrwt beam="1">  1       21 0.25991932E-01 0.17428034E+03</pdfrwt>
<pdfrwt beam="2">  1       21 0.29758557E-01 0.17428034E+03</pdfrwt>
<totfact> 0.15310700E+05</totfact>
</mgrwt>
</event>
<event>
 4    1  0.4067306E+000  0.1985863E+03  0.7546771E-02  0.1150937E+00
         21   -1    0    0  503  502  0.00000000000E+00  0.00000000000E+00  0.58628706152E+02  0.58628706152E+02  0.00000000000E+00 0.  1.
         21   -1    0    0  501  503 -0.00000000000E+00 -0.00000000000E+00 -0.68885902042E+03  0.68885902042E+03  0.00000000000E+00 0.  1.
          6    1    1    2  501    0  0.18068681005E+02  0.95817725135E+02 -0.25778187313E+03  0.32540437582E+03  0.17300000000E+03 0.  1.
         -6    1    1    2    0  502 -0.18068681005E+02 -0.95817725135E+02 -0.37244844114E+03  0.42208335076E+03  0.17300000000E+03 0.  1.
<mgrwt>
<rscale>  2 0.19858629E+03</rscale>
<asrwt>0</asrwt>
<pdfrwt beam="1">  1       21 0.90198005E-02 0.19858629E+03</pdfrwt>
<pdfrwt beam="2">  1       21 0.10597832E+00 0.19858629E+03</pdfrwt>
<totfact> 0.69328745E+04</totfact>
</mgrwt>
</event>
<event>
 4    1  0.4067306E+000  0.1913271E+03  0.7546771E-02  0.1157270E+00
         21   -1    0    0  501  502  0.00000000000E+00  0.00000000000E+00  0.21755705190E+03  0.21755705190E+03  0.00000000000E+00 0.  1.
         21   -1    0    0  502  503 -0.00000000000E+00 -0.00000000000E+00 -0.27904766225E+03  0.27904766225E+03  0.00000000000E+00 0.  1.
          6    1    1    2  501    0 -0.60857687387E+02 -0.54528938178E+02  0.12570921860E+03  0.22892983828E+03  0.17300000000E+03 0.  1.
         -6    1    1    2    0  503  0.60857687387E+02  0.54528938178E+02 -0.18719982895E+03  0.26767487587E+03  0.17300000000E+03 0.  1.
<mgrwt>
<rscale>  2 0.19132711E+03</rscale>
<asrwt>0</asrwt>
<pdfrwt beam="1">  1       21 0.33470316E-01 0.19132711E+03</pdfrwt>
<pdfrwt beam="2">  1       21 0.42930409E-01 0.19132711E+03</pdfrwt>
<totfact> 0.44891440E+04</totfact>
</mgrwt>
</event>
<event>
 4    1  0.4067306E+000  0.2038674E+03  0.7546771E-02  0.1146517E+00
         21   -1    0    0  501  502  0.00000000000E+00  0.00000000000E+00  0.44089678145E+03  0.44089678145E+03  0.00000000000E+00 0.  1.
         21   -1    0    0  502  503 -0.00000000000E+00 -0.00000000000E+00 -0.98426870583E+02  0.98426870583E+02  0.00000000000E+00 0.  1.
          6    1    1    2  501    0 -0.15109442721E+02 -0.10679240121E+03  0.22667389772E+03  0.30486549185E+03  0.17300000000E+03 0.  1.
         -6    1    1    2    0  503  0.15109442721E+02  0.10679240121E+03  0.11579601316E+03  0.23445816019E+03  0.17300000000E+03 0.  1.
<mgrwt>
<rscale>  2 0.20386739E+03</rscale>
<asrwt>0</asrwt>
<pdfrwt beam="1">  1       21 0.67830273E-01 0.20386739E+03</pdfrwt>
<pdfrwt beam="2">  1       21 0.15142596E-01 0.20386739E+03</pdfrwt>
<totfact> 0.76185592E+04</totfact>
</mgrwt>
</event>
<event>
 4    1  0.4067306E+000  0.1813718E+03  0.7546771E-02  0.1166482E+00
         21   -1    0    0  501  502  0.00000000000E+00  0.00000000000E+00  0.11080224113E+03  0.11080224113E+03  0.00000000000E+00 0.  1.
         21   -1    0    0  502  503 -0.00000000000E+00 -0.00000000000E+00 -0.41323592851E+03  0.41323592851E+03  0.00000000000E+00 0.  1.
          6    1    1    2  501    0 -0.53164194432E+02  0.11844619324E+02 -0.12184644574E+02  0.18178061541E+03  0.17300000000E+03 0.  1.
         -6    1    1    2    0  503  0.53164194432E+02 -0.11844619324E+02 -0.29024904280E+03  0.34225755422E+03  0.17300000000E+03 0.  1.
<mgrwt>
<rscale>  2 0.18137179E+03</rscale>
<asrwt>0</asrwt>
<pdfrwt beam="1">  1       21 0.17046498E-01 0.18137179E+03</pdfrwt>
<pdfrwt beam="2">  1       21 0.63574759E-01 0.18137179E+03</pdfrwt>
<totfact> 0.71334178E+04</totfact>
</mgrwt>
</event>
<event>
 4    1  0.4067306E+000  0.2986065E+03  0.7546771E-02  0.1085939E+00
         21   -1    0    0  503  502  0.00000000000E+00  0.00000000000E+00  0.17973981939E+04  0.17973981939E+04  0.00000000000E+00 0. -1.
         21   -1    0    0  501  503 -0.00000000000E+00 -0.00000000000E+00 -0.10651128900E+03  0.10651128900E+03  0.00000000000E+00 0.  1.
          6    1    1    2  501    0  0.28178554911E+02  0.24174952750E+03  0.14964088174E+03  0.33400338096E+03  0.17300000000E+03 0.  1.
         -6    1    1    2    0  502 -0.28178554911E+02 -0.24174952750E+03  0.15412460232E+04  0.15699061020E+04  0.17300000000E+03 0. -1.
<mgrwt>
<rscale>  2 0.29860654E+03</rscale>
<asrwt>0</asrwt>
<pdfrwt beam="1">  1       21 0.27652278E+00 0.29860654E+03</pdfrwt>
<pdfrwt beam="2">  1       21 0.16386353E-01 0.29860654E+03</pdfrwt>
<totfact> 0.13994503E+03</totfact>
</mgrwt>
</event>
<event>
 4    1  0.4067306E+000  0.2024204E+03  0.7546771E-02  0.1147713E+00
         21   -1    0    0  503  502  0.00000000000E+00  0.00000000000E+00  0.53165703262E+03  0.53165703262E+03  0.00000000000E+00 0.  1.
         21   -1    0    0  501  503 -0.00000000000E+00 -0.00000000000E+00 -0.10986216431E+03  0.10986216431E+03  0.00000000000E+00 0.  1.
          6    1    1    2  501    0  0.83675051559E+02  0.63588508505E+02  0.35650460743E+02  0.20553580714E+03  0.17300000000E+03 0.  1.
         -6    1    1    2    0  502 -0.83675051559E+02 -0.63588508505E+02  0.38614440758E+03  0.43598338979E+03  0.17300000000E+03 0.  1.
<mgrwt>
<rscale>  2 0.20242039E+03</rscale>
<asrwt>0</asrwt>
<pdfrwt beam="1">  1       21 0.81793388E-01 0.20242039E+03</pdfrwt>
<pdfrwt beam="2">  1       21 0.16901872E-01 0.20242039E+03</pdfrwt>
<totfact> 0.41031642E+04</totfact>
</mgrwt>
</event>
<event>
 4    1  0.4067306E+000  0.3638705E+03  0.7546771E-02  0.1057062E+00
         21   -1    0    0  503  502  0.00000000000E+00  0.00000000000E+00  0.66023689378E+03  0.66023689378E+03  0.00000000000E+00 0.  1.
         21   -1    0    0  501  503 -0.00000000000E+00 -0.00000000000E+00 -0.22846633593E+03  0.22846633593E+03  0.00000000000E+00 0.  1.
          6    1    1    2  501    0  0.21339860972E+03  0.23860805237E+03  0.37124835249E+03  0.51983373161E+03  0.17300000000E+03 0.  1.
         -6    1    1    2    0  502 -0.21339860972E+03 -0.23860805237E+03  0.60522205357E+02  0.36886949810E+03  0.17300000000E+03 0.  1.
<mgrwt>
<rscale>  2 0.36387054E+03</rscale>
<asrwt>0</asrwt>
<pdfrwt beam="1">  1       21 0.10157491E+00 0.36387054E+03</pdfrwt>
<pdfrwt beam="2">  1       21 0.35148667E-01 0.36387054E+03</pdfrwt>
<totfact> 0.56030395E+03</totfact>
</mgrwt>
</event>
<event>
 4    1  0.4067306E+000  0.1865286E+03  0.7546771E-02  0.1161630E+00
         21   -1    0    0  503  502  0.00000000000E+00  0.00000000000E+00  0.33608318931E+03  0.33608318931E+03  0.00000000000E+00 0. -1.
         21   -1    0    0  501  503 -0.00000000000E+00 -0.00000000000E+00 -0.17324679298E+03  0.17324679298E+03  0.00000000000E+00 0. -1.
          6    1    1    2  501    0  0.58197480375E+02  0.38431415683E+02 -0.80137309423E+02  0.20301455316E+03  0.17300000000E+03 0. -1.
         -6    1    1    2    0  502 -0.58197480375E+02 -0.38431415683E+02  0.24297370576E+03  0.30631542913E+03  0.17300000000E+03 0. -1.
<mgrwt>
<rscale>  2 0.18652860E+03</rscale>
<asrwt>0</asrwt>
<pdfrwt beam="1">  1       21 0.51705106E-01 0.18652860E+03</pdfrwt>
<pdfrwt beam="2">  1       21 0.26653353E-01 0.18652860E+03</pdfrwt>
<totfact> 0.47735267E+04</totfact>
</mgrwt>
</event>
<event>
 4    1  0.4067306E+000  0.2655482E+03  0.7546771E-02  0.1103855E+00
         21   -1    0    0  501  502  0.00000000000E+00  0.00000000000E+00  0.16113973914E+03  0.16113973914E+03  0.00000000000E+00 0.  1.
         21   -1    0    0  502  503 -0.00000000000E+00 -0.00000000000E+00 -0.58762640400E+03  0.58762640400E+03  0.00000000000E+00 0. -1.
          6    1    1    2  501    0 -0.16772891241E+03 -0.11159696275E+03 -0.24078962178E+02  0.26663770659E+03  0.17300000000E+03 0.  1.
         -6    1    1    2    0  503  0.16772891241E+03  0.11159696275E+03 -0.40240770268E+03  0.48212843655E+03  0.17300000000E+03 0. -1.
<mgrwt>
<rscale>  2 0.26554824E+03</rscale>
<asrwt>0</asrwt>
<pdfrwt beam="1">  1       21 0.24790729E-01 0.26554824E+03</pdfrwt>
<pdfrwt beam="2">  1       21 0.90404063E-01 0.26554824E+03</pdfrwt>
<totfact> 0.15355210E+04</totfact>
</mgrwt>
</event>
<event>
 4    1  0.4067306E+000  0.2465232E+03  0.7546771E-02  0.1115522E+00
         21   -1    0    0  503  502  0.00000000000E+00  0.00000000000E+00  0.14135914756E+03  0.14135914756E+03  0.00000000000E+00 0. -1.
         21   -1    0    0  501  503 -0.00000000000E+00 -0.00000000000E+00 -0.45395513000E+03  0.45395513000E+03  0.00000000000E+00 0. -1.
          6    1    1    2  501    0 -0.16278360895E+03 -0.65925462489E+02 -0.87812554935E+02  0.26169584397E+03  0.17300000000E+03 0. -1.
         -6    1    1    2    0  502  0.16278360895E+03  0.65925462489E+02 -0.22478342750E+03  0.33361843359E+03  0.17300000000E+03 0. -1.
<mgrwt>
<rscale>  2 0.24652316E+03</rscale>
<asrwt>0</asrwt>
<pdfrwt beam="1">  1       21 0.21747561E-01 0.24652316E+03</pdfrwt>
<pdfrwt beam="2">  1       21 0.69839251E-01 0.24652316E+03</pdfrwt>
<totfact> 0.35781702E+04</totfact>
</mgrwt>
</event>
<event>
 4    1  0.4067306E+000  0.1805150E+03  0.7546771E-02  0.1167306E+00
         21   -1    0    0  501  502  0.00000000000E+00  0.00000000000E+00  0.12768161348E+03  0.12768161348E+03  0.00000000000E+00 0. -1.
         21   -1    0    0  502  503 -0.00000000000E+00 -0.00000000000E+00 -0.31067352734E+03  0.31067352734E+03  0.00000000000E+00 0. -1.
          6    1    1    2  501    0 -0.13849081269E+02 -0.49647347285E+02  0.11116708187E+01  0.18051839783E+03  0.17300000000E+03 0. -1.
         -6    1    1    2    0  503  0.13849081269E+02  0.49647347285E+02 -0.18410358467E+03  0.25783674298E+03  0.17300000000E+03 0. -1.
<mgrwt>
<rscale>  2 0.18051497E+03</rscale>
<asrwt>0</asrwt>
<pdfrwt beam="1">  1       21 0.19643326E-01 0.18051497E+03</pdfrwt>
<pdfrwt beam="2">  1       21 0.47795926E-01 0.18051497E+03</pdfrwt>
<totfact> 0.10035327E+05</totfact>
</mgrwt>
</event>
<event>
 4    1  0.4067306E+000  0.1981360E+03  0.7546771E-02  0.1151321E+00
         21   -1    0    0  503  502  0.00000000000E+00  0.00000000000E+00  0.89560277917E+03  0.89560277917E+03  0.00000000000E+00 0.  1.
         21   -1    0    0  501  503 -0.00000000000E+00 -0.00000000000E+00 -0.70852301408E+02  0.70852301408E+02  0.00000000000E+00 0.  1.
          6    1    1    2  501    0 -0.95948203040E+02 -0.11081928400E+02  0.11397196245E+03  0.22857706584E+03  0.17300000000E+03 0.  1.
         -6    1    1    2    0  502  0.95948203040E+02  0.11081928400E+02  0.71077851531E+03  0.73787801473E+03  0.17300000000E+03 0.  1.
<mgrwt>
<rscale>  2 0.19813598E+03</rscale>
<asrwt>0</asrwt>
<pdfrwt beam="1">  1       21 0.13778504E+00 0.19813598E+03</pdfrwt>
<pdfrwt beam="2">  1       21 0.10900355E-01 0.19813598E+03</pdfrwt>
<totfact> 0.25880171E+04</totfact>
</mgrwt>
</event>
<event>
 4    1  0.4067306E+000  0.4232995E+03  0.7546771E-02  0.1035998E+00
         21   -1    0    0  501  502  0.00000000000E+00  0.00000000000E+00  0.77762555369E+03  0.77762555369E+03  0.00000000000E+00 0. -1.
         21   -1    0    0  502  503 -0.00000000000E+00 -0.00000000000E+00 -0.75918677231E+03  0.75918677231E+03  0.00000000000E+00 0.  1.
          6    1    1    2  501    0  0.35672537101E+03 -0.14832548505E+03  0.65049919999E+03  0.77610028284E+03  0.17300000000E+03 0. -1.
         -6    1    1    2    0  503 -0.35672537101E+03  0.14832548505E+03 -0.63206041861E+03  0.76071204316E+03  0.17300000000E+03 0.  1.
<mgrwt>
<rscale>  2 0.42329947E+03</rscale>
<asrwt>0</asrwt>
<pdfrwt beam="1">  1       21 0.11963470E+00 0.42329947E+03</pdfrwt>
<pdfrwt beam="2">  1       21 0.11679796E+00 0.42329947E+03</pdfrwt>
<totfact> 0.25035578E+02</totfact>
</mgrwt>
</event>
<event>
 4    1  0.4067306E+000  0.1837487E+03  0.7546771E-02  0.1164224E+00
         21   -1    0    0  501  502  0.00000000000E+00  0.00000000000E+00  0.14814875185E+04  0.14814875185E+04  0.00000000000E+00 0.  1.
         21   -1    0    0  502  503 -0.00000000000E+00 -0.00000000000E+00 -0.47385397503E+02  0.47385397503E+02  0.00000000000E+00 0. -1.
          6    1    1    2  501    0  0.59719760842E+02  0.16374896517E+02  0.12677866611E+04  0.12810334130E+04  0.17300000000E+03 0.  1.
         -6    1    1    2    0  503 -0.59719760842E+02 -0.16374896517E+02  0.16631545993E+03  0.24783950307E+03  0.17300000000E+03 0. -1.
<mgrwt>
<rscale>  2 0.18374871E+03</rscale>
<asrwt>0</asrwt>
<pdfrwt beam="1">  1       21 0.22792112E+00 0.18374871E+03</pdfrwt>
<pdfrwt beam="2">  1       21 0.72900623E-02 0.18374871E+03</pdfrwt>
<totfact> 0.12794547E+04</totfact>
</mgrwt>
</event>
<event>
 4    1  0.4067306E+000  0.2381343E+03  0.7546771E-02  0.1121042E+00
         21   -1    0    0  501  502  0.00000000000E+00  0.00000000000E+00  0.97221419288E+02  0.97221419288E+02  0.00000000000E+00 0. -1.
         21   -1    0    0  502  503 -0.00000000000E+00 -0.00000000000E+00 -0.96894498047E+03  0.96894498047E+03  0.00000000000E+00 0.  1.
          6    1    1    2  501    0 -0.24768390382E+02 -0.16175740616E+03 -0.99546239238E+02  0.25810343926E+03  0.17300000000E+03 0. -1.
         -6    1    1    2    0  503  0.24768390382E+02  0.16175740616E+03 -0.77217732194E+03  0.80806296050E+03  0.17300000000E+03 0.  1.
<mgrwt>
<rscale>  2 0.23813427E+03</rscale>
<asrwt>0</asrwt>
<pdfrwt beam="1">  1       21 0.14957142E-01 0.23813427E+03</pdfrwt>
<pdfrwt beam="2">  1       21 0.14906846E+00 0.23813427E+03</pdfrwt>
<totfact> 0.11613567E+04</totfact>
</mgrwt>
</event>
<event>
 4    1  0.4067306E+000  0.1781683E+03  0.7546771E-02  0.1169588E+00
         21   -1    0    0  501  502  0.00000000000E+00  0.00000000000E+00  0.58570057218E+03  0.58570057218E+03  0.00000000000E+00 0. -1.
         21   -1    0    0  502  503 -0.00000000000E+00 -0.00000000000E+00 -0.59525015075E+02  0.59525015075E+02  0.00000000000E+00 0. -1.
          6    1    1    2  501    0  0.36159111449E+02 -0.22526963483E+02  0.35959585138E+03  0.40131424315E+03  0.17300000000E+03 0. -1.
         -6    1    1    2    0  503 -0.36159111449E+02  0.22526963483E+02  0.16657970573E+03  0.24391134411E+03  0.17300000000E+03 0. -1.
<mgrwt>
<rscale>  2 0.17816831E+03</rscale>
<asrwt>0</asrwt>
<pdfrwt beam="1">  1       21 0.90107776E-01 0.17816831E+03</pdfrwt>
<pdfrwt beam="2">  1       21 0.91576950E-02 0.17816831E+03</pdfrwt>
<totfact> 0.99848444E+04</totfact>
</mgrwt>
</event>
<event>
 4    1  0.4067306E+000  0.1957972E+03  0.7546771E-02  0.1153334E+00
         21   -1    0    0  501  502  0.00000000000E+00  0.00000000000E+00  0.31702680516E+03  0.31702680516E+03  0.00000000000E+00 0.  1.
         21   -1    0    0  502  503 -0.00000000000E+00 -0.00000000000E+00 -0.22600752370E+03  0.22600752370E+03  0.00000000000E+00 0.  1.
          6    1    1    2  501    0  0.59333691735E+02  0.69907481442E+02  0.23064978143E+03  0.30254894581E+03  0.17300000000E+03 0.  1.
         -6    1    1    2    0  503 -0.59333691735E+02 -0.69907481442E+02 -0.13963049998E+03  0.24048538305E+03  0.17300000000E+03 0.  1.
<mgrwt>
<rscale>  2 0.19579720E+03</rscale>
<asrwt>0</asrwt>
<pdfrwt beam="1">  1       21 0.48773355E-01 0.19579720E+03</pdfrwt>
<pdfrwt beam="2">  1       21 0.34770388E-01 0.19579720E+03</pdfrwt>
<totfact> 0.31938089E+04</totfact>
</mgrwt>
</event>
<event>
 4    1  0.4067306E+000  0.2132292E+03  0.7546771E-02  0.1139034E+00
         21   -1    0    0  503  502  0.00000000000E+00  0.00000000000E+00  0.11935955284E+03  0.11935955284E+03  0.00000000000E+00 0. -1.
         21   -1    0    0  501  503 -0.00000000000E+00 -0.00000000000E+00 -0.40227224509E+03  0.40227224509E+03  0.00000000000E+00 0. -1.
          6    1    1    2  501    0 -0.69472367471E+02  0.10349539737E+03 -0.20154232122E+03  0.29340418259E+03  0.17300000000E+03 0. -1.
         -6    1    1    2    0  502  0.69472367471E+02 -0.10349539737E+03 -0.81370371026E+02  0.22822761533E+03  0.17300000000E+03 0. -1.
<mgrwt>
<rscale>  2 0.21322924E+03</rscale>
<asrwt>0</asrwt>
<pdfrwt beam="1">  1       21 0.18363008E-01 0.21322924E+03</pdfrwt>
<pdfrwt beam="2">  1       21 0.61888038E-01 0.21322924E+03</pdfrwt>
<totfact> 0.64977877E+04</totfact>
</mgrwt>
</event>
<event>
 4    1  0.4067306E+000  0.2137437E+03  0.7546771E-02  0.1138635E+00
         21   -1    0    0  503  502  0.00000000000E+00  0.00000000000E+00  0.51615697283E+02  0.51615697283E+02  0.00000000000E+00 0. -1.
         21   -1    0    0  501  503 -0.00000000000E+00 -0.00000000000E+00 -0.12454174948E+04  0.12454174948E+04  0.00000000000E+00 0. -1.
          6    1    1    2  501    0 -0.12551496891E+03  0.18297425795E+01 -0.94571263509E+03  0.96956626568E+03  0.17300000000E+03 0. -1.
         -6    1    1    2    0  502  0.12551496891E+03 -0.18297425795E+01 -0.24808916245E+03  0.32746692642E+03  0.17300000000E+03 0. -1.
<mgrwt>
<rscale>  2 0.21374367E+03</rscale>
<asrwt>0</asrwt>
<pdfrwt beam="1">  1       21 0.79408764E-02 0.21374367E+03</pdfrwt>
<pdfrwt beam="2">  1       21 0.19160269E+00 0.21374367E+03</pdfrwt>
<totfact> 0.18220277E+04</totfact>
</mgrwt>
</event>
<event>
 4    1  0.4067306E+000  0.2811897E+03  0.7546771E-02  0.1095041E+00
         21   -1    0    0  503  502  0.00000000000E+00  0.00000000000E+00  0.28575563999E+03  0.28575563999E+03  0.00000000000E+00 0.  1.
         21   -1    0    0  501  503 -0.00000000000E+00 -0.00000000000E+00 -0.10130958589E+04  0.10130958589E+04  0.00000000000E+00 0. -1.
          6    1    1    2  501    0  0.21206702693E+03  0.64546240911E+02 -0.91735271197E+03  0.95948092179E+03  0.17300000000E+03 0. -1.
         -6    1    1    2    0  502 -0.21206702693E+03 -0.64546240911E+02  0.19001249302E+03  0.33937057714E+03  0.17300000000E+03 0.  1.
<mgrwt>
<rscale>  2 0.28118969E+03</rscale>
<asrwt>0</asrwt>
<pdfrwt beam="1">  1       21 0.43962407E-01 0.28118969E+03</pdfrwt>
<pdfrwt beam="2">  1       21 0.15586090E+00 0.28118969E+03</pdfrwt>
<totfact> 0.12442630E+03</totfact>
</mgrwt>
</event>
<event>
 4    1  0.4067306E+000  0.2542789E+03  0.7546771E-02  0.1110630E+00
         21   -1    0    0  503  502  0.00000000000E+00  0.00000000000E+00  0.52689391392E+03  0.52689391392E+03  0.00000000000E+00 0.  1.
         21   -1    0    0  501  503 -0.00000000000E+00 -0.00000000000E+00 -0.14090003776E+03  0.14090003776E+03  0.00000000000E+00 0. -1.
          6    1    1    2  501    0  0.79988256721E+02 -0.16831706843E+03  0.73042944262E+02  0.26456195578E+03  0.17300000000E+03 0. -1.
         -6    1    1    2    0  502 -0.79988256721E+02  0.16831706843E+03  0.31295093191E+03  0.40323199590E+03  0.17300000000E+03 0.  1.
<mgrwt>
<rscale>  2 0.25427890E+03</rscale>
<asrwt>0</asrwt>
<pdfrwt beam="1">  1       21 0.81060602E-01 0.25427890E+03</pdfrwt>
<pdfrwt beam="2">  1       21 0.21676929E-01 0.25427890E+03</pdfrwt>
<totfact> 0.25659028E+04</totfact>
</mgrwt>
</event>
<event>
 4    1  0.4067306E+000  0.1775541E+03  0.7546771E-02  0.1170191E+00
         21   -1    0    0  503  502  0.00000000000E+00  0.00000000000E+00  0.94817677893E+02  0.94817677893E+02  0.00000000000E+00 0. -1.
         21   -1    0    0  501  503 -0.00000000000E+00 -0.00000000000E+00 -0.62337074602E+03  0.62337074602E+03  0.00000000000E+00 0. -1.
          6    1    1    2  501    0  0.25746109439E+02  0.30554720154E+02 -0.50957590623E+03  0.53962306963E+03  0.17300000000E+03 0. -1.
         -6    1    1    2    0  502 -0.25746109439E+02 -0.30554720154E+02 -0.18977161900E+02  0.17856535428E+03  0.17300000000E+03 0. -1.
<mgrwt>
<rscale>  2 0.17755408E+03</rscale>
<asrwt>0</asrwt>
<pdfrwt beam="1">  1       21 0.14587335E-01 0.17755408E+03</pdfrwt>
<pdfrwt beam="2">  1       21 0.95903195E-01 0.17755408E+03</pdfrwt>
<totfact> 0.37695422E+04</totfact>
</mgrwt>
</event>
<event>
 4    1  0.4067306E+000  0.3033974E+03  0.7546771E-02  0.1083555E+00
         21   -1    0    0  501  502  0.00000000000E+00  0.00000000000E+00  0.12800535918E+03  0.12800535918E+03  0.00000000000E+00 0. -1.
         21   -1    0    0  502  503 -0.00000000000E+00 -0.00000000000E+00 -0.10877687815E+04  0.10877687815E+04  0.00000000000E+00 0. -1.
          6    1    1    2  501    0  0.11807017829E+03  0.21950031598E+03 -0.12599292448E+03  0.32851814673E+03  0.17300000000E+03 0. -1.
         -6    1    1    2    0  503 -0.11807017829E+03 -0.21950031598E+03 -0.83377049786E+03  0.88725599396E+03  0.17300000000E+03 0. -1.
<mgrwt>
<rscale>  2 0.30339736E+03</rscale>
<asrwt>0</asrwt>
<pdfrwt beam="1">  1       21 0.19693132E-01 0.30339736E+03</pdfrwt>
<pdfrwt beam="2">  1       21 0.16734904E+00 0.30339736E+03</pdfrwt>
<totfact> 0.48983867E+03</totfact>
</mgrwt>
</event>
<event>
 4    1  0.4067306E+000  0.1948953E+03  0.7546771E-02  0.1154119E+00
         21   -1    0    0  501  502  0.00000000000E+00  0.00000000000E+00  0.51135383934E+03  0.51135383934E+03  0.00000000000E+00 0.  1.
         21   -1    0    0  502  503 -0.00000000000E+00 -0.00000000000E+00 -0.92284470924E+02  0.92284470924E+02  0.00000000000E+00 0.  1.
          6    1    1    2  501    0 -0.57522706271E+02 -0.68893489764E+02  0.34284185986E+03  0.39436622008E+03  0.17300000000E+03 0.  1.
         -6    1    1    2    0  503  0.57522706271E+02  0.68893489764E+02  0.76227508554E+02  0.20927209018E+03  0.17300000000E+03 0.  1.
<mgrwt>
<rscale>  2 0.19489529E+03</rscale>
<asrwt>0</asrwt>
<pdfrwt beam="1">  1       21 0.78669820E-01 0.19489529E+03</pdfrwt>
<pdfrwt beam="2">  1       21 0.14197611E-01 0.19489529E+03</pdfrwt>
<totfact> 0.61856285E+04</totfact>
</mgrwt>
</event>
<event>
 4    1  0.4067306E+000  0.2153383E+03  0.7546771E-02  0.1137407E+00
         21   -1    0    0  503  502  0.00000000000E+00  0.00000000000E+00  0.61470631165E+03  0.61470631165E+03  0.00000000000E+00 0.  1.
         21   -1    0    0  501  503 -0.00000000000E+00 -0.00000000000E+00 -0.77836043596E+02  0.77836043596E+02  0.00000000000E+00 0. -1.
          6    1    1    2  501    0 -0.29707339489E+00 -0.12822440723E+03  0.32924781828E+03  0.39341417451E+03  0.17300000000E+03 0.  1.
         -6    1    1    2    0  502  0.29707339489E+00  0.12822440723E+03  0.20762244977E+03  0.29912818074E+03  0.17300000000E+03 0. -1.
<mgrwt>
<rscale>  2 0.21533831E+03</rscale>
<asrwt>0</asrwt>
<pdfrwt beam="1">  1       21 0.94570199E-01 0.21533831E+03</pdfrwt>
<pdfrwt beam="2">  1       21 0.11974776E-01 0.21533831E+03</pdfrwt>
<totfact> 0.54538296E+04</totfact>
</mgrwt>
</event>
<event>
 4    1  0.4067306E+000  0.1784169E+03  0.7546771E-02  0.1169344E+00
         21   -1    0    0  501  502  0.00000000000E+00  0.00000000000E+00  0.59627771246E+03  0.59627771246E+03  0.00000000000E+00 0.  1.
         21   -1    0    0  502  503 -0.00000000000E+00 -0.00000000000E+00 -0.83344014561E+03  0.83344014561E+03  0.00000000000E+00 0.  1.
          6    1    1    2  501    0 -0.42746999405E+02 -0.87335145365E+01  0.57300392437E+03  0.60013838202E+03  0.17300000000E+03 0.  1.
         -6    1    1    2    0  503  0.42746999405E+02  0.87335145365E+01 -0.81016635751E+03  0.82957947605E+03  0.17300000000E+03 0.  1.
<mgrwt>
<rscale>  2 0.17841687E+03</rscale>
<asrwt>0</asrwt>
<pdfrwt beam="1">  1       21 0.91735033E-01 0.17841687E+03</pdfrwt>
<pdfrwt beam="2">  1       21 0.12822156E+00 0.17841687E+03</pdfrwt>
<totfact> 0.45740189E+02</totfact>
</mgrwt>
</event>
<event>
 4    1  0.4067306E+000  0.1954261E+03  0.7546771E-02  0.1153656E+00
         21   -1    0    0  501  502  0.00000000000E+00  0.00000000000E+00  0.25565597965E+03  0.25565597965E+03  0.00000000000E+00 0.  1.
         21   -1    0    0  502  503 -0.00000000000E+00 -0.00000000000E+00 -0.28906150913E+03  0.28906150913E+03  0.00000000000E+00 0.  1.
          6    1    1    2  501    0 -0.85531132712E+02  0.30769710229E+02  0.17262171617E+03  0.26074816706E+03  0.17300000000E+03 0.  1.
         -6    1    1    2    0  503  0.85531132712E+02 -0.30769710229E+02 -0.20602724565E+03  0.28396932172E+03  0.17300000000E+03 0.  1.
<mgrwt>
<rscale>  2 0.19542607E+03</rscale>
<asrwt>0</asrwt>
<pdfrwt beam="1">  1       21 0.39331689E-01 0.19542607E+03</pdfrwt>
<pdfrwt beam="2">  1       21 0.44471001E-01 0.19542607E+03</pdfrwt>
<totfact> 0.30210937E+04</totfact>
</mgrwt>
</event>
<event>
 4    1  0.4067306E+000  0.2153702E+03  0.7546771E-02  0.1137383E+00
         21   -1    0    0  503  502  0.00000000000E+00  0.00000000000E+00  0.43915994244E+03  0.43915994244E+03  0.00000000000E+00 0.  1.
         21   -1    0    0  501  503 -0.00000000000E+00 -0.00000000000E+00 -0.22223837757E+03  0.22223837757E+03  0.00000000000E+00 0.  1.
          6    1    1    2  501    0  0.68042648380E+02 -0.10874528778E+03 -0.13109459848E+03  0.25213118285E+03  0.17300000000E+03 0.  1.
         -6    1    1    2    0  502 -0.68042648380E+02  0.10874528778E+03  0.34801616334E+03  0.40926713716E+03  0.17300000000E+03 0.  1.
<mgrwt>
<rscale>  2 0.21537024E+03</rscale>
<asrwt>0</asrwt>
<pdfrwt beam="1">  1       21 0.67563068E-01 0.21537024E+03</pdfrwt>
<pdfrwt beam="2">  1       21 0.34190520E-01 0.21537024E+03</pdfrwt>
<totfact> 0.16281140E+04</totfact>
</mgrwt>
</event>
<event>
 4    1  0.4067306E+000  0.2173785E+03  0.7546771E-02  0.1135853E+00
         21   -1    0    0  503  502  0.00000000000E+00  0.00000000000E+00  0.39042907214E+03  0.39042907214E+03  0.00000000000E+00 0.  1.
         21   -1    0    0  501  503 -0.00000000000E+00 -0.00000000000E+00 -0.13329515238E+03  0.13329515238E+03  0.00000000000E+00 0. -1.
          6    1    1    2  501    0 -0.12995666990E+03  0.20872619061E+02  0.20800203606E+03  0.30086250894E+03  0.17300000000E+03 0.  1.
         -6    1    1    2    0  502  0.12995666990E+03 -0.20872619061E+02  0.49131883694E+02  0.22286171559E+03  0.17300000000E+03 0. -1.
<mgrwt>
<rscale>  2 0.21737848E+03</rscale>
<asrwt>0</asrwt>
<pdfrwt beam="1">  1       21 0.60066011E-01 0.21737848E+03</pdfrwt>
<pdfrwt beam="2">  1       21 0.20506947E-01 0.21737848E+03</pdfrwt>
<totfact> 0.56290802E+04</totfact>
</mgrwt>
</event>
<event>
 4    1  0.4067306E+000  0.1843894E+03  0.7546771E-02  0.1163621E+00
         21   -1    0    0  503  502  0.00000000000E+00  0.00000000000E+00  0.27338707054E+03  0.27338707054E+03  0.00000000000E+00 0.  1.
         21   -1    0    0  501  503 -0.00000000000E+00 -0.00000000000E+00 -0.15573791856E+03  0.15573791856E+03  0.00000000000E+00 0.  1.
          6    1    1    2  501    0 -0.63687147806E+02 -0.37922984169E+01 -0.37479111339E+02  0.18815982066E+03  0.17300000000E+03 0.  1.
         -6    1    1    2    0  502  0.63687147806E+02  0.37922984169E+01  0.15512826332E+03  0.24096516844E+03  0.17300000000E+03 0.  1.
<mgrwt>
<rscale>  2 0.18438936E+03</rscale>
<asrwt>0</asrwt>
<pdfrwt beam="1">  1       21 0.42059549E-01 0.18438936E+03</pdfrwt>
<pdfrwt beam="2">  1       21 0.23959680E-01 0.18438936E+03</pdfrwt>
<totfact> 0.89644111E+04</totfact>
</mgrwt>
</event>
<event>
 4    1  0.4067306E+000  0.2103832E+03  0.7546771E-02  0.1141263E+00
         21   -1    0    0  501  502  0.00000000000E+00  0.00000000000E+00  0.21562898745E+03  0.21562898745E+03  0.00000000000E+00 0.  1.
         21   -1    0    0  502  503 -0.00000000000E+00 -0.00000000000E+00 -0.32635684156E+03  0.32635684156E+03  0.00000000000E+00 0.  1.
          6    1    1    2  501    0  0.11856643504E+03  0.16555676282E+02  0.10970638359E+03  0.23726900458E+03  0.17300000000E+03 0.  1.
         -6    1    1    2    0  503 -0.11856643504E+03 -0.16555676282E+02 -0.22043423771E+03  0.30471682443E+03  0.17300000000E+03 0.  1.
<mgrwt>
<rscale>  2 0.21038320E+03</rscale>
<asrwt>0</asrwt>
<pdfrwt beam="1">  1       21 0.33173691E-01 0.21038320E+03</pdfrwt>
<pdfrwt beam="2">  1       21 0.50208744E-01 0.21038320E+03</pdfrwt>
<totfact> 0.32739495E+04</totfact>
</mgrwt>
</event>
<event>
 4    1  0.4067306E+000  0.2333654E+03  0.7546771E-02  0.1124293E+00
         21   -1    0    0  501  502  0.00000000000E+00  0.00000000000E+00  0.14294724118E+03  0.14294724118E+03  0.00000000000E+00 0.  1.
         21   -1    0    0  502  503 -0.00000000000E+00 -0.00000000000E+00 -0.38220173301E+03  0.38220173301E+03  0.00000000000E+00 0.  1.
          6    1    1    2  501    0 -0.15662134477E+03 -0.41999994163E+00 -0.10475552281E+03  0.25579902579E+03  0.17300000000E+03 0.  1.
         -6    1    1    2    0  503  0.15662134477E+03  0.41999994163E+00 -0.13449896902E+03  0.26934994840E+03  0.17300000000E+03 0.  1.
<mgrwt>
<rscale>  2 0.23336543E+03</rscale>
<asrwt>0</asrwt>
<pdfrwt beam="1">  1       21 0.21991883E-01 0.23336543E+03</pdfrwt>
<pdfrwt beam="2">  1       21 0.58800267E-01 0.23336543E+03</pdfrwt>
<totfact> 0.51296793E+04</totfact>
</mgrwt>
</event>
<event>
 4    1  0.4067306E+000  0.2103143E+03  0.7546771E-02  0.1141317E+00
         21   -1    0    0  501  502  0.00000000000E+00  0.00000000000E+00  0.18294119477E+04  0.18294119477E+04  0.00000000000E+00 0.  1.
         21   -1    0    0  502  503 -0.00000000000E+00 -0.00000000000E+00 -0.24678306937E+02  0.24678306937E+02  0.00000000000E+00 0.  1.
          6    1    1    2  501    0  0.11495064465E+03 -0.33007192928E+02  0.10343195105E+04  0.10554851848E+04  0.17300000000E+03 0.  1.
         -6    1    1    2    0  503 -0.11495064465E+03  0.33007192928E+02  0.77041413020E+03  0.79860506980E+03  0.17300000000E+03 0.  1.
<mgrwt>
<rscale>  2 0.21031435E+03</rscale>
<asrwt>0</asrwt>
<pdfrwt beam="1">  1       21 0.28144789E+00 0.21031435E+03</pdfrwt>
<pdfrwt beam="2">  1       21 0.37966640E-02 0.21031435E+03</pdfrwt>
<totfact> 0.18362855E+04</totfact>
</mgrwt>
</event>
<event>
 4    1  0.4067306E+000  0.2090011E+03  0.7546771E-02  0.1142359E+00
         21   -1    0    0  501  502  0.00000000000E+00  0.00000000000E+00  0.86732860241E+03  0.86732860241E+03  0.00000000000E+00 0.  1.
         21   -1    0    0  502  503 -0.00000000000E+00 -0.00000000000E+00 -0.15335290450E+03  0.15335290450E+03  0.00000000000E+00 0. -1.
          6    1    1    2  501    0  0.98136131097E+02  0.64201041478E+02  0.77521389917E+03  0.80289355672E+03  0.17300000000E+03 0.  1.
         -6    1    1    2    0  503 -0.98136131097E+02 -0.64201041478E+02 -0.61238201257E+02  0.21778795019E+03  0.17300000000E+03 0. -1.
<mgrwt>
<rscale>  2 0.20900113E+03</rscale>
<asrwt>0</asrwt>
<pdfrwt beam="1">  1       21 0.13343517E+00 0.20900113E+03</pdfrwt>
<pdfrwt beam="2">  1       21 0.23592755E-01 0.20900113E+03</pdfrwt>
<totfact> 0.67577147E+03</totfact>
</mgrwt>
</event>
<event>
 4    1  0.4067306E+000  0.1994387E+03  0.7546771E-02  0.1150213E+00
         21   -1    0    0  501  502  0.00000000000E+00  0.00000000000E+00  0.54824743206E+02  0.54824743206E+02  0.00000000000E+00 0. -1.
         21   -1    0    0  502  503 -0.00000000000E+00 -0.00000000000E+00 -0.78719572476E+03  0.78719572476E+03  0.00000000000E+00 0.  1.
          6    1    1    2  501    0 -0.90769922336E+02  0.40094924421E+02 -0.24832963081E+03  0.31850178540E+03  0.17300000000E+03 0. -1.
         -6    1    1    2    0  503  0.90769922336E+02 -0.40094924421E+02 -0.48404135074E+03  0.52351868256E+03  0.17300000000E+03 0.  1.
<mgrwt>
<rscale>  2 0.19943867E+03</rscale>
<asrwt>0</asrwt>
<pdfrwt beam="1">  1       21 0.84345759E-02 0.19943867E+03</pdfrwt>
<pdfrwt beam="2">  1       21 0.12110703E+00 0.19943867E+03</pdfrwt>
<totfact> 0.56287945E+04</totfact>
</mgrwt>
</event>
<event>
 4    1  0.4067306E+000  0.1826541E+03  0.7546771E-02  0.1165259E+00
         21   -1    0    0  503  502  0.00000000000E+00  0.00000000000E+00  0.19258522117E+03  0.19258522117E+03  0.00000000000E+00 0. -1.
         21   -1    0    0  501  503 -0.00000000000E+00 -0.00000000000E+00 -0.22911450450E+03  0.22911450450E+03  0.00000000000E+00 0. -1.
          6    1    1    2  501    0  0.24965086733E+02  0.53012032605E+02 -0.12239387992E+03  0.21986994565E+03  0.17300000000E+03 0. -1.
         -6    1    1    2    0  502 -0.24965086733E+02 -0.53012032605E+02  0.85864596587E+02  0.20182978002E+03  0.17300000000E+03 0. -1.
<mgrwt>
<rscale>  2 0.18265413E+03</rscale>
<asrwt>0</asrwt>
<pdfrwt beam="1">  1       21 0.29628496E-01 0.18265413E+03</pdfrwt>
<pdfrwt beam="2">  1       21 0.35248385E-01 0.18265413E+03</pdfrwt>
<totfact> 0.85055673E+04</totfact>
</mgrwt>
</event>
<event>
 4    1  0.4067306E+000  0.1742977E+03  0.7546771E-02  0.1173439E+00
         21   -1    0    0  501  502  0.00000000000E+00  0.00000000000E+00  0.34937469674E+02  0.34937469674E+02  0.00000000000E+00 0. -1.
         21   -1    0    0  502  503 -0.00000000000E+00 -0.00000000000E+00 -0.87201982200E+03  0.87201982200E+03  0.00000000000E+00 0. -1.
          6    1    1    2  501    0 -0.63862294977E+01 -0.20245887463E+02 -0.39437981788E+03  0.43117875717E+03  0.17300000000E+03 0.  1.
         -6    1    1    2    0  503  0.63862294977E+01  0.20245887463E+02 -0.44270253445E+03  0.47577853450E+03  0.17300000000E+03 0.  1.
<mgrwt>
<rscale>  2 0.17429768E+03</rscale>
<asrwt>0</asrwt>
<pdfrwt beam="1">  1       21 0.53749956E-02 0.17429768E+03</pdfrwt>
<pdfrwt beam="2">  1       21 0.13415689E+00 0.17429768E+03</pdfrwt>
<totfact> 0.95764184E+04</totfact>
</mgrwt>
</event>
<event>
 4    1  0.4067306E+000  0.1879127E+03  0.7546771E-02  0.1160358E+00
         21   -1    0    0  503  502  0.00000000000E+00  0.00000000000E+00  0.11185336117E+03  0.11185336117E+03  0.00000000000E+00 0. -1.
         21   -1    0    0  501  503 -0.00000000000E+00 -0.00000000000E+00 -0.42702170159E+03  0.42702170159E+03  0.00000000000E+00 0. -1.
          6    1    1    2  501    0 -0.13050601019E+02 -0.72193214214E+02 -0.29515907284E+03  0.34990006665E+03  0.17300000000E+03 0. -1.
         -6    1    1    2    0  502  0.13050601019E+02  0.72193214214E+02 -0.20009267579E+02  0.18897499611E+03  0.17300000000E+03 0. -1.
<mgrwt>
<rscale>  2 0.18791269E+03</rscale>
<asrwt>0</asrwt>
<pdfrwt beam="1">  1       21 0.17208209E-01 0.18791269E+03</pdfrwt>
<pdfrwt beam="2">  1       21 0.65695647E-01 0.18791269E+03</pdfrwt>
<totfact> 0.65098828E+04</totfact>
</mgrwt>
</event>
<event>
 4    1  0.4067306E+000  0.1732880E+03  0.7546771E-02  0.1174462E+00
         21   -1    0    0  503  502  0.00000000000E+00  0.00000000000E+00  0.13895785545E+03  0.13895785545E+03  0.00000000000E+00 0. -1.
         21   -1    0    0  501  503 -0.00000000000E+00 -0.00000000000E+00 -0.21610000822E+03  0.21610000822E+03  0.00000000000E+00 0. -1.
          6    1    1    2  501    0 -0.64247283867E+01  0.76451444340E+01 -0.38303267610E+02  0.17747074598E+03  0.17300000000E+03 0. -1.
         -6    1    1    2    0  502  0.64247283867E+01 -0.76451444340E+01 -0.38838885164E+02  0.17758711769E+03  0.17300000000E+03 0. -1.
<mgrwt>
<rscale>  2 0.17328798E+03</rscale>
<asrwt>0</asrwt>
<pdfrwt beam="1">  1       21 0.21378132E-01 0.17328798E+03</pdfrwt>
<pdfrwt beam="2">  1       21 0.33246155E-01 0.17328798E+03</pdfrwt>
<totfact> 0.17853429E+05</totfact>
</mgrwt>
</event>
<event>
 4    1  0.4067306E+000  0.1765725E+03  0.7546771E-02  0.1171162E+00
         21   -1    0    0  503  502  0.00000000000E+00  0.00000000000E+00  0.36134635081E+03  0.36134635081E+03  0.00000000000E+00 0. -1.
         21   -1    0    0  501  503 -0.00000000000E+00 -0.00000000000E+00 -0.11219044272E+03  0.11219044272E+03  0.00000000000E+00 0. -1.
          6    1    1    2  501    0  0.15945724791E+02 -0.31536855851E+02  0.10798748998E+02  0.17690238098E+03  0.17300000000E+03 0. -1.
         -6    1    1    2    0  502 -0.15945724791E+02  0.31536855851E+02  0.23835715909E+03  0.29663441254E+03  0.17300000000E+03 0. -1.
<mgrwt>
<rscale>  2 0.17657248E+03</rscale>
<asrwt>0</asrwt>
<pdfrwt beam="1">  1       21 0.55591746E-01 0.17657248E+03</pdfrwt>
<pdfrwt beam="2">  1       21 0.17260068E-01 0.17657248E+03</pdfrwt>
<totfact> 0.93093123E+04</totfact>
</mgrwt>
</event>
<event>
 4    1  0.4067306E+000  0.1874721E+03  0.7546771E-02  0.1160761E+00
         21   -1    0    0  501  502  0.00000000000E+00  0.00000000000E+00  0.92331805386E+03  0.92331805386E+03  0.00000000000E+00 0.  1.
         21   -1    0    0  502  503 -0.00000000000E+00 -0.00000000000E+00 -0.55261641738E+02  0.55261641738E+02  0.00000000000E+00 0. -1.
          6    1    1    2  501    0 -0.87243900737E+00 -0.72221940191E+02  0.70697668246E+03  0.73141082801E+03  0.17300000000E+03 0.  1.
         -6    1    1    2    0  503  0.87243900737E+00  0.72221940191E+02  0.16107972967E+03  0.24716886759E+03  0.17300000000E+03 0. -1.
<mgrwt>
<rscale>  2 0.18747205E+03</rscale>
<asrwt>0</asrwt>
<pdfrwt beam="1">  1       21 0.14204892E+00 0.18747205E+03</pdfrwt>
<pdfrwt beam="2">  1       21 0.85017917E-02 0.18747205E+03</pdfrwt>
<totfact> 0.37304133E+04</totfact>
</mgrwt>
</event>
<event>
 4    1  0.4067306E+000  0.2425222E+03  0.7546771E-02  0.1118124E+00
         21   -1    0    0  501  502  0.00000000000E+00  0.00000000000E+00  0.27539278137E+03  0.27539278137E+03  0.00000000000E+00 0. -1.
         21   -1    0    0  502  503 -0.00000000000E+00 -0.00000000000E+00 -0.21640304846E+03  0.21640304846E+03  0.00000000000E+00 0. -1.
          6    1    1    2  501    0 -0.12483487528E+03  0.11534416462E+03  0.57605073242E+02  0.24926966695E+03  0.17300000000E+03 0. -1.
         -6    1    1    2    0  503  0.12483487528E+03 -0.11534416462E+03  0.13846596729E+01  0.24252616288E+03  0.17300000000E+03 0. -1.
<mgrwt>
<rscale>  2 0.24252221E+03</rscale>
<asrwt>0</asrwt>
<pdfrwt beam="1">  1       21 0.42368120E-01 0.24252221E+03</pdfrwt>
<pdfrwt beam="2">  1       21 0.33292777E-01 0.24252221E+03</pdfrwt>
<totfact> 0.45509656E+04</totfact>
</mgrwt>
</event>
<event>
 4    1  0.4067306E+000  0.2194832E+03  0.7546771E-02  0.1134269E+00
         21   -1    0    0  503  502  0.00000000000E+00  0.00000000000E+00  0.13112283127E+04  0.13112283127E+04  0.00000000000E+00 0.  1.
         21   -1    0    0  501  503 -0.00000000000E+00 -0.00000000000E+00 -0.37342410886E+02  0.37342410886E+02  0.00000000000E+00 0. -1.
          6    1    1    2  501    0  0.10818256036E+03  0.80872691420E+02  0.72267584123E+03  0.75527030266E+03  0.17300000000E+03 0.  1.
         -6    1    1    2    0  502 -0.10818256036E+03 -0.80872691420E+02  0.55121006064E+03  0.59330042098E+03  0.17300000000E+03 0. -1.
<mgrwt>
<rscale>  2 0.21948316E+03</rscale>
<asrwt>0</asrwt>
<pdfrwt beam="1">  1       21 0.20172740E+00 0.21948316E+03</pdfrwt>
<pdfrwt beam="2">  1       21 0.57449873E-02 0.21948316E+03</pdfrwt>
<totfact> 0.27278547E+04</totfact>
</mgrwt>
</event>
<event>
 4    1  0.4067306E+000  0.2231484E+03  0.7546771E-02  0.1131557E+00
         21   -1    0    0  501  502  0.00000000000E+00  0.00000000000E+00  0.24140327170E+03  0.24140327170E+03  0.00000000000E+00 0. -1.
         21   -1    0    0  502  503 -0.00000000000E+00 -0.00000000000E+00 -0.32911533162E+03  0.32911533162E+03  0.00000000000E+00 0.  1.
          6    1    1    2  501    0  0.72687732944E+02 -0.12075889613E+03  0.13042014621E+03  0.25846592049E+03  0.17300000000E+03 0. -1.
         -6    1    1    2    0  503 -0.72687732944E+02  0.12075889613E+03 -0.21813220613E+03  0.31205268284E+03  0.17300000000E+03 0.  1.
<mgrwt>
<rscale>  2 0.22314842E+03</rscale>
<asrwt>0</asrwt>
<pdfrwt beam="1">  1       21 0.37138965E-01 0.22314842E+03</pdfrwt>
<pdfrwt beam="2">  1       21 0.50633128E-01 0.22314842E+03</pdfrwt>
<totfact> 0.25521441E+04</totfact>
</mgrwt>
</event>
<event>
 4    1  0.4067306E+000  0.2046983E+03  0.7546771E-02  0.1145834E+00
         21   -1    0    0  503  502  0.00000000000E+00  0.00000000000E+00  0.18373873610E+03  0.18373873610E+03  0.00000000000E+00 0.  1.
         21   -1    0    0  501  503 -0.00000000000E+00 -0.00000000000E+00 -0.26026712755E+03  0.26026712755E+03  0.00000000000E+00 0. -1.
          6    1    1    2  501    0 -0.32666326139E+02 -0.10442856580E+03 -0.11637299507E+03  0.23546568370E+03  0.17300000000E+03 0. -1.
         -6    1    1    2    0  502  0.32666326139E+02  0.10442856580E+03  0.39844603611E+02  0.20854017995E+03  0.17300000000E+03 0.  1.
<mgrwt>
<rscale>  2 0.20469835E+03</rscale>
<asrwt>0</asrwt>
<pdfrwt beam="1">  1       21 0.28267498E-01 0.20469835E+03</pdfrwt>
<pdfrwt beam="2">  1       21 0.40041096E-01 0.20469835E+03</pdfrwt>
<totfact> 0.71517846E+04</totfact>
</mgrwt>
</event>
<event>
 4    1  0.4067306E+000  0.2814156E+03  0.7546771E-02  0.1094918E+00
         21   -1    0    0  501  502  0.00000000000E+00  0.00000000000E+00  0.45925613439E+03  0.45925613439E+03  0.00000000000E+00 0.  1.
         21   -1    0    0  502  503 -0.00000000000E+00 -0.00000000000E+00 -0.27920927775E+03  0.27920927775E+03  0.00000000000E+00 0. -1.
          6    1    1    2  501    0 -0.42298429976E+02 -0.21789117546E+03  0.31834963621E+03  0.42490141491E+03  0.17300000000E+03 0.  1.
         -6    1    1    2    0  503  0.42298429976E+02  0.21789117546E+03 -0.13830277956E+03  0.31356399722E+03  0.17300000000E+03 0. -1.
<mgrwt>
<rscale>  2 0.28141557E+03</rscale>
<asrwt>0</asrwt>
<pdfrwt beam="1">  1       21 0.70654790E-01 0.28141557E+03</pdfrwt>
<pdfrwt beam="2">  1       21 0.42955273E-01 0.28141557E+03</pdfrwt>
<totfact> 0.89727313E+03</totfact>
</mgrwt>
</event>
<event>
 4    1  0.4067306E+000  0.3281320E+03  0.7546771E-02  0.1071966E+00
         21   -1    0    0  503  502  0.00000000000E+00  0.00000000000E+00  0.18522944620E+03  0.18522944620E+03  0.00000000000E+00 0.  1.
         21   -1    0    0  501  503 -0.00000000000E+00 -0.00000000000E+00 -0.58201979141E+03  0.58201979141E+03  0.00000000000E+00 0.  1.
          6    1    1    2  501    0  0.21771773346E+02  0.27797054027E+03 -0.18474104892E+03  0.37656325701E+03  0.17300000000E+03 0.  1.
         -6    1    1    2    0  502 -0.21771773346E+02 -0.27797054027E+03 -0.21204929629E+03  0.39068598059E+03  0.17300000000E+03 0.  1.
<mgrwt>
<rscale>  2 0.32813203E+03</rscale>
<asrwt>0</asrwt>
<pdfrwt beam="1">  1       21 0.28496838E-01 0.32813203E+03</pdfrwt>
<pdfrwt beam="2">  1       21 0.89541505E-01 0.32813203E+03</pdfrwt>
<totfact> 0.11654160E+04</totfact>
</mgrwt>
</event>
<event>
 4    1  0.4067306E+000  0.2827888E+03  0.7546771E-02  0.1094175E+00
         21   -1    0    0  503  502  0.00000000000E+00  0.00000000000E+00  0.71069921269E+03  0.71069921269E+03  0.00000000000E+00 0. -1.
         21   -1    0    0  501  503 -0.00000000000E+00 -0.00000000000E+00 -0.17654033744E+03  0.17654033744E+03  0.00000000000E+00 0. -1.
          6    1    1    2  501    0  0.10618296584E+03 -0.19688998876E+03 -0.61345725826E-01  0.28278877926E+03  0.17300000000E+03 0. -1.
         -6    1    1    2    0  502 -0.10618296584E+03  0.19688998876E+03  0.53422022097E+03  0.60445077087E+03  0.17300000000E+03 0. -1.
<mgrwt>
<rscale>  2 0.28278877E+03</rscale>
<asrwt>0</asrwt>
<pdfrwt beam="1">  1       21 0.10933834E+00 0.28278877E+03</pdfrwt>
<pdfrwt beam="2">  1       21 0.27160052E-01 0.28278877E+03</pdfrwt>
<totfact> 0.80951550E+03</totfact>
</mgrwt>
</event>
<event>
 4    1  0.4067306E+000  0.2161059E+03  0.7546771E-02  0.1136820E+00
         21   -1    0    0  501  502  0.00000000000E+00  0.00000000000E+00  0.21695851789E+03  0.21695851789E+03  0.00000000000E+00 0. -1.
         21   -1    0    0  502  503 -0.00000000000E+00 -0.00000000000E+00 -0.25961306214E+03  0.25961306214E+03  0.00000000000E+00 0. -1.
          6    1    1    2  501    0 -0.55730849259E+02 -0.11690521401E+03 -0.11982205800E+03  0.24710136018E+03  0.17300000000E+03 0. -1.
         -6    1    1    2    0  503  0.55730849259E+02  0.11690521401E+03  0.77167513745E+02  0.22947021985E+03  0.17300000000E+03 0. -1.
<mgrwt>
<rscale>  2 0.21610589E+03</rscale>
<asrwt>0</asrwt>
<pdfrwt beam="1">  1       21 0.33378234E-01 0.21610589E+03</pdfrwt>
<pdfrwt beam="2">  1       21 0.39940471E-01 0.21610589E+03</pdfrwt>
<totfact> 0.51648828E+04</totfact>
</mgrwt>
</event>
<event>
 4    1  0.4067306E+000  0.2291717E+03  0.7546771E-02  0.1127224E+00
         21   -1    0    0  501  502  0.00000000000E+00  0.00000000000E+00  0.80346195178E+03  0.80346195178E+03  0.00000000000E+00 0.  1.
         21   -1    0    0  502  503 -0.00000000000E+00 -0.00000000000E+00 -0.70818816416E+02  0.70818816416E+02  0.00000000000E+00 0.  1.
          6    1    1    2  501    0 -0.63561842208E+02  0.13620047341E+03  0.48761244781E+03  0.53878156613E+03  0.17300000000E+03 0.  1.
         -6    1    1    2    0  503  0.63561842208E+02 -0.13620047341E+03  0.24503068755E+03  0.33549920206E+03  0.17300000000E+03 0.  1.
<mgrwt>
<rscale>  2 0.22917172E+03</rscale>
<asrwt>0</asrwt>
<pdfrwt beam="1">  1       21 0.12360952E+00 0.22917172E+03</pdfrwt>
<pdfrwt beam="2">  1       21 0.10895203E-01 0.22917172E+03</pdfrwt>
<totfact> 0.33511032E+04</totfact>
</mgrwt>
</event>
<event>
 4    1  0.4067306E+000  0.2345123E+03  0.7546771E-02  0.1123503E+00
         21   -1    0    0  501  502  0.00000000000E+00  0.00000000000E+00  0.17502172948E+03  0.17502172948E+03  0.00000000000E+00 0. -1.
         21   -1    0    0  502  503 -0.00000000000E+00 -0.00000000000E+00 -0.50336226655E+03  0.50336226655E+03  0.00000000000E+00 0. -1.
          6    1    1    2  501    0  0.77348165250E+02  0.13814594294E+03  0.43749073144E+02  0.23855821432E+03  0.17300000000E+03 0. -1.
         -6    1    1    2    0  503 -0.77348165250E+02 -0.13814594294E+03 -0.37208961022E+03  0.43982578171E+03  0.17300000000E+03 0. -1.
<mgrwt>
<rscale>  2 0.23451235E+03</rscale>
<asrwt>0</asrwt>
<pdfrwt beam="1">  1       21 0.26926420E-01 0.23451235E+03</pdfrwt>
<pdfrwt beam="2">  1       21 0.77440347E-01 0.23451235E+03</pdfrwt>
<totfact> 0.18978956E+04</totfact>
</mgrwt>
</event>
<event>
 4    1  0.4067306E+000  0.2487559E+03  0.7546771E-02  0.1114094E+00
         21   -1    0    0  501  502  0.00000000000E+00  0.00000000000E+00  0.30240006519E+03  0.30240006519E+03  0.00000000000E+00 0. -1.
         21   -1    0    0  502  503 -0.00000000000E+00 -0.00000000000E+00 -0.21976138617E+03  0.21976138617E+03  0.00000000000E+00 0.  1.
          6    1    1    2  501    0  0.16105875701E+03 -0.77527776601E+02 -0.27193052373E+02  0.25023776983E+03  0.17300000000E+03 0.  1.
         -6    1    1    2    0  503 -0.16105875701E+03  0.77527776601E+02  0.10983173140E+03  0.27192368153E+03  0.17300000000E+03 0. -1.
<mgrwt>
<rscale>  2 0.24875586E+03</rscale>
<asrwt>0</asrwt>
<pdfrwt beam="1">  1       21 0.46523087E-01 0.24875586E+03</pdfrwt>
<pdfrwt beam="2">  1       21 0.33809444E-01 0.24875586E+03</pdfrwt>
<totfact> 0.36299609E+04</totfact>
</mgrwt>
</event>
<event>
 4    1  0.4067306E+000  0.3059817E+03  0.7546771E-02  0.1082288E+00
         21   -1    0    0  503  502  0.00000000000E+00  0.00000000000E+00  0.79628100596E+03  0.79628100596E+03  0.00000000000E+00 0.  1.
         21   -1    0    0  501  503 -0.00000000000E+00 -0.00000000000E+00 -0.15437393772E+03  0.15437393772E+03  0.00000000000E+00 0. -1.
          6    1    1    2  501    0 -0.10950154069E+03 -0.22738786081E+03  0.88889361937E+02  0.31863167658E+03  0.17300000000E+03 0. -1.
         -6    1    1    2    0  502  0.10950154069E+03  0.22738786081E+03  0.55301770630E+03  0.63202326709E+03  0.17300000000E+03 0.  1.
<mgrwt>
<rscale>  2 0.30598174E+03</rscale>
<asrwt>0</asrwt>
<pdfrwt beam="1">  1       21 0.12250477E+00 0.30598174E+03</pdfrwt>
<pdfrwt beam="2">  1       21 0.23749837E-01 0.30598174E+03</pdfrwt>
<totfact> 0.78207360E+03</totfact>
</mgrwt>
</event>
<event>
 4    1  0.4067306E+000  0.2026637E+03  0.7546771E-02  0.1147511E+00
         21   -1    0    0  501  502  0.00000000000E+00  0.00000000000E+00  0.79210818184E+02  0.79210818184E+02  0.00000000000E+00 0. -1.
         21   -1    0    0  502  503 -0.00000000000E+00 -0.00000000000E+00 -0.13311501311E+04  0.13311501311E+04  0.00000000000E+00 0.  1.
          6    1    1    2  501    0  0.97646388233E+02  0.40109244922E+02 -0.74993723753E+02  0.21609402413E+03  0.17300000000E+03 0. -1.
         -6    1    1    2    0  503 -0.97646388233E+02 -0.40109244922E+02 -0.11769455892E+04  0.11942669252E+04  0.17300000000E+03 0.  1.
<mgrwt>
<rscale>  2 0.20266368E+03</rscale>
<asrwt>0</asrwt>
<pdfrwt beam="1">  1       21 0.12186280E-01 0.20266368E+03</pdfrwt>
<pdfrwt beam="2">  1       21 0.20479233E+00 0.20266368E+03</pdfrwt>
<totfact> 0.70808583E+03</totfact>
</mgrwt>
</event>
<event>
 4    1  0.4067306E+000  0.1915904E+03  0.7546771E-02  0.1157035E+00
         21   -1    0    0  501  502  0.00000000000E+00  0.00000000000E+00  0.31126409620E+03  0.31126409620E+03  0.00000000000E+00 0. -1.
         21   -1    0    0  502  503 -0.00000000000E+00 -0.00000000000E+00 -0.11796793084E+03  0.11796793084E+03  0.00000000000E+00 0. -1.
          6    1    1    2  501    0 -0.50359711859E+02  0.65128873945E+02  0.92718424690E+02  0.21284636966E+03  0.17300000000E+03 0. -1.
         -6    1    1    2    0  503  0.50359711859E+02 -0.65128873945E+02  0.10057774068E+03  0.21638565738E+03  0.17300000000E+03 0. -1.
<mgrwt>
<rscale>  2 0.19159037E+03</rscale>
<asrwt>0</asrwt>
<pdfrwt beam="1">  1       21 0.47886784E-01 0.19159037E+03</pdfrwt>
<pdfrwt beam="2">  1       21 0.18148913E-01 0.19159037E+03</pdfrwt>
<totfact> 0.11530631E+05</totfact>
</mgrwt>
</event>
<event>
 4    1  0.4067306E+000  0.2477109E+03  0.7546771E-02  0.1114760E+00
         21   -1    0    0  501  502  0.00000000000E+00  0.00000000000E+00  0.15293973214E+03  0.15293973214E+03  0.00000000000E+00 0.  1.
         21   -1    0    0  502  503 -0.00000000000E+00 -0.00000000000E+00 -0.72993134351E+03  0.72993134351E+03  0.00000000000E+00 0. -1.
          6    1    1    2  501    0  0.14766603978E+03  0.98114428218E+02  0.77425691266E+01  0.24783189404E+03  0.17300000000E+03 0.  1.
         -6    1    1    2    0  503 -0.14766603978E+03 -0.98114428218E+02 -0.58473418050E+03  0.63503918160E+03  0.17300000000E+03 0. -1.
<mgrwt>
<rscale>  2 0.24771092E+03</rscale>
<asrwt>0</asrwt>
<pdfrwt beam="1">  1       21 0.23529189E-01 0.24771092E+03</pdfrwt>
<pdfrwt beam="2">  1       21 0.11229713E+00 0.24771092E+03</pdfrwt>
<totfact> 0.10189911E+04</totfact>
</mgrwt>
</event>
<event>
 4    1  0.4067306E+000  0.2064743E+03  0.7546771E-02  0.1144389E+00
         21   -1    0    0  503  502  0.00000000000E+00  0.00000000000E+00  0.41474113781E+02  0.41474113781E+02  0.00000000000E+00 0. -1.
         21   -1    0    0  501  503 -0.00000000000E+00 -0.00000000000E+00 -0.10279372113E+04  0.10279372113E+04  0.00000000000E+00 0. -1.
          6    1    1    2  501    0 -0.43474385129E+02  0.10398367836E+03 -0.49044560503E+03  0.53213580881E+03  0.17300000000E+03 0. -1.
         -6    1    1    2    0  502  0.43474385129E+02 -0.10398367836E+03 -0.49601749253E+03  0.53727551631E+03  0.17300000000E+03 0. -1.
<mgrwt>
<rscale>  2 0.20647428E+03</rscale>
<asrwt>0</asrwt>
<pdfrwt beam="1">  1       21 0.63806328E-02 0.20647428E+03</pdfrwt>
<pdfrwt beam="2">  1       21 0.15814419E+00 0.20647428E+03</pdfrwt>
<totfact> 0.45712756E+04</totfact>
</mgrwt>
</event>
<event>
 4    1  0.4067306E+000  0.2083464E+03  0.7546771E-02  0.1142882E+00
         21   -1    0    0  501  502  0.00000000000E+00  0.00000000000E+00  0.79660011309E+02  0.79660011309E+02  0.00000000000E+00 0. -1.
         21   -1    0    0  502  503 -0.00000000000E+00 -0.00000000000E+00 -0.13248928069E+04  0.13248928069E+04  0.00000000000E+00 0.  1.
          6    1    1    2  501    0  0.90029143957E+02  0.73307409169E+02 -0.83778882009E+02  0.22455984519E+03  0.17300000000E+03 0. -1.
         -6    1    1    2    0  503 -0.90029143957E+02 -0.73307409169E+02 -0.11614539136E+04  0.11799929730E+04  0.17300000000E+03 0.  1.
<mgrwt>
<rscale>  2 0.20834640E+03</rscale>
<asrwt>0</asrwt>
<pdfrwt beam="1">  1       21 0.12255385E-01 0.20834640E+03</pdfrwt>
<pdfrwt beam="2">  1       21 0.20382968E+00 0.20834640E+03</pdfrwt>
<totfact> 0.70743169E+03</totfact>
</mgrwt>
</event>
<event>
 4    1  0.4067306E+000  0.2567693E+03  0.7546771E-02  0.1109100E+00
         21   -1    0    0  503  502  0.00000000000E+00  0.00000000000E+00  0.77912083857E+02  0.77912083857E+02  0.00000000000E+00 0. -1.
         21   -1    0    0  501  503 -0.00000000000E+00 -0.00000000000E+00 -0.11369553006E+04  0.11369553006E+04  0.00000000000E+00 0. -1.
          6    1    1    2  501    0 -0.18422114733E+03 -0.45431666828E+02 -0.83669168323E+03  0.87520479904E+03  0.17300000000E+03 0. -1.
         -6    1    1    2    0  502  0.18422114733E+03  0.45431666828E+02 -0.22235153351E+03  0.33966258541E+03  0.17300000000E+03 0. -1.
<mgrwt>
<rscale>  2 0.25676929E+03</rscale>
<asrwt>0</asrwt>
<pdfrwt beam="1">  1       21 0.11986475E-01 0.25676929E+03</pdfrwt>
<pdfrwt beam="2">  1       21 0.17491619E+00 0.25676929E+03</pdfrwt>
<totfact> 0.11088872E+04</totfact>
</mgrwt>
</event>
<event>
 4    1  0.4067306E+000  0.1810275E+03  0.7546771E-02  0.1166812E+00
         21   -1    0    0  503  502  0.00000000000E+00  0.00000000000E+00  0.68635088082E+03  0.68635088082E+03  0.00000000000E+00 0.  1.
         21   -1    0    0  501  503 -0.00000000000E+00 -0.00000000000E+00 -0.53024969312E+02  0.53024969312E+02  0.00000000000E+00 0.  1.
          6    1    1    2  501    0  0.52506956562E+02  0.92174168126E+01  0.20002397311E+03  0.26977867054E+03  0.17300000000E+03 0.  1.
         -6    1    1    2    0  502 -0.52506956562E+02 -0.92174168126E+01  0.43330193840E+03  0.46959717959E+03  0.17300000000E+03 0.  1.
<mgrwt>
<rscale>  2 0.18102746E+03</rscale>
<asrwt>0</asrwt>
<pdfrwt beam="1">  1       21 0.10559244E+00 0.18102746E+03</pdfrwt>
<pdfrwt beam="2">  1       21 0.81576881E-02 0.18102746E+03</pdfrwt>
<totfact> 0.84033622E+04</totfact>
</mgrwt>
</event>
<event>
 4    1  0.4067306E+000  0.1769144E+03  0.7546771E-02  0.1170823E+00
         21   -1    0    0  503  502  0.00000000000E+00  0.00000000000E+00  0.18130543849E+04  0.18130543849E+04  0.00000000000E+00 0. -1.
         21   -1    0    0  501  503 -0.00000000000E+00 -0.00000000000E+00 -0.46268677536E+02  0.46268677536E+02  0.00000000000E+00 0. -1.
          6    1    1    2  501    0 -0.41546898655E+01  0.36775371613E+02  0.14731609194E+03  0.23021885316E+03  0.17300000000E+03 0. -1.
         -6    1    1    2    0  502  0.41546898655E+01 -0.36775371613E+02  0.16194696155E+04  0.16291042093E+04  0.17300000000E+03 0. -1.
<mgrwt>
<rscale>  2 0.17691436E+03</rscale>
<asrwt>0</asrwt>
<pdfrwt beam="1">  1       21 0.27893139E+00 0.17691436E+03</pdfrwt>
<pdfrwt beam="2">  1       21 0.71182595E-02 0.17691436E+03</pdfrwt>
<totfact> 0.67501398E+03</totfact>
</mgrwt>
</event>
<event>
 4    1  0.4067306E+000  0.2532382E+03  0.7546771E-02  0.1111275E+00
         21   -1    0    0  503  502  0.00000000000E+00  0.00000000000E+00  0.29933558929E+03  0.29933558929E+03  0.00000000000E+00 0. -1.
         21   -1    0    0  501  503 -0.00000000000E+00 -0.00000000000E+00 -0.47300265454E+03  0.47300265454E+03  0.00000000000E+00 0.  1.
          6    1    1    2  501    0  0.10944731621E+03  0.14906998658E+03 -0.37245890315E+03  0.45039450536E+03  0.17300000000E+03 0.  1.
         -6    1    1    2    0  502 -0.10944731621E+03 -0.14906998658E+03  0.19879183790E+03  0.32194373847E+03  0.17300000000E+03 0. -1.
<mgrwt>
<rscale>  2 0.25323818E+03</rscale>
<asrwt>0</asrwt>
<pdfrwt beam="1">  1       21 0.46051629E-01 0.25323818E+03</pdfrwt>
<pdfrwt beam="2">  1       21 0.72769640E-01 0.25323818E+03</pdfrwt>
<totfact> 0.73853910E+03</totfact>
</mgrwt>
</event>
<event>
 4    1  0.4067306E+000  0.1966531E+03  0.7546771E-02  0.1152594E+00
         21   -1    0    0  503  502  0.00000000000E+00  0.00000000000E+00  0.26547126214E+03  0.26547126214E+03  0.00000000000E+00 0.  1.
         21   -1    0    0  501  503 -0.00000000000E+00 -0.00000000000E+00 -0.31454991230E+03  0.31454991230E+03  0.00000000000E+00 0.  1.
          6    1    1    2  501    0  0.92993054298E+02 -0.97840199654E+01 -0.23703596984E+03  0.30799104888E+03  0.17300000000E+03 0.  1.
         -6    1    1    2    0  502 -0.92993054298E+02  0.97840199654E+01  0.18795731968E+03  0.27203012557E+03  0.17300000000E+03 0.  1.
<mgrwt>
<rscale>  2 0.19665308E+03</rscale>
<asrwt>0</asrwt>
<pdfrwt beam="1">  1       21 0.40841733E-01 0.19665308E+03</pdfrwt>
<pdfrwt beam="2">  1       21 0.48392294E-01 0.19665308E+03</pdfrwt>
<totfact> 0.23498794E+04</totfact>
</mgrwt>
</event>
<event>
 4    1  0.4067306E+000  0.1926472E+03  0.7546771E-02  0.1156095E+00
         21   -1    0    0  501  502  0.00000000000E+00  0.00000000000E+00  0.50606365607E+03  0.50606365607E+03  0.00000000000E+00 0. -1.
         21   -1    0    0  502  503 -0.00000000000E+00 -0.00000000000E+00 -0.18264571945E+03  0.18264571945E+03  0.00000000000E+00 0.  1.
          6    1    1    2  501    0  0.84614102036E+02 -0.49397227753E+01  0.42810613919E+03  0.46945480458E+03  0.17300000000E+03 0. -1.
         -6    1    1    2    0  503 -0.84614102036E+02  0.49397227753E+01 -0.10468820258E+03  0.21925457095E+03  0.17300000000E+03 0.  1.
<mgrwt>
<rscale>  2 0.19264721E+03</rscale>
<asrwt>0</asrwt>
<pdfrwt beam="1">  1       21 0.77855947E-01 0.19264721E+03</pdfrwt>
<pdfrwt beam="2">  1       21 0.28099342E-01 0.19264721E+03</pdfrwt>
<totfact> 0.17694472E+04</totfact>
</mgrwt>
</event>
<event>
 4    1  0.4067306E+000  0.2401416E+03  0.7546771E-02  0.1119699E+00
         21   -1    0    0  503  502  0.00000000000E+00  0.00000000000E+00  0.19216227185E+03  0.19216227185E+03  0.00000000000E+00 0.  1.
         21   -1    0    0  501  503 -0.00000000000E+00 -0.00000000000E+00 -0.31602587412E+03  0.31602587412E+03  0.00000000000E+00 0. -1.
          6    1    1    2  501    0 -0.14936770473E+03 -0.73676825233E+02 -0.11897168186E+03  0.26799672923E+03  0.17300000000E+03 0.  1.
         -6    1    1    2    0  502  0.14936770473E+03  0.73676825233E+02 -0.48919204074E+01  0.24019141675E+03  0.17300000000E+03 0.  1.
<mgrwt>
<rscale>  2 0.24014160E+03</rscale>
<asrwt>0</asrwt>
<pdfrwt beam="1">  1       21 0.29563427E-01 0.24014160E+03</pdfrwt>
<pdfrwt beam="2">  1       21 0.48619365E-01 0.24014160E+03</pdfrwt>
<totfact> 0.43309292E+04</totfact>
</mgrwt>
</event>
<event>
 4    1  0.4067306E+000  0.1873912E+03  0.7546771E-02  0.1160836E+00
         21   -1    0    0  501  502  0.00000000000E+00  0.00000000000E+00  0.18182201638E+04  0.18182201638E+04  0.00000000000E+00 0.  1.
         21   -1    0    0  502  503 -0.00000000000E+00 -0.00000000000E+00 -0.44860783547E+02  0.44860783547E+02  0.00000000000E+00 0. -1.
          6    1    1    2  501    0 -0.69693109969E+02  0.18147129385E+02  0.15896616155E+04  0.16006684540E+04  0.17300000000E+03 0.  1.
         -6    1    1    2    0  503  0.69693109969E+02 -0.18147129385E+02  0.18369776475E+03  0.26241249333E+03  0.17300000000E+03 0. -1.
<mgrwt>
<rscale>  2 0.18739116E+03</rscale>
<asrwt>0</asrwt>
<pdfrwt beam="1">  1       21 0.27972612E+00 0.18739116E+03</pdfrwt>
<pdfrwt beam="2">  1       21 0.69016604E-02 0.18739116E+03</pdfrwt>
<totfact> 0.69627773E+03</totfact>
</mgrwt>
</event>
<event>
 4    1  0.4067306E+000  0.2851809E+03  0.7546771E-02  0.1092892E+00
         21   -1    0    0  501  502  0.00000000000E+00  0.00000000000E+00  0.60719220230E+02  0.60719220230E+02  0.00000000000E+00 0.  1.
         21   -1    0    0  502  503 -0.00000000000E+00 -0.00000000000E+00 -0.13410569890E+04  0.13410569890E+04  0.00000000000E+00 0.  1.
          6    1    1    2  501    0  0.22498958381E+03 -0.27907257833E+02 -0.61563072263E+03  0.67847572876E+03  0.17300000000E+03 0.  1.
         -6    1    1    2    0  503 -0.22498958381E+03  0.27907257833E+02 -0.66470704610E+03  0.72330048043E+03  0.17300000000E+03 0.  1.
<mgrwt>
<rscale>  2 0.28518087E+03</rscale>
<asrwt>0</asrwt>
<pdfrwt beam="1">  1       21 0.93414189E-02 0.28518087E+03</pdfrwt>
<pdfrwt beam="2">  1       21 0.20631645E+00 0.28518087E+03</pdfrwt>
<totfact> 0.10487298E+04</totfact>
</mgrwt>
</event>
<event>
 4    1  0.4067306E+000  0.1784413E+03  0.7546771E-02  0.1169320E+00
         21   -1    0    0  503  502  0.00000000000E+00  0.00000000000E+00  0.11812817390E+03  0.11812817390E+03  0.00000000000E+00 0.  1.
         21   -1    0    0  501  503 -0.00000000000E+00 -0.00000000000E+00 -0.31776022656E+03  0.31776022656E+03  0.00000000000E+00 0.  1.
          6    1    1    2  501    0 -0.14201159574E+02  0.41359776084E+02 -0.18470879018E+03  0.25682414447E+03  0.17300000000E+03 0.  1.
         -6    1    1    2    0  502  0.14201159574E+02 -0.41359776084E+02 -0.14923262486E+02  0.17906425599E+03  0.17300000000E+03 0.  1.
<mgrwt>
<rscale>  2 0.17844132E+03</rscale>
<asrwt>0</asrwt>
<pdfrwt beam="1">  1       21 0.18173565E-01 0.17844132E+03</pdfrwt>
<pdfrwt beam="2">  1       21 0.48886188E-01 0.17844132E+03</pdfrwt>
<totfact> 0.11071871E+05</totfact>
</mgrwt>
</event>
<event>
 4    1  0.4067306E+000  0.3093203E+03  0.7546771E-02  0.1080672E+00
         21   -1    0    0  503  502  0.00000000000E+00  0.00000000000E+00  0.10867404500E+03  0.10867404500E+03  0.00000000000E+00 0.  1.
         21   -1    0    0  501  503 -0.00000000000E+00 -0.00000000000E+00 -0.92020558430E+03  0.92020558430E+03  0.00000000000E+00 0.  1.
          6    1    1    2  501    0  0.25409564532E+03  0.34430596981E+02 -0.29880070970E+03  0.43007083962E+03  0.17300000000E+03 0.  1.
         -6    1    1    2    0  502 -0.25409564532E+03 -0.34430596981E+02 -0.51273082960E+03  0.59880878968E+03  0.17300000000E+03 0.  1.
<mgrwt>
<rscale>  2 0.30932032E+03</rscale>
<asrwt>0</asrwt>
<pdfrwt beam="1">  1       21 0.16719084E-01 0.30932032E+03</pdfrwt>
<pdfrwt beam="2">  1       21 0.14157009E+00 0.30932032E+03</pdfrwt>
<totfact> 0.10434526E+04</totfact>
</mgrwt>
</event>
<event>
 4    1  0.4067306E+000  0.2375907E+03  0.7546771E-02  0.1121408E+00
         21   -1    0    0  501  502  0.00000000000E+00  0.00000000000E+00  0.99845734270E+03  0.99845734270E+03  0.00000000000E+00 0.  1.
         21   -1    0    0  502  503 -0.00000000000E+00 -0.00000000000E+00 -0.81193263913E+02  0.81193263913E+02  0.00000000000E+00 0. -1.
          6    1    1    2  501    0 -0.14811522050E+03 -0.67692146990E+02  0.75611406578E+03  0.79256408307E+03  0.17300000000E+03 0. -1.
         -6    1    1    2    0  503  0.14811522050E+03  0.67692146990E+02  0.16115001301E+03  0.28708652354E+03  0.17300000000E+03 0. -1.
<mgrwt>
<rscale>  2 0.23759071E+03</rscale>
<asrwt>0</asrwt>
<pdfrwt beam="1">  1       21 0.15360881E+00 0.23759071E+03</pdfrwt>
<pdfrwt beam="2">  1       21 0.12491272E-01 0.23759071E+03</pdfrwt>
<totfact> 0.14878494E+04</totfact>
</mgrwt>
</event>
<event>
 4    1  0.4067306E+000  0.2268789E+03  0.7546771E-02  0.1128856E+00
         21   -1    0    0  501  502  0.00000000000E+00  0.00000000000E+00  0.23491852199E+03  0.23491852199E+03  0.00000000000E+00 0.  1.
         21   -1    0    0  502  503 -0.00000000000E+00 -0.00000000000E+00 -0.78502452150E+03  0.78502452150E+03  0.00000000000E+00 0.  1.
          6    1    1    2  501    0 -0.10080418214E+03  0.10669380589E+03  0.15793714410E+03  0.27643840695E+03  0.17300000000E+03 0.  1.
         -6    1    1    2    0  503  0.10080418214E+03 -0.10669380589E+03 -0.70804314360E+03  0.74350463654E+03  0.17300000000E+03 0.  1.
<mgrwt>
<rscale>  2 0.22687894E+03</rscale>
<asrwt>0</asrwt>
<pdfrwt beam="1">  1       21 0.36141311E-01 0.22687894E+03</pdfrwt>
<pdfrwt beam="2">  1       21 0.12077300E+00 0.22687894E+03</pdfrwt>
<totfact> 0.37333570E+03</totfact>
</mgrwt>
</event>
<event>
 4    1  0.4067306E+000  0.2349512E+03  0.7546771E-02  0.1123203E+00
         21   -1    0    0  503  502  0.00000000000E+00  0.00000000000E+00  0.61759594222E+03  0.61759594222E+03  0.00000000000E+00 0.  1.
         21   -1    0    0  501  503 -0.00000000000E+00 -0.00000000000E+00 -0.98866464709E+02  0.98866464709E+02  0.00000000000E+00 0.  1.
          6    1    1    2  501    0 -0.78333778443E+02  0.13833612638E+03  0.37031835445E+03  0.43856327747E+03  0.17300000000E+03 0.  1.
         -6    1    1    2    0  502  0.78333778443E+02 -0.13833612638E+03  0.14841112307E+03  0.27789912946E+03  0.17300000000E+03 0.  1.
<mgrwt>
<rscale>  2 0.23495120E+03</rscale>
<asrwt>0</asrwt>
<pdfrwt beam="1">  1       21 0.95014758E-01 0.23495120E+03</pdfrwt>
<pdfrwt beam="2">  1       21 0.15210226E-01 0.23495120E+03</pdfrwt>
<totfact> 0.34646069E+04</totfact>
</mgrwt>
</event>
<event>
 4    1  0.4067306E+000  0.1831807E+03  0.7546771E-02  0.1164760E+00
         21   -1    0    0  501  502  0.00000000000E+00  0.00000000000E+00  0.21068059731E+03  0.21068059731E+03  0.00000000000E+00 0. -1.
         21   -1    0    0  502  503 -0.00000000000E+00 -0.00000000000E+00 -0.16451157880E+03  0.16451157880E+03  0.00000000000E+00 0. -1.
          6    1    1    2  501    0  0.32617118113E+02  0.50619157224E+02  0.56568831424E+02  0.19171647858E+03  0.17300000000E+03 0. -1.
         -6    1    1    2    0  503 -0.32617118113E+02 -0.50619157224E+02 -0.10399812912E+02  0.18347569752E+03  0.17300000000E+03 0. -1.
<mgrwt>
<rscale>  2 0.18318072E+03</rscale>
<asrwt>0</asrwt>
<pdfrwt beam="1">  1       21 0.32412399E-01 0.18318072E+03</pdfrwt>
<pdfrwt beam="2">  1       21 0.25309474E-01 0.18318072E+03</pdfrwt>
<totfact> 0.13593274E+05</totfact>
</mgrwt>
</event>
<event>
 4    1  0.4067306E+000  0.2048337E+03  0.7546771E-02  0.1145724E+00
         21   -1    0    0  503  502  0.00000000000E+00  0.00000000000E+00  0.14084651156E+03  0.14084651156E+03  0.00000000000E+00 0.  1.
         21   -1    0    0  501  503 -0.00000000000E+00 -0.00000000000E+00 -0.48019987032E+03  0.48019987032E+03  0.00000000000E+00 0.  1.
          6    1    1    2  501    0  0.59309687875E+02 -0.92250723642E+02 -0.36100864763E+03  0.41507117311E+03  0.17300000000E+03 0.  1.
         -6    1    1    2    0  502 -0.59309687875E+02  0.92250723642E+02  0.21655288869E+02  0.20597520876E+03  0.17300000000E+03 0.  1.
<mgrwt>
<rscale>  2 0.20483368E+03</rscale>
<asrwt>0</asrwt>
<pdfrwt beam="1">  1       21 0.21668694E-01 0.20483368E+03</pdfrwt>
<pdfrwt beam="2">  1       21 0.73876902E-01 0.20483368E+03</pdfrwt>
<totfact> 0.32443708E+04</totfact>
</mgrwt>
</event>
<event>
 4    1  0.4067306E+000  0.2780729E+03  0.7546771E-02  0.1096746E+00
         21   -1    0    0  501  502  0.00000000000E+00  0.00000000000E+00  0.15695415810E+03  0.15695415810E+03  0.00000000000E+00 0. -1.
         21   -1    0    0  502  503 -0.00000000000E+00 -0.00000000000E+00 -0.53501349847E+03  0.53501349847E+03  0.00000000000E+00 0.  1.
          6    1    1    2  501    0  0.92809854744E+02 -0.19693113159E+03 -0.28637929231E+03  0.39917118983E+03  0.17300000000E+03 0.  1.
         -6    1    1    2    0  503 -0.92809854744E+02  0.19693113159E+03 -0.91680048058E+02  0.29279646675E+03  0.17300000000E+03 0. -1.
<mgrwt>
<rscale>  2 0.27807290E+03</rscale>
<asrwt>0</asrwt>
<pdfrwt beam="1">  1       21 0.24146794E-01 0.27807290E+03</pdfrwt>
<pdfrwt beam="2">  1       21 0.82309768E-01 0.27807290E+03</pdfrwt>
<totfact> 0.19955231E+04</totfact>
</mgrwt>
</event>
<event>
 4    1  0.4067306E+000  0.2386560E+03  0.7546771E-02  0.1120691E+00
         21   -1    0    0  503  502  0.00000000000E+00  0.00000000000E+00  0.39672633460E+03  0.39672633460E+03  0.00000000000E+00 0.  1.
         21   -1    0    0  501  503 -0.00000000000E+00 -0.00000000000E+00 -0.65230397734E+03  0.65230397734E+03  0.00000000000E+00 0.  1.
          6    1    1    2  501    0 -0.61922046477E+02 -0.15229359552E+03 -0.59100084257E+03  0.63736855508E+03  0.17300000000E+03 0.  1.
         -6    1    1    2    0  502  0.61922046477E+02  0.15229359552E+03  0.33542319984E+03  0.41166175686E+03  0.17300000000E+03 0.  1.
<mgrwt>
<rscale>  2 0.23865598E+03</rscale>
<asrwt>0</asrwt>
<pdfrwt beam="1">  1       21 0.61034821E-01 0.23865598E+03</pdfrwt>
<pdfrwt beam="2">  1       21 0.10035446E+00 0.23865598E+03</pdfrwt>
<totfact> 0.19561052E+03</totfact>
</mgrwt>
</event>
<event>
 4    1  0.4067306E+000  0.2057062E+03  0.7546771E-02  0.1145012E+00
         21   -1    0    0  503  502  0.00000000000E+00  0.00000000000E+00  0.10093408716E+04  0.10093408716E+04  0.00000000000E+00 0. -1.
         21   -1    0    0  501  503 -0.00000000000E+00 -0.00000000000E+00 -0.51712784544E+02  0.51712784544E+02  0.00000000000E+00 0. -1.
          6    1    1    2  501    0 -0.10729157570E+03 -0.29572825461E+02  0.24798770903E+03  0.32220015216E+03  0.17300000000E+03 0. -1.
         -6    1    1    2    0  502  0.10729157570E+03  0.29572825461E+02  0.70964037798E+03  0.73885350394E+03  0.17300000000E+03 0. -1.
<mgrwt>
<rscale>  2 0.20570618E+03</rscale>
<asrwt>0</asrwt>
<pdfrwt beam="1">  1       21 0.15528320E+00 0.20570618E+03</pdfrwt>
<pdfrwt beam="2">  1       21 0.79558138E-02 0.20570618E+03</pdfrwt>
<totfact> 0.32780001E+04</totfact>
</mgrwt>
</event>
<event>
 4    1  0.4067306E+000  0.1760588E+03  0.7546771E-02  0.1171673E+00
         21   -1    0    0  501  502  0.00000000000E+00  0.00000000000E+00  0.12745339211E+04  0.12745339211E+04  0.00000000000E+00 0.  1.
         21   -1    0    0  502  503 -0.00000000000E+00 -0.00000000000E+00 -0.32232608333E+02  0.32232608333E+02  0.00000000000E+00 0.  1.
          6    1    1    2  501    0  0.13609363307E+02  0.29706807263E+02  0.94487783615E+03  0.96114038226E+03  0.17300000000E+03 0.  1.
         -6    1    1    2    0  503 -0.13609363307E+02 -0.29706807263E+02  0.29742347664E+03  0.34562614719E+03  0.17300000000E+03 0.  1.
<mgrwt>
<rscale>  2 0.17605882E+03</rscale>
<asrwt>0</asrwt>
<pdfrwt beam="1">  1       21 0.19608210E+00 0.17605882E+03</pdfrwt>
<pdfrwt beam="2">  1       21 0.49588638E-02 0.17605882E+03</pdfrwt>
<totfact> 0.39266352E+04</totfact>
</mgrwt>
</event>
<event>
 4    1  0.4067306E+000  0.1779303E+03  0.7546771E-02  0.1169821E+00
         21   -1    0    0  503  502  0.00000000000E+00  0.00000000000E+00  0.81414557137E+03  0.81414557137E+03  0.00000000000E+00 0.  1.
         21   -1    0    0  501  503 -0.00000000000E+00 -0.00000000000E+00 -0.68191780362E+02  0.68191780362E+02  0.00000000000E+00 0.  1.
          6    1    1    2  501    0 -0.38284447096E+02 -0.16262961530E+02  0.83767495743E+02  0.19666259469E+03  0.17300000000E+03 0.  1.
         -6    1    1    2    0  502  0.38284447096E+02  0.16262961530E+02  0.66218629527E+03  0.68567475704E+03  0.17300000000E+03 0.  1.
<mgrwt>
<rscale>  2 0.17793028E+03</rscale>
<asrwt>0</asrwt>
<pdfrwt beam="1">  1       21 0.12525316E+00 0.17793028E+03</pdfrwt>
<pdfrwt beam="2">  1       21 0.10491044E-01 0.17793028E+03</pdfrwt>
<totfact> 0.35679711E+04</totfact>
</mgrwt>
</event>
<event>
 4    1  0.4067306E+000  0.1785077E+03  0.7546771E-02  0.1169255E+00
         21   -1    0    0  503  502  0.00000000000E+00  0.00000000000E+00  0.29397106807E+02  0.29397106807E+02  0.00000000000E+00 0.  1.
         21   -1    0    0  501  503 -0.00000000000E+00 -0.00000000000E+00 -0.12082913887E+04  0.12082913887E+04  0.00000000000E+00 0.  1.
          6    1    1    2  501    0  0.26103569016E+02  0.35420616987E+02 -0.78796612247E+03  0.80793293446E+03  0.17300000000E+03 0. -1.
         -6    1    1    2    0  502 -0.26103569016E+02 -0.35420616987E+02 -0.39092815943E+03  0.42975556106E+03  0.17300000000E+03 0. -1.
<mgrwt>
<rscale>  2 0.17850775E+03</rscale>
<asrwt>0</asrwt>
<pdfrwt beam="1">  1       21 0.45226312E-02 0.17850775E+03</pdfrwt>
<pdfrwt beam="2">  1       21 0.18589101E+00 0.17850775E+03</pdfrwt>
<totfact> 0.53400312E+04</totfact>
</mgrwt>
</event>
<event>
 4    1  0.4067306E+000  0.1731574E+03  0.7546771E-02  0.1174595E+00
         21   -1    0    0  501  502  0.00000000000E+00  0.00000000000E+00  0.17244528685E+03  0.17244528685E+03  0.00000000000E+00 0. -1.
         21   -1    0    0  502  503 -0.00000000000E+00 -0.00000000000E+00 -0.32181959003E+03  0.32181959003E+03  0.00000000000E+00 0. -1.
          6    1    1    2  501    0 -0.29014285632E+01  0.67884152300E+01  0.92875283710E+02  0.19649254233E+03  0.17300000000E+03 0. -1.
         -6    1    1    2    0  503  0.29014285632E+01 -0.67884152300E+01 -0.24224958690E+03  0.29777233455E+03  0.17300000000E+03 0. -1.
<mgrwt>
<rscale>  2 0.17315745E+03</rscale>
<asrwt>0</asrwt>
<pdfrwt beam="1">  1       21 0.26530045E-01 0.17315745E+03</pdfrwt>
<pdfrwt beam="2">  1       21 0.49510705E-01 0.17315745E+03</pdfrwt>
<totfact> 0.53060150E+04</totfact>
</mgrwt>
</event>
<event>
 4    1  0.4067306E+000  0.1845951E+03  0.7546771E-02  0.1163429E+00
         21   -1    0    0  501  502  0.00000000000E+00  0.00000000000E+00  0.64830539274E+02  0.64830539274E+02  0.00000000000E+00 0. -1.
         21   -1    0    0  502  503 -0.00000000000E+00 -0.00000000000E+00 -0.76265617866E+03  0.76265617866E+03  0.00000000000E+00 0. -1.
          6    1    1    2  501    0 -0.12999193594E+02 -0.63066458215E+02 -0.11824539683E+03  0.21921982359E+03  0.17300000000E+03 0. -1.
         -6    1    1    2    0  503  0.12999193594E+02  0.63066458215E+02 -0.57958024256E+03  0.60826689434E+03  0.17300000000E+03 0. -1.
<mgrwt>
<rscale>  2 0.18459512E+03</rscale>
<asrwt>0</asrwt>
<pdfrwt beam="1">  1       21 0.99739297E-02 0.18459512E+03</pdfrwt>
<pdfrwt beam="2">  1       21 0.11733171E+00 0.18459512E+03</pdfrwt>
<totfact> 0.45698121E+04</totfact>
</mgrwt>
</event>
<event>
 4    1  0.4067306E+000  0.2043143E+03  0.7546771E-02  0.1146149E+00
         21   -1    0    0  501  502  0.00000000000E+00  0.00000000000E+00  0.35727847303E+02  0.35727847303E+02  0.00000000000E+00 0.  1.
         21   -1    0    0  502  503 -0.00000000000E+00 -0.00000000000E+00 -0.16378026446E+04  0.16378026446E+04  0.00000000000E+00 0.  1.
          6    1    1    2  501    0  0.10869840870E+03  0.52026295398E-01 -0.35306988254E+03  0.40792485671E+03  0.17300000000E+03 0.  1.
         -6    1    1    2    0  503 -0.10869840870E+03 -0.52026295398E-01 -0.12490049147E+04  0.12656056352E+04  0.17300000000E+03 0.  1.
<mgrwt>
<rscale>  2 0.20431433E+03</rscale>
<asrwt>0</asrwt>
<pdfrwt beam="1">  1       21 0.54965930E-02 0.20431433E+03</pdfrwt>
<pdfrwt beam="2">  1       21 0.25196959E+00 0.20431433E+03</pdfrwt>
<totfact> 0.14672087E+04</totfact>
</mgrwt>
</event>
<event>
 4    1  0.4067306E+000  0.2081105E+03  0.7546771E-02  0.1143071E+00
         21   -1    0    0  501  502  0.00000000000E+00  0.00000000000E+00  0.16536331069E+03  0.16536331069E+03  0.00000000000E+00 0. -1.
         21   -1    0    0  502  503 -0.00000000000E+00 -0.00000000000E+00 -0.10254628205E+04  0.10254628205E+04  0.00000000000E+00 0. -1.
          6    1    1    2  501    0 -0.80547354318E+02 -0.83024750894E+02  0.83731780980E+02  0.22432341985E+03  0.17300000000E+03 0. -1.
         -6    1    1    2    0  503  0.80547354318E+02  0.83024750894E+02 -0.94383129081E+03  0.96650271136E+03  0.17300000000E+03 0. -1.
<mgrwt>
<rscale>  2 0.20811051E+03</rscale>
<asrwt>0</asrwt>
<pdfrwt beam="1">  1       21 0.25440510E-01 0.20811051E+03</pdfrwt>
<pdfrwt beam="2">  1       21 0.15776351E+00 0.20811051E+03</pdfrwt>
<totfact> 0.37781930E+03</totfact>
</mgrwt>
</event>
<event>
 4    1  0.4067306E+000  0.2098001E+03  0.7546771E-02  0.1141724E+00
         21   -1    0    0  503  502  0.00000000000E+00  0.00000000000E+00  0.40600810877E+02  0.40600810877E+02  0.00000000000E+00 0.  1.
         21   -1    0    0  501  503 -0.00000000000E+00 -0.00000000000E+00 -0.11326294500E+04  0.11326294500E+04  0.00000000000E+00 0.  1.
          6    1    1    2  501    0  0.11487845383E+03 -0.29832954536E+02 -0.66741806246E+03  0.69961627656E+03  0.17300000000E+03 0.  1.
         -6    1    1    2    0  502 -0.11487845383E+03  0.29832954536E+02 -0.42461057670E+03  0.47361398435E+03  0.17300000000E+03 0.  1.
<mgrwt>
<rscale>  2 0.20980006E+03</rscale>
<asrwt>0</asrwt>
<pdfrwt beam="1">  1       21 0.62462783E-02 0.20980006E+03</pdfrwt>
<pdfrwt beam="2">  1       21 0.17425069E+00 0.20980006E+03</pdfrwt>
<totfact> 0.36281213E+04</totfact>
</mgrwt>
</event>
<event>
 4    1  0.4067306E+000  0.2082761E+03  0.7546771E-02  0.1142938E+00
         21   -1    0    0  503  502  0.00000000000E+00  0.00000000000E+00  0.36092050736E+03  0.36092050736E+03  0.00000000000E+00 0.  1.
         21   -1    0    0  501  503 -0.00000000000E+00 -0.00000000000E+00 -0.13147672237E+03  0.13147672237E+03  0.00000000000E+00 0.  1.
          6    1    1    2  501    0 -0.92423137589E+02 -0.70056469071E+02  0.42586247513E+02  0.21258535626E+03  0.17300000000E+03 0.  1.
         -6    1    1    2    0  502  0.92423137589E+02  0.70056469071E+02  0.18685753748E+03  0.27981187347E+03  0.17300000000E+03 0.  1.
<mgrwt>
<rscale>  2 0.20827613E+03</rscale>
<asrwt>0</asrwt>
<pdfrwt beam="1">  1       21 0.55526231E-01 0.20827613E+03</pdfrwt>
<pdfrwt beam="2">  1       21 0.20227188E-01 0.20827613E+03</pdfrwt>
<totfact> 0.68606175E+04</totfact>
</mgrwt>
</event>
<event>
 4    1  0.4067306E+000  0.5697619E+03  0.7546771E-02  0.9970206E-01
         21   -1    0    0  501  502  0.00000000000E+00  0.00000000000E+00  0.14301912711E+04  0.14301912711E+04  0.00000000000E+00 0.  1.
         21   -1    0    0  502  503 -0.00000000000E+00 -0.00000000000E+00 -0.23209140500E+03  0.23209140500E+03  0.00000000000E+00 0. -1.
          6    1    1    2  501    0 -0.31608658045E+03  0.44134900430E+03  0.72236068717E+03  0.92001827824E+03  0.17300000000E+03 0. -1.
         -6    1    1    2    0  503  0.31608658045E+03 -0.44134900430E+03  0.47573917893E+03  0.74226439784E+03  0.17300000000E+03 0.  1.
<mgrwt>
<rscale>  2 0.56976194E+03</rscale>
<asrwt>0</asrwt>
<pdfrwt beam="1">  1       21 0.22002942E+00 0.56976194E+03</pdfrwt>
<pdfrwt beam="2">  1       21 0.35706371E-01 0.56976194E+03</pdfrwt>
<totfact> 0.59334740E+02</totfact>
</mgrwt>
</event>
<event>
 4    1  0.4067306E+000  0.1974340E+03  0.7546771E-02  0.1151922E+00
         21   -1    0    0  503  502  0.00000000000E+00  0.00000000000E+00  0.15176254254E+03  0.15176254254E+03  0.00000000000E+00 0. -1.
         21   -1    0    0  501  503 -0.00000000000E+00 -0.00000000000E+00 -0.48324808524E+03  0.48324808524E+03  0.00000000000E+00 0. -1.
          6    1    1    2  501    0 -0.16724479685E+02  0.93656108332E+02 -0.38306418337E+03  0.43095051158E+03  0.17300000000E+03 0. -1.
         -6    1    1    2    0  502  0.16724479685E+02 -0.93656108332E+02  0.51578640672E+02  0.20406011620E+03  0.17300000000E+03 0. -1.
<mgrwt>
<rscale>  2 0.19743398E+03</rscale>
<asrwt>0</asrwt>
<pdfrwt beam="1">  1       21 0.23348083E-01 0.19743398E+03</pdfrwt>
<pdfrwt beam="2">  1       21 0.74345861E-01 0.19743398E+03</pdfrwt>
<totfact> 0.27892798E+04</totfact>
</mgrwt>
</event>
<event>
 4    1  0.4067306E+000  0.1772622E+03  0.7546771E-02  0.1170479E+00
         21   -1    0    0  503  502  0.00000000000E+00  0.00000000000E+00  0.72388828073E+03  0.72388828073E+03  0.00000000000E+00 0. -1.
         21   -1    0    0  501  503 -0.00000000000E+00 -0.00000000000E+00 -0.79071293507E+02  0.79071293507E+02  0.00000000000E+00 0. -1.
          6    1    1    2  501    0 -0.28639906172E+02  0.25935557722E+02  0.52777126612E+02  0.18495221673E+03  0.17300000000E+03 0. -1.
         -6    1    1    2    0  502  0.28639906172E+02 -0.25935557722E+02  0.59203986061E+03  0.61800735751E+03  0.17300000000E+03 0. -1.
<mgrwt>
<rscale>  2 0.17726223E+03</rscale>
<asrwt>0</asrwt>
<pdfrwt beam="1">  1       21 0.11136742E+00 0.17726223E+03</pdfrwt>
<pdfrwt beam="2">  1       21 0.12164815E-01 0.17726223E+03</pdfrwt>
<totfact> 0.36608936E+04</totfact>
</mgrwt>
</event>
<event>
 4    1  0.4067306E+000  0.1885984E+03  0.7546771E-02  0.1159732E+00
         21   -1    0    0  503  502  0.00000000000E+00  0.00000000000E+00  0.19378716770E+03  0.19378716770E+03  0.00000000000E+00 0. -1.
         21   -1    0    0  501  503 -0.00000000000E+00 -0.00000000000E+00 -0.40124406681E+03  0.40124406681E+03  0.00000000000E+00 0. -1.
          6    1    1    2  501    0 -0.10764046984E+02 -0.74327017762E+02 -0.32287271624E+03  0.37391999300E+03  0.17300000000E+03 0. -1.
         -6    1    1    2    0  502  0.10764046984E+02  0.74327017762E+02  0.11541581713E+03  0.22111124151E+03  0.17300000000E+03 0. -1.
<mgrwt>
<rscale>  2 0.18859844E+03</rscale>
<asrwt>0</asrwt>
<pdfrwt beam="1">  1       21 0.29813410E-01 0.18859844E+03</pdfrwt>
<pdfrwt beam="2">  1       21 0.61729856E-01 0.18859844E+03</pdfrwt>
<totfact> 0.26351092E+04</totfact>
</mgrwt>
</event>
<event>
 4    1  0.4067306E+000  0.1912160E+03  0.7546771E-02  0.1157369E+00
         21   -1    0    0  503  502  0.00000000000E+00  0.00000000000E+00  0.78868679367E+03  0.78868679367E+03  0.00000000000E+00 0.  1.
         21   -1    0    0  501  503 -0.00000000000E+00 -0.00000000000E+00 -0.56753806603E+02  0.56753806603E+02  0.00000000000E+00 0. -1.
          6    1    1    2  501    0  0.80077882044E+02  0.14902094989E+02  0.18506489866E+03  0.26610628768E+03  0.17300000000E+03 0. -1.
         -6    1    1    2    0  502 -0.80077882044E+02 -0.14902094989E+02  0.54686808841E+03  0.57933431259E+03  0.17300000000E+03 0.  1.
<mgrwt>
<rscale>  2 0.19121595E+03</rscale>
<asrwt>0</asrwt>
<pdfrwt beam="1">  1       21 0.12133642E+00 0.19121595E+03</pdfrwt>
<pdfrwt beam="2">  1       21 0.87313554E-02 0.19121595E+03</pdfrwt>
<totfact> 0.52963785E+04</totfact>
</mgrwt>
</event>
<event>
 4    1  0.4067306E+000  0.1800570E+03  0.7546771E-02  0.1167748E+00
         21   -1    0    0  501  502  0.00000000000E+00  0.00000000000E+00  0.95257297177E+02  0.95257297177E+02  0.00000000000E+00 0. -1.
         21   -1    0    0  502  503 -0.00000000000E+00 -0.00000000000E+00 -0.44574511898E+03  0.44574511898E+03  0.00000000000E+00 0. -1.
          6    1    1    2  501    0 -0.45873418639E+02  0.19675852732E+02 -0.43708436714E+02  0.18528609543E+03  0.17300000000E+03 0. -1.
         -6    1    1    2    0  503  0.45873418639E+02 -0.19675852732E+02 -0.30677938509E+03  0.35571632073E+03  0.17300000000E+03 0. -1.
<mgrwt>
<rscale>  2 0.18005696E+03</rscale>
<asrwt>0</asrwt>
<pdfrwt beam="1">  1       21 0.14654969E-01 0.18005696E+03</pdfrwt>
<pdfrwt beam="2">  1       21 0.68576171E-01 0.18005696E+03</pdfrwt>
<totfact> 0.79755358E+04</totfact>
</mgrwt>
</event>
<event>
 4    1  0.4067306E+000  0.2116703E+03  0.7546771E-02  0.1140250E+00
         21   -1    0    0  501  502  0.00000000000E+00  0.00000000000E+00  0.99508350922E+03  0.99508350922E+03  0.00000000000E+00 0.  1.
         21   -1    0    0  502  503 -0.00000000000E+00 -0.00000000000E+00 -0.83568586062E+02  0.83568586062E+02  0.00000000000E+00 0.  1.
          6    1    1    2  501    0 -0.38028315972E+02  0.11588417602E+03  0.82202817205E+03  0.84884310135E+03  0.17300000000E+03 0.  1.
         -6    1    1    2    0  503  0.38028315972E+02 -0.11588417602E+03  0.89486751111E+02  0.22980899393E+03  0.17300000000E+03 0.  1.
<mgrwt>
<rscale>  2 0.21167025E+03</rscale>
<asrwt>0</asrwt>
<pdfrwt beam="1">  1       21 0.15308976E+00 0.21167025E+03</pdfrwt>
<pdfrwt beam="2">  1       21 0.12856706E-01 0.21167025E+03</pdfrwt>
<totfact> 0.14491903E+04</totfact>
</mgrwt>
</event>
<event>
 4    1  0.4067306E+000  0.1867287E+03  0.7546771E-02  0.1161445E+00
         21   -1    0    0  503  502  0.00000000000E+00  0.00000000000E+00  0.11101982863E+02  0.11101982863E+02  0.00000000000E+00 0.  1.
         21   -1    0    0  501  503 -0.00000000000E+00 -0.00000000000E+00 -0.34210001520E+04  0.34210001520E+04  0.00000000000E+00 0.  1.
          6    1    1    2  501    0  0.63681042698E+02  0.29720667609E+02 -0.21961888751E+04  0.22041127849E+04  0.17300000000E+03 0.  1.
         -6    1    1    2    0  502 -0.63681042698E+02 -0.29720667609E+02 -0.12137092940E+04  0.12279893500E+04  0.17300000000E+03 0.  1.
<mgrwt>
<rscale>  2 0.18672866E+03</rscale>
<asrwt>0</asrwt>
<pdfrwt beam="1">  1       21 0.17079965E-02 0.18672866E+03</pdfrwt>
<pdfrwt beam="2">  1       21 0.52630797E+00 0.18672866E+03</pdfrwt>
<totfact> 0.19695372E+03</totfact>
</mgrwt>
</event>
