<event>
 8    1  0.1262344E-006  0.9118800E+02  0.7816164E-02  0.1184000E+00
        -11   -1    0    0    0    0  0.00000000000E+00  0.00000000000E+00  0.45593999997E+02  0.45594000000E+02  0.51100000000E-03 0.  1.
         11   -1    0    0    0    0 -0.00000000000E+00 -0.00000000000E+00 -0.45593999997E+02  0.45594000000E+02  0.51100000000E-03 0. -1.
         23    2    1    2    0    0  0.00000000000E+00  0.00000000000E+00  0.00000000000E+00  0.91188000000E+02  0.91188000000E+02 0.  0.
    9900012    2    3    3    0    0 -0.35940400421E+02 -0.63709421907E+01  0.48448406037E+01  0.54367166668E+02  0.40000188052E+02 0.  0.
         12    1    3    3    0    0  0.35940400421E+02  0.63709421907E+01 -0.48448406037E+01  0.36820833332E+02  0.00000000000E+00 0. -1.
         11    1    4    4    0    0 -0.28758552915E+02 -0.18895749880E+02  0.34332701262E+01  0.34581658047E+02  0.51100000000E-03 0. -1.
        -11    1    4    4    0    0 -0.99467457477E+01  0.12902314602E+02  0.30137161874E+01  0.16567738487E+02  0.51100000000E-03 0.  1.
        -12    1    4    4    0    0  0.27648982417E+01 -0.37750691299E+00 -0.16021457099E+01  0.32177701335E+01  0.00000000000E+00 0.  1.
</event>
<event>
 8    1  0.1262344E-006  0.9118800E+02  0.7816164E-02  0.1184000E+00
        -11   -1    0    0    0    0  0.00000000000E+00  0.00000000000E+00  0.45593999997E+02  0.45594000000E+02  0.51100000000E-03 0. -1.
         11   -1    0    0    0    0 -0.00000000000E+00 -0.00000000000E+00 -0.45593999997E+02  0.45594000000E+02  0.51100000000E-03 0.  1.
         23    2    1    2    0    0  0.00000000000E+00  0.00000000000E+00  0.00000000000E+00  0.91188000000E+02  0.91188000000E+02 0.  0.
    9900012    2    3    3    0    0  0.23971489681E+02  0.10997739601E+02 -0.25694290062E+02  0.54367093769E+02  0.40000021866E+02 0.  0.
         12    1    3    3    0    0 -0.23971489681E+02 -0.10997739601E+02  0.25694290062E+02  0.36820906231E+02  0.00000000000E+00 0. -1.
         11    1    4    4    0    0  0.75439405189E+01 -0.11275126248E+01  0.70820206429E+01  0.10408522466E+02  0.51100000000E-03 0. -1.
        -11    1    4    4    0    0  0.82487686108E+00  0.12871934654E+02 -0.19902730609E+02  0.23716783288E+02  0.51100000000E-03 0.  1.
        -12    1    4    4    0    0  0.15602672301E+02 -0.74668242897E+00 -0.12873580096E+02  0.20241788016E+02  0.00000000000E+00 0.  1.
</event>
<event>
 8    1  0.1262344E-006  0.9118800E+02  0.7816164E-02  0.1184000E+00
        -11   -1    0    0    0    0  0.00000000000E+00  0.00000000000E+00  0.45593999997E+02  0.45594000000E+02  0.51100000000E-03 0.  1.
         11   -1    0    0    0    0 -0.00000000000E+00 -0.00000000000E+00 -0.45593999997E+02  0.45594000000E+02  0.51100000000E-03 0. -1.
         23    2    1    2    0    0  0.35527136788E-14  0.00000000000E+00  0.00000000000E+00  0.91188000000E+02  0.91188000000E+02 0.  0.
    9900012    2    3    3    0    0 -0.22953584777E+02 -0.20047761915E+02 -0.20663966290E+02  0.54367091337E+02  0.40000016321E+02 0.  0.
         12    1    3    3    0    0  0.22953584777E+02  0.20047761915E+02  0.20663966290E+02  0.36820908663E+02  0.00000000000E+00 0. -1.
         11    1    4    4    0    0 -0.81230981802E+01 -0.74342426993E+01 -0.65991624207E+01  0.12837508850E+02  0.51100000000E-03 0. -1.
        -11    1    4    4    0    0 -0.24356615159E+02 -0.68736708628E+01 -0.24143067873E+01  0.25422842694E+02  0.51100000000E-03 0.  1.
        -12    1    4    4    0    0  0.95261285622E+01 -0.57398483532E+01 -0.11650497082E+02  0.16106739793E+02  0.00000000000E+00 0.  1.
</event>
<event>
 8    1  0.1262344E-006  0.9118800E+02  0.7816164E-02  0.1184000E+00
        -11   -1    0    0    0    0  0.00000000000E+00  0.00000000000E+00  0.45593999997E+02  0.45594000000E+02  0.51100000000E-03 0.  1.
         11   -1    0    0    0    0 -0.00000000000E+00 -0.00000000000E+00 -0.45593999997E+02  0.45594000000E+02  0.51100000000E-03 0. -1.
         23    2    1    2    0    0 -0.88817841970E-15 -0.88817841970E-15  0.00000000000E+00  0.91188000000E+02  0.91188000000E+02 0.  0.
    9900012    2    3    3    0    0 -0.43188189911E+01 -0.34447076594E+01 -0.36404129472E+02  0.54367097635E+02  0.40000030678E+02 0.  0.
        -12    1    3    3    0    0  0.43188189911E+01  0.34447076594E+01  0.36404129472E+02  0.36820902365E+02  0.00000000000E+00 0.  1.
         11    1    4    4    0    0 -0.31681107809E+01 -0.37792980370E+00 -0.28101146925E+02  0.28281694002E+02  0.51100000000E-03 0. -1.
        -11    1    4    4    0    0 -0.46951092707E+01 -0.10954511745E+02  0.25707107462E+01  0.12192371904E+02  0.51100000000E-03 0.  1.
        -12    1    4    4    0    0  0.35444010605E+01  0.78877338892E+01 -0.10873693293E+02  0.13893031729E+02  0.00000000000E+00 0.  1.
</event>
<event>
 8    1  0.1262344E-006  0.9118800E+02  0.7816164E-02  0.1184000E+00
        -11   -1    0    0    0    0  0.00000000000E+00  0.00000000000E+00  0.45593999997E+02  0.45594000000E+02  0.51100000000E-03 0.  1.
         11   -1    0    0    0    0 -0.00000000000E+00 -0.00000000000E+00 -0.45593999997E+02  0.45594000000E+02  0.51100000000E-03 0. -1.
         23    2    1    2    0    0 -0.35527136788E-14 -0.71054273576E-14 -0.88817841970E-15  0.91188000000E+02  0.91188000000E+02 0.  0.
    9900012    2    3    3    0    0 -0.25584309816E+02  0.25938655965E+02  0.53300371495E+01  0.54367080972E+02  0.39999992692E+02 0.  0.
         12    1    3    3    0    0  0.25584309816E+02 -0.25938655965E+02 -0.53300371495E+01  0.36820919028E+02  0.00000000000E+00 0. -1.
         11    1    4    4    0    0 -0.89573642378E+01 -0.78208105271E+01 -0.55013346985E+01  0.13102066063E+02  0.51100000000E-03 0. -1.
        -11    1    4    4    0    0 -0.14063212609E+02  0.16229970594E+02  0.95494341175E+01  0.23502714452E+02  0.51100000000E-03 0.  1.
         12    1    4    4    0    0 -0.25637329694E+01  0.17529495899E+02  0.12819377305E+01  0.17762300457E+02  0.00000000000E+00 0. -1.
</event>
<event>
 8    1  0.1262344E-006  0.9118800E+02  0.7816164E-02  0.1184000E+00
        -11   -1    0    0    0    0  0.00000000000E+00  0.00000000000E+00  0.45593999997E+02  0.45594000000E+02  0.51100000000E-03 0.  1.
         11   -1    0    0    0    0 -0.00000000000E+00 -0.00000000000E+00 -0.45593999997E+02  0.45594000000E+02  0.51100000000E-03 0. -1.
         23    2    1    2    0    0  0.00000000000E+00  0.00000000000E+00  0.35527136788E-14  0.91188000000E+02  0.91188000000E+02 0.  0.
    9900012    2    3    3    0    0  0.78914017855E+01 -0.23658667109E+02 -0.27088222098E+02  0.54367102022E+02  0.40000040678E+02 0.  0.
        -12    1    3    3    0    0 -0.78914017855E+01  0.23658667109E+02  0.27088222098E+02  0.36820897978E+02  0.00000000000E+00 0.  1.
         11    1    4    4    0    0  0.12232955969E+02 -0.22939162641E+02 -0.18823707870E+02  0.32096454207E+02  0.51100000000E-03 0. -1.
        -11    1    4    4    0    0  0.78468900115E+01  0.21455013671E+01 -0.37903780027E+01  0.89746211414E+01  0.51100000000E-03 0.  1.
        -12    1    4    4    0    0 -0.12188444195E+02 -0.28650058354E+01 -0.44741362251E+01  0.13296026673E+02  0.00000000000E+00 0.  1.
</event>
<event>
 8    1  0.1262344E-006  0.9118800E+02  0.7816164E-02  0.1184000E+00
        -11   -1    0    0    0    0  0.00000000000E+00  0.00000000000E+00  0.45593999997E+02  0.45594000000E+02  0.51100000000E-03 0.  1.
         11   -1    0    0    0    0 -0.00000000000E+00 -0.00000000000E+00 -0.45593999997E+02  0.45594000000E+02  0.51100000000E-03 0. -1.
         23    2    1    2    0    0  0.00000000000E+00  0.00000000000E+00  0.00000000000E+00  0.91188000000E+02  0.91188000000E+02 0.  0.
    9900012    2    3    3    0    0 -0.19581817028E+02  0.20241905534E+02 -0.23719114106E+02  0.54367100069E+02  0.40000036228E+02 0.  0.
        -12    1    3    3    0    0  0.19581817028E+02 -0.20241905534E+02  0.23719114106E+02  0.36820899931E+02  0.00000000000E+00 0.  1.
         11    1    4    4    0    0 -0.29279888918E+02  0.55428253438E+01 -0.17994165717E+02  0.34811274150E+02  0.51100000000E-03 0. -1.
        -11    1    4    4    0    0  0.26228739180E+01  0.20159789092E+01  0.11306222193E+01  0.34959899050E+01  0.51100000000E-03 0.  1.
         12    1    4    4    0    0  0.70751979720E+01  0.12683101281E+02 -0.68555706085E+01  0.16059836014E+02  0.00000000000E+00 0. -1.
</event>
<event>
 8    1  0.1262344E-006  0.9118800E+02  0.7816164E-02  0.1184000E+00
        -11   -1    0    0    0    0  0.00000000000E+00  0.00000000000E+00  0.45593999997E+02  0.45594000000E+02  0.51100000000E-03 0. -1.
         11   -1    0    0    0    0 -0.00000000000E+00 -0.00000000000E+00 -0.45593999997E+02  0.45594000000E+02  0.51100000000E-03 0.  1.
         23    2    1    2    0    0  0.52735593670E-15  0.00000000000E+00  0.00000000000E+00  0.91188000000E+02  0.91188000000E+02 0.  0.
    9900012    2    3    3    0    0  0.15396087408E+00 -0.22620903582E+02 -0.29052553402E+02  0.54367084178E+02  0.40000000001E+02 0.  0.
        -12    1    3    3    0    0 -0.15396087408E+00  0.22620903582E+02  0.29052553402E+02  0.36820915822E+02  0.00000000000E+00 0.  1.
         11    1    4    4    0    0 -0.20342130384E+01 -0.10286997619E+02  0.24427891774E+01  0.10766966236E+02  0.51100000000E-03 0. -1.
        -11    1    4    4    0    0 -0.93722175444E+01  0.19714331620E+01 -0.19259470855E+02  0.21509352112E+02  0.51100000000E-03 0.  1.
         12    1    4    4    0    0  0.11560391457E+02 -0.14305339125E+02 -0.12235871724E+02  0.22090765830E+02  0.00000000000E+00 0. -1.
</event>
<event>
 8    1  0.1262344E-006  0.9118800E+02  0.7816164E-02  0.1184000E+00
        -11   -1    0    0    0    0  0.00000000000E+00  0.00000000000E+00  0.45593999997E+02  0.45594000000E+02  0.51100000000E-03 0.  1.
         11   -1    0    0    0    0 -0.00000000000E+00 -0.00000000000E+00 -0.45593999997E+02  0.45594000000E+02  0.51100000000E-03 0. -1.
         23    2    1    2    0    0  0.00000000000E+00  0.00000000000E+00 -0.17763568394E-14  0.91188000000E+02  0.91188000000E+02 0.  0.
    9900012    2    3    3    0    0  0.91914986797E+01 -0.35433636439E+02  0.39691356760E+01  0.54367078267E+02  0.39999986525E+02 0.  0.
         12    1    3    3    0    0 -0.91914986797E+01  0.35433636439E+02 -0.39691356760E+01  0.36820921733E+02  0.00000000000E+00 0. -1.
         11    1    4    4    0    0 -0.28357006217E+01 -0.21779106556E+02  0.12594890443E+02  0.25318016231E+02  0.51100000000E-03 0. -1.
        -11    1    4    4    0    0  0.15868436551E+02 -0.62843015562E+01  0.45596327773E-02  0.17067505549E+02  0.51100000000E-03 0.  1.
         12    1    4    4    0    0 -0.38412372496E+01 -0.73702283270E+01 -0.86303143994E+01  0.11981556486E+02  0.00000000000E+00 0. -1.
</event>
<event>
 8    1  0.1262344E-006  0.9118800E+02  0.7816164E-02  0.1184000E+00
        -11   -1    0    0    0    0  0.00000000000E+00  0.00000000000E+00  0.45593999997E+02  0.45594000000E+02  0.51100000000E-03 0.  1.
         11   -1    0    0    0    0 -0.00000000000E+00 -0.00000000000E+00 -0.45593999997E+02  0.45594000000E+02  0.51100000000E-03 0. -1.
         23    2    1    2    0    0  0.00000000000E+00  0.00000000000E+00  0.17763568394E-14  0.91188000000E+02  0.91188000000E+02 0.  0.
    9900012    2    3    3    0    0  0.34134934750E+02 -0.57090083026E+01  0.12569508447E+02  0.54367094406E+02  0.40000023317E+02 0.  0.
         12    1    3    3    0    0 -0.34134934750E+02  0.57090083026E+01 -0.12569508447E+02  0.36820905594E+02  0.00000000000E+00 0. -1.
         11    1    4    4    0    0 -0.53818161240E+01 -0.28680951214E+01  0.87240250641E+01  0.10644178127E+02  0.51100000000E-03 0. -1.
        -11    1    4    4    0    0  0.35424637988E+02 -0.62470759773E+01 -0.17310175578E+01  0.36012877653E+02  0.51100000000E-03 0.  1.
         12    1    4    4    0    0  0.40921128863E+01  0.34061627962E+01  0.55765009402E+01  0.77100386253E+01  0.00000000000E+00 0. -1.
</event>
<event>
 8    1  0.1262344E-006  0.9118800E+02  0.7816164E-02  0.1184000E+00
        -11   -1    0    0    0    0  0.00000000000E+00  0.00000000000E+00  0.45593999997E+02  0.45594000000E+02  0.51100000000E-03 0.  1.
         11   -1    0    0    0    0 -0.00000000000E+00 -0.00000000000E+00 -0.45593999997E+02  0.45594000000E+02  0.51100000000E-03 0. -1.
         23    2    1    2    0    0  0.00000000000E+00 -0.35527136788E-14  0.17763568394E-14  0.91188000000E+02  0.91188000000E+02 0.  0.
    9900012    2    3    3    0    0 -0.29675179999E+02 -0.21250820574E+02  0.48546594850E+01  0.54367062998E+02  0.39999951716E+02 0.  0.
         12    1    3    3    0    0  0.29675179999E+02  0.21250820574E+02 -0.48546594850E+01  0.36820937002E+02  0.00000000000E+00 0. -1.
         11    1    4    4    0    0 -0.12702222319E+02 -0.80937460512E+01 -0.92935761643E+01  0.17698184516E+02  0.51100000000E-03 0. -1.
        -11    1    4    4    0    0  0.24666004645E+01 -0.92708560878E+01  0.13843085410E+02  0.16842324791E+02  0.51100000000E-03 0.  1.
        -12    1    4    4    0    0 -0.19439558144E+02 -0.38862184350E+01  0.30515023948E+00  0.19826553690E+02  0.00000000000E+00 0.  1.
</event>
<event>
 8    1  0.1262344E-006  0.9118800E+02  0.7816164E-02  0.1184000E+00
        -11   -1    0    0    0    0  0.00000000000E+00  0.00000000000E+00  0.45593999997E+02  0.45594000000E+02  0.51100000000E-03 0. -1.
         11   -1    0    0    0    0 -0.00000000000E+00 -0.00000000000E+00 -0.45593999997E+02  0.45594000000E+02  0.51100000000E-03 0.  1.
         23    2    1    2    0    0 -0.35527136788E-14  0.17763568394E-14  0.00000000000E+00  0.91188000000E+02  0.91188000000E+02 0.  0.
    9900012    2    3    3    0    0 -0.15890471999E+02 -0.14946156779E+02  0.29662866109E+02  0.54367077570E+02  0.39999984936E+02 0.  0.
        -12    1    3    3    0    0  0.15890471999E+02  0.14946156779E+02 -0.29662866109E+02  0.36820922430E+02  0.00000000000E+00 0.  1.
         11    1    4    4    0    0  0.11707542750E+02 -0.41747093564E+01  0.13495965674E+02  0.18347638682E+02  0.51100000000E-03 0.  1.
        -11    1    4    4    0    0 -0.52094826410E+00  0.15077956944E+01  0.32160261778E+01  0.35899386606E+01  0.51100000000E-03 0. -1.
         12    1    4    4    0    0 -0.27077066486E+02 -0.12279243117E+02  0.12950874257E+02  0.32429500228E+02  0.00000000000E+00 0. -1.
</event>
<event>
 8    1  0.1262344E-006  0.9118800E+02  0.7816164E-02  0.1184000E+00
        -11   -1    0    0    0    0  0.00000000000E+00  0.00000000000E+00  0.45593999997E+02  0.45594000000E+02  0.51100000000E-03 0.  1.
         11   -1    0    0    0    0 -0.00000000000E+00 -0.00000000000E+00 -0.45593999997E+02  0.45594000000E+02  0.51100000000E-03 0. -1.
         23    2    1    2    0    0  0.44408920985E-15  0.00000000000E+00 -0.35527136788E-14  0.91188000000E+02  0.91188000000E+02 0.  0.
    9900012    2    3    3    0    0  0.29804061207E+01  0.20393413218E+02  0.30512398026E+02  0.54367074474E+02  0.39999977877E+02 0.  0.
         12    1    3    3    0    0 -0.29804061207E+01 -0.20393413218E+02 -0.30512398026E+02  0.36820925526E+02  0.00000000000E+00 0. -1.
         11    1    4    4    0    0 -0.10353758115E+02  0.19149962196E+02  0.13110325758E+02  0.25412634671E+02  0.51100000000E-03 0. -1.
        -11    1    4    4    0    0  0.81994065608E+01  0.91715376938E+01  0.14620470099E+02  0.19107734502E+02  0.51100000000E-03 0.  1.
         12    1    4    4    0    0  0.51347576748E+01 -0.79280866712E+01  0.27816021689E+01  0.98467053003E+01  0.00000000000E+00 0. -1.
</event>
<event>
 8    1  0.1262344E-006  0.9118800E+02  0.7816164E-02  0.1184000E+00
        -11   -1    0    0    0    0  0.00000000000E+00  0.00000000000E+00  0.45593999997E+02  0.45594000000E+02  0.51100000000E-03 0. -1.
         11   -1    0    0    0    0 -0.00000000000E+00 -0.00000000000E+00 -0.45593999997E+02  0.45594000000E+02  0.51100000000E-03 0.  1.
         23    2    1    2    0    0  0.35527136788E-14  0.71054273576E-14  0.35527136788E-14  0.91188000000E+02  0.91188000000E+02 0.  0.
    9900012    2    3    3    0    0  0.18361925288E+02  0.25476325844E+02  0.19224346898E+02  0.54367095714E+02  0.40000026300E+02 0.  0.
        -12    1    3    3    0    0 -0.18361925288E+02 -0.25476325844E+02 -0.19224346898E+02  0.36820904286E+02  0.00000000000E+00 0.  1.
         11    1    4    4    0    0 -0.31795401302E+01  0.33133670057E+01  0.10966787984E+02  0.11889420309E+02  0.51100000000E-03 0. -1.
        -11    1    4    4    0    0  0.16459570607E+02  0.54393960181E+00  0.11426553658E+02  0.20044437224E+02  0.51100000000E-03 0.  1.
        -12    1    4    4    0    0  0.50818948110E+01  0.21619019236E+02 -0.31689947433E+01  0.22433238181E+02  0.00000000000E+00 0.  1.
</event>
<event>
 8    1  0.1262344E-006  0.9118800E+02  0.7816164E-02  0.1184000E+00
        -11   -1    0    0    0    0  0.00000000000E+00  0.00000000000E+00  0.45593999997E+02  0.45594000000E+02  0.51100000000E-03 0. -1.
         11   -1    0    0    0    0 -0.00000000000E+00 -0.00000000000E+00 -0.45593999997E+02  0.45594000000E+02  0.51100000000E-03 0.  1.
         23    2    1    2    0    0  0.00000000000E+00  0.00000000000E+00  0.00000000000E+00  0.91188000000E+02  0.91188000000E+02 0.  0.
    9900012    2    3    3    0    0  0.12429332132E+02 -0.22700041184E+02  0.26191562656E+02  0.54367107542E+02  0.40000053264E+02 0.  0.
         12    1    3    3    0    0 -0.12429332132E+02  0.22700041184E+02 -0.26191562656E+02  0.36820892458E+02  0.00000000000E+00 0. -1.
         11    1    4    4    0    0 -0.55070798176E+01 -0.21225448759E+02  0.12894713144E+02  0.25438577603E+02  0.51100000000E-03 0. -1.
        -11    1    4    4    0    0  0.11155218629E+01 -0.11060995571E+01  0.11946672903E+02  0.12049516130E+02  0.51100000000E-03 0.  1.
        -12    1    4    4    0    0  0.16820890087E+02 -0.36849286820E+00  0.13501766096E+01  0.16879013809E+02  0.00000000000E+00 0.  1.
</event>
<event>
 8    1  0.1262344E-006  0.9118800E+02  0.7816164E-02  0.1184000E+00
        -11   -1    0    0    0    0  0.00000000000E+00  0.00000000000E+00  0.45593999997E+02  0.45594000000E+02  0.51100000000E-03 0.  1.
         11   -1    0    0    0    0 -0.00000000000E+00 -0.00000000000E+00 -0.45593999997E+02  0.45594000000E+02  0.51100000000E-03 0. -1.
         23    2    1    2    0    0  0.00000000000E+00  0.35527136788E-14  0.00000000000E+00  0.91188000000E+02  0.91188000000E+02 0.  0.
    9900012    2    3    3    0    0 -0.15124773547E+02 -0.26479159399E+02 -0.20636759095E+02  0.54367075470E+02  0.39999980148E+02 0.  0.
        -12    1    3    3    0    0  0.15124773547E+02  0.26479159399E+02  0.20636759095E+02  0.36820924530E+02  0.00000000000E+00 0.  1.
         11    1    4    4    0    0 -0.18386106128E+02 -0.22956071775E+02 -0.33997411962E+01  0.29607235101E+02  0.51100000000E-03 0. -1.
        -11    1    4    4    0    0 -0.11277633602E+01  0.97722404230E+00 -0.18320264138E+02  0.18380938370E+02  0.51100000000E-03 0.  1.
        -12    1    4    4    0    0  0.43890959415E+01 -0.45003116668E+01  0.10832462394E+01  0.63789019978E+01  0.00000000000E+00 0.  1.
</event>
<event>
 8    1  0.1262344E-006  0.9118800E+02  0.7816164E-02  0.1184000E+00
        -11   -1    0    0    0    0  0.00000000000E+00  0.00000000000E+00  0.45593999997E+02  0.45594000000E+02  0.51100000000E-03 0.  1.
         11   -1    0    0    0    0 -0.00000000000E+00 -0.00000000000E+00 -0.45593999997E+02  0.45594000000E+02  0.51100000000E-03 0. -1.
         23    2    1    2    0    0 -0.71054273576E-14  0.00000000000E+00  0.66613381478E-15  0.91188000000E+02  0.91188000000E+02 0.  0.
    9900012    2    3    3    0    0  0.32943773865E+02  0.16340558248E+02 -0.18639054320E+01  0.54367078993E+02  0.39999988180E+02 0.  0.
         12    1    3    3    0    0 -0.32943773865E+02 -0.16340558248E+02  0.18639054320E+01  0.36820921007E+02  0.00000000000E+00 0. -1.
         11    1    4    4    0    0  0.18180171101E+01  0.47603391733E+00 -0.11132311755E+02  0.11289825497E+02  0.51100000000E-03 0. -1.
        -11    1    4    4    0    0  0.16572941345E+02  0.19061105211E+02 -0.49554909809E+00  0.25263287313E+02  0.51100000000E-03 0.  1.
        -12    1    4    4    0    0  0.14552815410E+02 -0.31965808798E+01  0.97639554206E+01  0.17813966182E+02  0.00000000000E+00 0.  1.
</event>
<event>
 8    1  0.1262344E-006  0.9118800E+02  0.7816164E-02  0.1184000E+00
        -11   -1    0    0    0    0  0.00000000000E+00  0.00000000000E+00  0.45593999997E+02  0.45594000000E+02  0.51100000000E-03 0. -1.
         11   -1    0    0    0    0 -0.00000000000E+00 -0.00000000000E+00 -0.45593999997E+02  0.45594000000E+02  0.51100000000E-03 0.  1.
         23    2    1    2    0    0  0.22204460493E-15  0.00000000000E+00  0.00000000000E+00  0.91188000000E+02  0.91188000000E+02 0.  0.
    9900012    2    3    3    0    0 -0.17258501928E+01  0.84269681998E+01  0.35802056279E+02  0.54367087658E+02  0.40000007934E+02 0.  0.
        -12    1    3    3    0    0  0.17258501928E+01 -0.84269681998E+01 -0.35802056279E+02  0.36820912342E+02  0.00000000000E+00 0.  1.
         11    1    4    4    0    0 -0.96342356107E+01  0.27258054387E+00  0.18981083851E+02  0.21287891872E+02  0.51100000000E-03 0. -1.
        -11    1    4    4    0    0  0.11921679004E+02  0.58012538445E+01  0.22267823842E+02  0.25915959472E+02  0.51100000000E-03 0.  1.
         12    1    4    4    0    0 -0.40132935863E+01  0.23531338114E+01 -0.54468514146E+01  0.71632363131E+01  0.00000000000E+00 0. -1.
</event>
<event>
 8    1  0.1262344E-006  0.9118800E+02  0.7816164E-02  0.1184000E+00
        -11   -1    0    0    0    0  0.00000000000E+00  0.00000000000E+00  0.45593999997E+02  0.45594000000E+02  0.51100000000E-03 0.  1.
         11   -1    0    0    0    0 -0.00000000000E+00 -0.00000000000E+00 -0.45593999997E+02  0.45594000000E+02  0.51100000000E-03 0. -1.
         23    2    1    2    0    0  0.88817841970E-15  0.17763568394E-14  0.00000000000E+00  0.91188000000E+02  0.91188000000E+02 0.  0.
    9900012    2    3    3    0    0 -0.78403189111E+00  0.99103029380E+01  0.35453501637E+02  0.54367087618E+02  0.40000007843E+02 0.  0.
         12    1    3    3    0    0  0.78403189111E+00 -0.99103029380E+01 -0.35453501637E+02  0.36820912382E+02  0.00000000000E+00 0. -1.
         11    1    4    4    0    0 -0.83052659048E+01  0.70841601696E+01  0.97447233119E+01  0.14632921777E+02  0.51100000000E-03 0. -1.
        -11    1    4    4    0    0  0.78291423518E+01 -0.92663922062E+01  0.24794685359E+02  0.27603222942E+02  0.51100000000E-03 0.  1.
        -12    1    4    4    0    0 -0.30790833809E+00  0.12092534975E+02  0.91409296614E+00  0.12130942899E+02  0.00000000000E+00 0.  1.
</event>
<event>
 8    1  0.1262344E-006  0.9118800E+02  0.7816164E-02  0.1184000E+00
        -11   -1    0    0    0    0  0.00000000000E+00  0.00000000000E+00  0.45593999997E+02  0.45594000000E+02  0.51100000000E-03 0. -1.
         11   -1    0    0    0    0 -0.00000000000E+00 -0.00000000000E+00 -0.45593999997E+02  0.45594000000E+02  0.51100000000E-03 0.  1.
         23    2    1    2    0    0  0.00000000000E+00 -0.18041124150E-15  0.11102230246E-14  0.91188000000E+02  0.91188000000E+02 0.  0.
    9900012    2    3    3    0    0 -0.36799141901E+02  0.10223704202E+00  0.12618839824E+01  0.54367086809E+02  0.40000005999E+02 0.  0.
        -12    1    3    3    0    0  0.36799141901E+02 -0.10223704202E+00 -0.12618839824E+01  0.36820913191E+02  0.00000000000E+00 0.  1.
         11    1    4    4    0    0  0.23423372641E+01  0.79363048641E+01  0.29451702442E+01  0.87832514926E+01  0.51100000000E-03 0. -1.
        -11    1    4    4    0    0 -0.29177989168E+01 -0.17096016309E+01 -0.76505020111E+01  0.83645961970E+01  0.51100000000E-03 0.  1.
        -12    1    4    4    0    0 -0.36223680248E+02 -0.61244661911E+01  0.59672157494E+01  0.37219239119E+02  0.00000000000E+00 0.  1.
</event>
<event>
 8    1  0.1262344E-006  0.9118800E+02  0.7816164E-02  0.1184000E+00
        -11   -1    0    0    0    0  0.00000000000E+00  0.00000000000E+00  0.45593999997E+02  0.45594000000E+02  0.51100000000E-03 0. -1.
         11   -1    0    0    0    0 -0.00000000000E+00 -0.00000000000E+00 -0.45593999997E+02  0.45594000000E+02  0.51100000000E-03 0.  1.
         23    2    1    2    0    0  0.00000000000E+00  0.00000000000E+00  0.35527136788E-14  0.91188000000E+02  0.91188000000E+02 0.  0.
    9900012    2    3    3    0    0  0.30121551107E+02  0.11748534845E+02  0.17619426745E+02  0.54367080526E+02  0.39999991675E+02 0.  0.
        -12    1    3    3    0    0 -0.30121551107E+02 -0.11748534845E+02 -0.17619426745E+02  0.36820919474E+02  0.00000000000E+00 0.  1.
         11    1    4    4    0    0  0.23668749493E+02 -0.67843805154E-01  0.10953655127E+02  0.26080584086E+02  0.51100000000E-03 0. -1.
        -11    1    4    4    0    0  0.10139588290E+00 -0.58543038740E+01 -0.36126216062E+01  0.68799847460E+01  0.51100000000E-03 0.  1.
         12    1    4    4    0    0  0.63514057310E+01  0.17670682524E+02  0.10278393224E+02  0.21406511694E+02  0.00000000000E+00 0. -1.
</event>
<event>
 8    1  0.1262344E-006  0.9118800E+02  0.7816164E-02  0.1184000E+00
        -11   -1    0    0    0    0  0.00000000000E+00  0.00000000000E+00  0.45593999997E+02  0.45594000000E+02  0.51100000000E-03 0.  1.
         11   -1    0    0    0    0 -0.00000000000E+00 -0.00000000000E+00 -0.45593999997E+02  0.45594000000E+02  0.51100000000E-03 0. -1.
         23    2    1    2    0    0 -0.17763568394E-14  0.00000000000E+00 -0.44408920985E-15  0.91188000000E+02  0.91188000000E+02 0.  0.
    9900012    2    3    3    0    0 -0.13882444594E+02 -0.33989510787E+02  0.27876334316E+01  0.54367081875E+02  0.39999994750E+02 0.  0.
        -12    1    3    3    0    0  0.13882444594E+02  0.33989510787E+02 -0.27876334316E+01  0.36820918125E+02  0.00000000000E+00 0.  1.
         11    1    4    4    0    0 -0.54818163207E+01 -0.23969952108E+02 -0.87388758804E+01  0.26095533452E+02  0.51100000000E-03 0. -1.
        -11    1    4    4    0    0  0.38028581800E+00 -0.14243688919E+02  0.15612540608E+01  0.14334043597E+02  0.51100000000E-03 0.  1.
        -12    1    4    4    0    0 -0.87809140911E+01  0.42241302399E+01  0.99652552512E+01  0.13937504826E+02  0.00000000000E+00 0.  1.
</event>
<event>
 8    1  0.1262344E-006  0.9118800E+02  0.7816164E-02  0.1184000E+00
        -11   -1    0    0    0    0  0.00000000000E+00  0.00000000000E+00  0.45593999997E+02  0.45594000000E+02  0.51100000000E-03 0.  1.
         11   -1    0    0    0    0 -0.00000000000E+00 -0.00000000000E+00 -0.45593999997E+02  0.45594000000E+02  0.51100000000E-03 0. -1.
         23    2    1    2    0    0 -0.17763568394E-14  0.44408920985E-15  0.00000000000E+00  0.91188000000E+02  0.91188000000E+02 0.  0.
    9900012    2    3    3    0    0 -0.42738438441E+01 -0.56434325882E+00 -0.36567688482E+02  0.54367081143E+02  0.39999993082E+02 0.  0.
        -12    1    3    3    0    0  0.42738438441E+01  0.56434325882E+00  0.36567688482E+02  0.36820918857E+02  0.00000000000E+00 0.  1.
         11    1    4    4    0    0 -0.55900319273E+00 -0.55726438922E+01 -0.19016145422E+02  0.19823739090E+02  0.51100000000E-03 0.  1.
        -11    1    4    4    0    0 -0.14239517475E+02  0.10072560532E+02 -0.69696138186E+01  0.18782860556E+02  0.51100000000E-03 0. -1.
        -12    1    4    4    0    0  0.10524676824E+02 -0.50642598991E+01 -0.10581929242E+02  0.15760481498E+02  0.00000000000E+00 0.  1.
</event>
<event>
 8    1  0.1262344E-006  0.9118800E+02  0.7816164E-02  0.1184000E+00
        -11   -1    0    0    0    0  0.00000000000E+00  0.00000000000E+00  0.45593999997E+02  0.45594000000E+02  0.51100000000E-03 0.  1.
         11   -1    0    0    0    0 -0.00000000000E+00 -0.00000000000E+00 -0.45593999997E+02  0.45594000000E+02  0.51100000000E-03 0. -1.
         23    2    1    2    0    0  0.00000000000E+00  0.17763568394E-14  0.00000000000E+00  0.91188000000E+02  0.91188000000E+02 0.  0.
    9900012    2    3    3    0    0  0.19584326120E+02  0.14107906525E+02 -0.27806517547E+02  0.54367064730E+02  0.39999955665E+02 0.  0.
        -12    1    3    3    0    0 -0.19584326120E+02 -0.14107906525E+02  0.27806517547E+02  0.36820935270E+02  0.00000000000E+00 0.  1.
         11    1    4    4    0    0  0.23085259000E+02 -0.62752917989E+00 -0.69830426937E+01  0.24126455635E+02  0.51100000000E-03 0. -1.
        -11    1    4    4    0    0  0.34884004892E+01  0.11598875384E+02 -0.18719217857E+02  0.22296007840E+02  0.51100000000E-03 0.  1.
         12    1    4    4    0    0 -0.69893333698E+01  0.31365603206E+01 -0.21042569961E+01  0.79446012552E+01  0.00000000000E+00 0. -1.
</event>
<event>
 8    1  0.1262344E-006  0.9118800E+02  0.7816164E-02  0.1184000E+00
        -11   -1    0    0    0    0  0.00000000000E+00  0.00000000000E+00  0.45593999997E+02  0.45594000000E+02  0.51100000000E-03 0.  1.
         11   -1    0    0    0    0 -0.00000000000E+00 -0.00000000000E+00 -0.45593999997E+02  0.45594000000E+02  0.51100000000E-03 0. -1.
         23    2    1    2    0    0  0.17763568394E-14 -0.88817841970E-15  0.00000000000E+00  0.91188000000E+02  0.91188000000E+02 0.  0.
    9900012    2    3    3    0    0 -0.41203213949E+00  0.68226041147E+01 -0.36180971620E+02  0.54367076535E+02  0.39999982578E+02 0.  0.
        -12    1    3    3    0    0  0.41203213949E+00 -0.68226041147E+01  0.36180971620E+02  0.36820923465E+02  0.00000000000E+00 0.  1.
         11    1    4    4    0    0  0.10991680071E+02 -0.13330110295E+01 -0.24775158012E+02  0.27136735323E+02  0.51100000000E-03 0. -1.
        -11    1    4    4    0    0 -0.27118092577E+01  0.10774770356E+02  0.17486684497E+01  0.11247552058E+02  0.51100000000E-03 0.  1.
         12    1    4    4    0    0 -0.86919029527E+01 -0.26191552120E+01 -0.13154482058E+02  0.15982789155E+02  0.00000000000E+00 0. -1.
</event>
<event>
 8    1  0.1262344E-006  0.9118800E+02  0.7816164E-02  0.1184000E+00
        -11   -1    0    0    0    0  0.00000000000E+00  0.00000000000E+00  0.45593999997E+02  0.45594000000E+02  0.51100000000E-03 0.  1.
         11   -1    0    0    0    0 -0.00000000000E+00 -0.00000000000E+00 -0.45593999997E+02  0.45594000000E+02  0.51100000000E-03 0. -1.
         23    2    1    2    0    0  0.35527136788E-14  0.00000000000E+00  0.00000000000E+00  0.91188000000E+02  0.91188000000E+02 0.  0.
    9900012    2    3    3    0    0 -0.22621954529E+02 -0.23109598783E+02  0.17605875972E+02  0.54367173674E+02  0.40000204023E+02 0.  0.
         12    1    3    3    0    0  0.22621954529E+02  0.23109598783E+02 -0.17605875972E+02  0.36820826326E+02  0.00000000000E+00 0. -1.
         11    1    4    4    0    0 -0.32358520277E+01 -0.49670003920E+01 -0.25859520038E+01  0.64675327031E+01  0.51100000000E-03 0.  1.
        -11    1    4    4    0    0 -0.56236052290E+00 -0.11235354808E+02 -0.76390949259E+01  0.13597985828E+02  0.51100000000E-03 0. -1.
         12    1    4    4    0    0 -0.18823741978E+02 -0.69072435827E+01  0.27830922901E+02  0.34301655143E+02  0.00000000000E+00 0. -1.
</event>
<event>
 8    1  0.1262344E-006  0.9118800E+02  0.7816164E-02  0.1184000E+00
        -11   -1    0    0    0    0  0.00000000000E+00  0.00000000000E+00  0.45593999997E+02  0.45594000000E+02  0.51100000000E-03 0. -1.
         11   -1    0    0    0    0 -0.00000000000E+00 -0.00000000000E+00 -0.45593999997E+02  0.45594000000E+02  0.51100000000E-03 0.  1.
         23    2    1    2    0    0 -0.11102230246E-15  0.17763568394E-14  0.00000000000E+00  0.91188000000E+02  0.91188000000E+02 0.  0.
    9900012    2    3    3    0    0  0.91717032781E+00  0.10972693729E+02 -0.35135990644E+02  0.54367094965E+02  0.40000024592E+02 0.  0.
         12    1    3    3    0    0 -0.91717032781E+00 -0.10972693729E+02  0.35135990644E+02  0.36820905035E+02  0.00000000000E+00 0. -1.
         11    1    4    4    0    0 -0.76601093745E+01  0.63335731363E+01  0.32608620653E+00  0.99447351286E+01  0.51100000000E-03 0. -1.
        -11    1    4    4    0    0 -0.56878128345E+01  0.58840597004E+01 -0.26175802958E+01  0.85921534125E+01  0.51100000000E-03 0.  1.
         12    1    4    4    0    0  0.14265092537E+02 -0.12449391079E+01 -0.32844496554E+02  0.35830206424E+02  0.00000000000E+00 0. -1.
</event>
<event>
 8    1  0.1262344E-006  0.9118800E+02  0.7816164E-02  0.1184000E+00
        -11   -1    0    0    0    0  0.00000000000E+00  0.00000000000E+00  0.45593999997E+02  0.45594000000E+02  0.51100000000E-03 0.  1.
         11   -1    0    0    0    0 -0.00000000000E+00 -0.00000000000E+00 -0.45593999997E+02  0.45594000000E+02  0.51100000000E-03 0. -1.
         23    2    1    2    0    0  0.00000000000E+00 -0.17763568394E-14  0.35527136788E-14  0.91188000000E+02  0.91188000000E+02 0.  0.
    9900012    2    3    3    0    0  0.18261362042E+02 -0.82220445272E+01 -0.30898219437E+02  0.54367091209E+02  0.40000016028E+02 0.  0.
        -12    1    3    3    0    0 -0.18261362042E+02  0.82220445272E+01  0.30898219437E+02  0.36820908791E+02  0.00000000000E+00 0.  1.
         11    1    4    4    0    0  0.14023056019E+01 -0.33271693139E+01 -0.65945378408E+01  0.75182741530E+01  0.51100000000E-03 0. -1.
        -11    1    4    4    0    0 -0.69317753458E+01  0.80786863956E+01 -0.30171434313E+00  0.10649211949E+02  0.51100000000E-03 0.  1.
        -12    1    4    4    0    0  0.23790831786E+02 -0.12973561609E+02 -0.24001967253E+02  0.36199605107E+02  0.00000000000E+00 0.  1.
</event>
<event>
 8    1  0.1262344E-006  0.9118800E+02  0.7816164E-02  0.1184000E+00
        -11   -1    0    0    0    0  0.00000000000E+00  0.00000000000E+00  0.45593999997E+02  0.45594000000E+02  0.51100000000E-03 0.  1.
         11   -1    0    0    0    0 -0.00000000000E+00 -0.00000000000E+00 -0.45593999997E+02  0.45594000000E+02  0.51100000000E-03 0. -1.
         23    2    1    2    0    0  0.00000000000E+00  0.00000000000E+00 -0.17763568394E-14  0.91188000000E+02  0.91188000000E+02 0.  0.
    9900012    2    3    3    0    0  0.15313489083E+02  0.29928372012E+02 -0.15018989110E+02  0.54367076151E+02  0.39999981702E+02 0.  0.
        -12    1    3    3    0    0 -0.15313489083E+02 -0.29928372012E+02  0.15018989110E+02  0.36820923849E+02  0.00000000000E+00 0.  1.
         11    1    4    4    0    0  0.13579022358E+02  0.54050488797E+01 -0.20094542903E+02  0.24847435609E+02  0.51100000000E-03 0. -1.
        -11    1    4    4    0    0  0.59854837520E+01  0.16650473096E+02  0.88802609375E+01  0.19797052928E+02  0.51100000000E-03 0.  1.
         12    1    4    4    0    0 -0.42510170271E+01  0.78728500367E+01 -0.38047071438E+01  0.97225876142E+01  0.00000000000E+00 0. -1.
</event>
<event>
 8    1  0.1262344E-006  0.9118800E+02  0.7816164E-02  0.1184000E+00
        -11   -1    0    0    0    0  0.00000000000E+00  0.00000000000E+00  0.45593999997E+02  0.45594000000E+02  0.51100000000E-03 0. -1.
         11   -1    0    0    0    0 -0.00000000000E+00 -0.00000000000E+00 -0.45593999997E+02  0.45594000000E+02  0.51100000000E-03 0.  1.
         23    2    1    2    0    0  0.00000000000E+00  0.00000000000E+00  0.35527136788E-14  0.91188000000E+02  0.91188000000E+02 0.  0.
    9900012    2    3    3    0    0  0.20598327643E+02 -0.25582162389E+02  0.16644587664E+02  0.54367076157E+02  0.39999981714E+02 0.  0.
        -12    1    3    3    0    0 -0.20598327643E+02  0.25582162389E+02 -0.16644587664E+02  0.36820923843E+02  0.00000000000E+00 0.  1.
         11    1    4    4    0    0  0.98251000494E+00 -0.24866658903E+02  0.16700756307E+02  0.29970507376E+02  0.51100000000E-03 0. -1.
        -11    1    4    4    0    0  0.20346962331E+02  0.29109192156E+01  0.90602847622E+00  0.20574090858E+02  0.51100000000E-03 0.  1.
        -12    1    4    4    0    0 -0.73114469280E+00 -0.36264227019E+01 -0.96219711903E+00  0.38224779228E+01  0.00000000000E+00 0.  1.
</event>
<event>
 8    1  0.1262344E-006  0.9118800E+02  0.7816164E-02  0.1184000E+00
        -11   -1    0    0    0    0  0.00000000000E+00  0.00000000000E+00  0.45593999997E+02  0.45594000000E+02  0.51100000000E-03 0.  1.
         11   -1    0    0    0    0 -0.00000000000E+00 -0.00000000000E+00 -0.45593999997E+02  0.45594000000E+02  0.51100000000E-03 0. -1.
         23    2    1    2    0    0  0.00000000000E+00  0.17763568394E-14  0.35527136788E-14  0.91188000000E+02  0.91188000000E+02 0.  0.
    9900012    2    3    3    0    0 -0.14405236943E+02  0.11437443240E+02  0.31897552389E+02  0.54367084644E+02  0.40000001062E+02 0.  0.
         12    1    3    3    0    0  0.14405236943E+02 -0.11437443240E+02 -0.31897552389E+02  0.36820915356E+02  0.00000000000E+00 0. -1.
         11    1    4    4    0    0  0.37111683627E+01 -0.40842619042E+01 -0.38614414301E+01  0.67353319218E+01  0.51100000000E-03 0. -1.
        -11    1    4    4    0    0 -0.20639470669E+02  0.64703700867E+01  0.28387094207E+02  0.35688661454E+02  0.51100000000E-03 0.  1.
         12    1    4    4    0    0  0.25230653632E+01  0.90513350578E+01  0.73718996120E+01  0.11943091268E+02  0.00000000000E+00 0. -1.
</event>
<event>
 8    1  0.1262344E-006  0.9118800E+02  0.7816164E-02  0.1184000E+00
        -11   -1    0    0    0    0  0.00000000000E+00  0.00000000000E+00  0.45593999997E+02  0.45594000000E+02  0.51100000000E-03 0.  1.
         11   -1    0    0    0    0 -0.00000000000E+00 -0.00000000000E+00 -0.45593999997E+02  0.45594000000E+02  0.51100000000E-03 0. -1.
         23    2    1    2    0    0  0.00000000000E+00 -0.35527136788E-14  0.00000000000E+00  0.91188000000E+02  0.91188000000E+02 0.  0.
    9900012    2    3    3    0    0  0.12697291324E+02 -0.26725720185E+02 -0.21915612354E+02  0.54367090299E+02  0.40000013954E+02 0.  0.
        -12    1    3    3    0    0 -0.12697291324E+02  0.26725720185E+02  0.21915612354E+02  0.36820909701E+02  0.00000000000E+00 0.  1.
         11    1    4    4    0    0  0.67760175866E+01  0.80763674896E+01 -0.95524207604E+01  0.14226414475E+02  0.51100000000E-03 0. -1.
        -11    1    4    4    0    0  0.87622143924E+01 -0.11243695514E+02 -0.26417463253E+01  0.14497445078E+02  0.51100000000E-03 0.  1.
        -12    1    4    4    0    0 -0.28409406550E+01 -0.23558392161E+02 -0.97214452680E+01  0.25643230746E+02  0.00000000000E+00 0.  1.
</event>
<event>
 8    1  0.1262344E-006  0.9118800E+02  0.7816164E-02  0.1184000E+00
        -11   -1    0    0    0    0  0.00000000000E+00  0.00000000000E+00  0.45593999997E+02  0.45594000000E+02  0.51100000000E-03 0. -1.
         11   -1    0    0    0    0 -0.00000000000E+00 -0.00000000000E+00 -0.45593999997E+02  0.45594000000E+02  0.51100000000E-03 0.  1.
         23    2    1    2    0    0 -0.88817841970E-15  0.00000000000E+00 -0.17763568394E-14  0.91188000000E+02  0.91188000000E+02 0.  0.
    9900012    2    3    3    0    0 -0.58363522262E+01  0.33562604622E+02  0.13973844760E+02  0.54367085105E+02  0.40000002114E+02 0.  0.
        -12    1    3    3    0    0  0.58363522262E+01 -0.33562604622E+02 -0.13973844760E+02  0.36820914895E+02  0.00000000000E+00 0.  1.
         11    1    4    4    0    0 -0.14083292095E+02  0.15952440904E+02  0.11874732906E+02  0.24368602112E+02  0.51100000000E-03 0. -1.
        -11    1    4    4    0    0  0.13528511964E+02  0.66336406977E+01  0.73131576200E+01  0.16748376026E+02  0.51100000000E-03 0.  1.
        -12    1    4    4    0    0 -0.52815720954E+01  0.10976523020E+02 -0.52140457661E+01  0.13250106968E+02  0.00000000000E+00 0.  1.
</event>
<event>
 8    1  0.1262344E-006  0.9118800E+02  0.7816164E-02  0.1184000E+00
        -11   -1    0    0    0    0  0.00000000000E+00  0.00000000000E+00  0.45593999997E+02  0.45594000000E+02  0.51100000000E-03 0.  1.
         11   -1    0    0    0    0 -0.00000000000E+00 -0.00000000000E+00 -0.45593999997E+02  0.45594000000E+02  0.51100000000E-03 0. -1.
         23    2    1    2    0    0  0.00000000000E+00  0.00000000000E+00  0.00000000000E+00  0.91188000000E+02  0.91188000000E+02 0.  0.
    9900012    2    3    3    0    0 -0.90338521850E+01  0.74538035669E+01  0.34908618566E+02  0.54367064065E+02  0.39999954150E+02 0.  0.
         12    1    3    3    0    0  0.90338521850E+01 -0.74538035669E+01 -0.34908618566E+02  0.36820935935E+02  0.00000000000E+00 0. -1.
         11    1    4    4    0    0 -0.51475266569E+01  0.35211167069E+01 -0.52916217046E+01  0.81790313652E+01  0.51100000000E-03 0. -1.
        -11    1    4    4    0    0  0.19524821080E+01  0.93564496625E+01  0.65010458499E+01  0.11559365643E+02  0.51100000000E-03 0.  1.
        -12    1    4    4    0    0 -0.58388076360E+01 -0.54237628026E+01  0.33699194421E+02  0.34628667057E+02  0.00000000000E+00 0.  1.
</event>
<event>
 8    1  0.1262344E-006  0.9118800E+02  0.7816164E-02  0.1184000E+00
        -11   -1    0    0    0    0  0.00000000000E+00  0.00000000000E+00  0.45593999997E+02  0.45594000000E+02  0.51100000000E-03 0.  1.
         11   -1    0    0    0    0 -0.00000000000E+00 -0.00000000000E+00 -0.45593999997E+02  0.45594000000E+02  0.51100000000E-03 0. -1.
         23    2    1    2    0    0 -0.17763568394E-14 -0.35527136788E-14  0.00000000000E+00  0.91188000000E+02  0.91188000000E+02 0.  0.
    9900012    2    3    3    0    0  0.15820660609E+02  0.28321714507E+02 -0.17417422458E+02  0.54367089911E+02  0.40000013069E+02 0.  0.
        -12    1    3    3    0    0 -0.15820660609E+02 -0.28321714507E+02  0.17417422458E+02  0.36820910089E+02  0.00000000000E+00 0.  1.
         11    1    4    4    0    0 -0.39779766869E+00  0.16570706708E+02 -0.50298123465E+01  0.17321823700E+02  0.51100000000E-03 0. -1.
        -11    1    4    4    0    0 -0.96066745529E-01  0.18423925213E+01  0.85302098147E+01  0.87274348331E+01  0.51100000000E-03 0.  1.
         12    1    4    4    0    0  0.16314525023E+02  0.99086152776E+01 -0.20917819927E+02  0.28317831378E+02  0.00000000000E+00 0. -1.
</event>
<event>
 8    1  0.1262344E-006  0.9118800E+02  0.7816164E-02  0.1184000E+00
        -11   -1    0    0    0    0  0.00000000000E+00  0.00000000000E+00  0.45593999997E+02  0.45594000000E+02  0.51100000000E-03 0. -1.
         11   -1    0    0    0    0 -0.00000000000E+00 -0.00000000000E+00 -0.45593999997E+02  0.45594000000E+02  0.51100000000E-03 0.  1.
         23    2    1    2    0    0  0.00000000000E+00  0.00000000000E+00  0.00000000000E+00  0.91188000000E+02  0.91188000000E+02 0.  0.
    9900012    2    3    3    0    0  0.35946567699E+01  0.35935389622E+02 -0.71767942443E+01  0.54367079856E+02  0.39999990149E+02 0.  0.
         12    1    3    3    0    0 -0.35946567699E+01 -0.35935389622E+02  0.71767942443E+01  0.36820920144E+02  0.00000000000E+00 0. -1.
         11    1    4    4    0    0 -0.97211500984E+01  0.68742042624E+01 -0.70080307805E+01  0.13815496341E+02  0.51100000000E-03 0. -1.
        -11    1    4    4    0    0  0.21386424648E+01  0.26603830775E+02 -0.65043483427E+01  0.27470787231E+02  0.51100000000E-03 0.  1.
        -12    1    4    4    0    0  0.11177164403E+02  0.24573545850E+01  0.63355848788E+01  0.13080796284E+02  0.00000000000E+00 0.  1.
</event>
<event>
 8    1  0.1262344E-006  0.9118800E+02  0.7816164E-02  0.1184000E+00
        -11   -1    0    0    0    0  0.00000000000E+00  0.00000000000E+00  0.45593999997E+02  0.45594000000E+02  0.51100000000E-03 0.  1.
         11   -1    0    0    0    0 -0.00000000000E+00 -0.00000000000E+00 -0.45593999997E+02  0.45594000000E+02  0.51100000000E-03 0. -1.
         23    2    1    2    0    0  0.13322676296E-14  0.00000000000E+00  0.00000000000E+00  0.91188000000E+02  0.91188000000E+02 0.  0.
    9900012    2    3    3    0    0  0.22662860239E+01 -0.29775253624E+02 -0.21542475535E+02  0.54367081586E+02  0.39999994091E+02 0.  0.
         12    1    3    3    0    0 -0.22662860239E+01  0.29775253624E+02  0.21542475535E+02  0.36820918414E+02  0.00000000000E+00 0. -1.
         11    1    4    4    0    0  0.12367059905E+00 -0.75538119308E+01 -0.17768351226E+02  0.19307762031E+02  0.51100000000E-03 0. -1.
        -11    1    4    4    0    0  0.94139331535E+01 -0.24108872844E+02 -0.71087853528E+01  0.26840169834E+02  0.51100000000E-03 0.  1.
        -12    1    4    4    0    0 -0.72713177286E+01  0.18874311514E+01  0.33346610441E+01  0.82191497213E+01  0.00000000000E+00 0.  1.
</event>
<event>
 8    1  0.1262344E-006  0.9118800E+02  0.7816164E-02  0.1184000E+00
        -11   -1    0    0    0    0  0.00000000000E+00  0.00000000000E+00  0.45593999997E+02  0.45594000000E+02  0.51100000000E-03 0.  1.
         11   -1    0    0    0    0 -0.00000000000E+00 -0.00000000000E+00 -0.45593999997E+02  0.45594000000E+02  0.51100000000E-03 0. -1.
         23    2    1    2    0    0  0.00000000000E+00  0.00000000000E+00 -0.17763568394E-14  0.91188000000E+02  0.91188000000E+02 0.  0.
    9900012    2    3    3    0    0 -0.33521842347E+02 -0.10440426905E+02  0.11093433737E+02  0.54367072522E+02  0.39999973428E+02 0.  0.
         12    1    3    3    0    0  0.33521842347E+02  0.10440426905E+02 -0.11093433737E+02  0.36820927478E+02  0.00000000000E+00 0. -1.
         11    1    4    4    0    0 -0.29177145317E+02 -0.37389770007E+01  0.12746986897E+02  0.32058874482E+02  0.51100000000E-03 0. -1.
        -11    1    4    4    0    0 -0.80027539054E+01 -0.33990745380E+01 -0.96034554769E+01  0.12954695486E+02  0.51100000000E-03 0.  1.
        -12    1    4    4    0    0  0.36580568759E+01 -0.33023753665E+01  0.79499023169E+01  0.93535025534E+01  0.00000000000E+00 0.  1.
</event>
<event>
 8    1  0.1262344E-006  0.9118800E+02  0.7816164E-02  0.1184000E+00
        -11   -1    0    0    0    0  0.00000000000E+00  0.00000000000E+00  0.45593999997E+02  0.45594000000E+02  0.51100000000E-03 0.  1.
         11   -1    0    0    0    0 -0.00000000000E+00 -0.00000000000E+00 -0.45593999997E+02  0.45594000000E+02  0.51100000000E-03 0. -1.
         23    2    1    2    0    0  0.00000000000E+00  0.00000000000E+00  0.35527136788E-14  0.91188000000E+02  0.91188000000E+02 0.  0.
    9900012    2    3    3    0    0  0.18491712524E+02 -0.27452121646E+02 -0.16130763599E+02  0.54367299990E+02  0.40000491984E+02 0.  0.
        -12    1    3    3    0    0 -0.18491712524E+02  0.27452121646E+02  0.16130763599E+02  0.36820700010E+02  0.00000000000E+00 0.  1.
         11    1    4    4    0    0  0.11866636981E+02 -0.12163821137E+02 -0.21392201169E+01  0.17127518235E+02  0.51100000000E-03 0. -1.
        -11    1    4    4    0    0 -0.51930708899E+01  0.38556754152E+01  0.46959266581E+01  0.79928684222E+01  0.51100000000E-03 0.  1.
         12    1    4    4    0    0  0.11818146432E+02 -0.19143975924E+02 -0.18687470141E+02  0.29246913333E+02  0.00000000000E+00 0. -1.
</event>
<event>
 8    1  0.1262344E-006  0.9118800E+02  0.7816164E-02  0.1184000E+00
        -11   -1    0    0    0    0  0.00000000000E+00  0.00000000000E+00  0.45593999997E+02  0.45594000000E+02  0.51100000000E-03 0.  1.
         11   -1    0    0    0    0 -0.00000000000E+00 -0.00000000000E+00 -0.45593999997E+02  0.45594000000E+02  0.51100000000E-03 0. -1.
         23    2    1    2    0    0  0.35527136788E-14 -0.44408920985E-15 -0.35527136788E-14  0.91188000000E+02  0.91188000000E+02 0.  0.
    9900012    2    3    3    0    0 -0.30960515924E+02 -0.23067339131E+01 -0.19796607286E+02  0.54367078941E+02  0.39999988061E+02 0.  0.
        -12    1    3    3    0    0  0.30960515924E+02  0.23067339131E+01  0.19796607286E+02  0.36820921059E+02  0.00000000000E+00 0.  1.
         11    1    4    4    0    0 -0.13136692895E+02  0.19901201194E+00 -0.41897514394E+01  0.13790080615E+02  0.51100000000E-03 0. -1.
        -11    1    4    4    0    0 -0.19562852237E+02 -0.31658605620E+01  0.45512391051E+01  0.20333264332E+02  0.51100000000E-03 0.  1.
        -12    1    4    4    0    0  0.17390292074E+01  0.66011463700E+00 -0.20158094952E+02  0.20243733993E+02  0.00000000000E+00 0.  1.
</event>
<event>
 8    1  0.1262344E-006  0.9118800E+02  0.7816164E-02  0.1184000E+00
        -11   -1    0    0    0    0  0.00000000000E+00  0.00000000000E+00  0.45593999997E+02  0.45594000000E+02  0.51100000000E-03 0. -1.
         11   -1    0    0    0    0 -0.00000000000E+00 -0.00000000000E+00 -0.45593999997E+02  0.45594000000E+02  0.51100000000E-03 0.  1.
         23    2    1    2    0    0  0.00000000000E+00  0.44408920985E-15  0.00000000000E+00  0.91188000000E+02  0.91188000000E+02 0.  0.
    9900012    2    3    3    0    0 -0.35788428424E+02 -0.26125294253E+01 -0.82548991222E+01  0.54367078250E+02  0.39999986486E+02 0.  0.
         12    1    3    3    0    0  0.35788428424E+02  0.26125294253E+01  0.82548991222E+01  0.36820921750E+02  0.00000000000E+00 0. -1.
         11    1    4    4    0    0 -0.19035857403E+02 -0.74792312701E+01 -0.28177531061E+01  0.20645641194E+02  0.51100000000E-03 0. -1.
        -11    1    4    4    0    0 -0.93634681210E+01 -0.11788796800E+02 -0.27303239851E+01  0.15300488050E+02  0.51100000000E-03 0.  1.
         12    1    4    4    0    0 -0.73891028991E+01  0.16655498645E+02 -0.27068220310E+01  0.18420949006E+02  0.00000000000E+00 0. -1.
</event>
<event>
 8    1  0.1262344E-006  0.9118800E+02  0.7816164E-02  0.1184000E+00
        -11   -1    0    0    0    0  0.00000000000E+00  0.00000000000E+00  0.45593999997E+02  0.45594000000E+02  0.51100000000E-03 0.  1.
         11   -1    0    0    0    0 -0.00000000000E+00 -0.00000000000E+00 -0.45593999997E+02  0.45594000000E+02  0.51100000000E-03 0. -1.
         23    2    1    2    0    0  0.17763568394E-14 -0.71054273576E-14  0.00000000000E+00  0.91188000000E+02  0.91188000000E+02 0.  0.
    9900012    2    3    3    0    0 -0.14362176722E+02  0.32228870446E+02  0.10526498396E+02  0.54367090467E+02  0.40000014337E+02 0.  0.
         12    1    3    3    0    0  0.14362176722E+02 -0.32228870446E+02 -0.10526498396E+02  0.36820909533E+02  0.00000000000E+00 0. -1.
         11    1    4    4    0    0 -0.14697115318E+01 -0.32568038230E+01  0.65669849976E+01  0.74761029519E+01  0.51100000000E-03 0. -1.
        -11    1    4    4    0    0 -0.95118008688E+01  0.11967575757E+01 -0.56409999571E+01  0.11123284822E+02  0.51100000000E-03 0.  1.
        -12    1    4    4    0    0 -0.33806643209E+01  0.34288916693E+02  0.96005133552E+01  0.35767702693E+02  0.00000000000E+00 0.  1.
</event>
<event>
 8    1  0.1262344E-006  0.9118800E+02  0.7816164E-02  0.1184000E+00
        -11   -1    0    0    0    0  0.00000000000E+00  0.00000000000E+00  0.45593999997E+02  0.45594000000E+02  0.51100000000E-03 0. -1.
         11   -1    0    0    0    0 -0.00000000000E+00 -0.00000000000E+00 -0.45593999997E+02  0.45594000000E+02  0.51100000000E-03 0.  1.
         23    2    1    2    0    0  0.35527136788E-14  0.00000000000E+00  0.88817841970E-15  0.91188000000E+02  0.91188000000E+02 0.  0.
    9900012    2    3    3    0    0 -0.25006675268E+02  0.26506896036E+02  0.52754417468E+01  0.54367087042E+02  0.40000006530E+02 0.  0.
        -12    1    3    3    0    0  0.25006675268E+02 -0.26506896036E+02 -0.52754417468E+01  0.36820912958E+02  0.00000000000E+00 0.  1.
         11    1    4    4    0    0 -0.23567665762E+02  0.12035120869E+02  0.27617782080E+01  0.26606510912E+02  0.51100000000E-03 0. -1.
        -11    1    4    4    0    0 -0.11572236962E+02  0.12426932331E+02 -0.51503685667E+00  0.16988542571E+02  0.51100000000E-03 0.  1.
        -12    1    4    4    0    0  0.10133227456E+02  0.20448428366E+01  0.30287003955E+01  0.10772033559E+02  0.00000000000E+00 0.  1.
</event>
<event>
 8    1  0.1262344E-006  0.9118800E+02  0.7816164E-02  0.1184000E+00
        -11   -1    0    0    0    0  0.00000000000E+00  0.00000000000E+00  0.45593999997E+02  0.45594000000E+02  0.51100000000E-03 0.  1.
         11   -1    0    0    0    0 -0.00000000000E+00 -0.00000000000E+00 -0.45593999997E+02  0.45594000000E+02  0.51100000000E-03 0. -1.
         23    2    1    2    0    0  0.00000000000E+00  0.00000000000E+00 -0.35527136788E-14  0.91188000000E+02  0.91188000000E+02 0.  0.
    9900012    2    3    3    0    0 -0.10213317151E+02  0.26339745734E+02 -0.23615377709E+02  0.54367080444E+02  0.39999991489E+02 0.  0.
        -12    1    3    3    0    0  0.10213317151E+02 -0.26339745734E+02  0.23615377709E+02  0.36820919556E+02  0.00000000000E+00 0.  1.
         11    1    4    4    0    0 -0.14883920588E+01 -0.55325986993E+01 -0.72018635045E+01  0.92028146502E+01  0.51100000000E-03 0. -1.
        -11    1    4    4    0    0  0.27868565224E+01  0.29715948526E+02 -0.85130653554E+01  0.31036695186E+02  0.51100000000E-03 0.  1.
        -12    1    4    4    0    0 -0.11511781615E+02  0.21563959075E+01 -0.79004488495E+01  0.14127570608E+02  0.00000000000E+00 0.  1.
</event>
<event>
 8    1  0.1262344E-006  0.9118800E+02  0.7816164E-02  0.1184000E+00
        -11   -1    0    0    0    0  0.00000000000E+00  0.00000000000E+00  0.45593999997E+02  0.45594000000E+02  0.51100000000E-03 0.  1.
         11   -1    0    0    0    0 -0.00000000000E+00 -0.00000000000E+00 -0.45593999997E+02  0.45594000000E+02  0.51100000000E-03 0. -1.
         23    2    1    2    0    0  0.88817841970E-15 -0.35527136788E-14  0.00000000000E+00  0.91188000000E+02  0.91188000000E+02 0.  0.
    9900012    2    3    3    0    0  0.26352321780E+01  0.30228312717E+02  0.20858680629E+02  0.54367083445E+02  0.39999998330E+02 0.  0.
         12    1    3    3    0    0 -0.26352321780E+01 -0.30228312717E+02 -0.20858680629E+02  0.36820916555E+02  0.00000000000E+00 0. -1.
         11    1    4    4    0    0 -0.20737397204E+01 -0.22404583575E+01  0.21843122028E+01  0.37538340587E+01  0.51100000000E-03 0. -1.
        -11    1    4    4    0    0 -0.74433436475E+01 -0.31219359431E+01  0.83503990500E+01  0.11613742431E+02  0.51100000000E-03 0.  1.
         12    1    4    4    0    0  0.12152315546E+02  0.35590707018E+02  0.10323969376E+02  0.38999506956E+02  0.00000000000E+00 0. -1.
</event>
<event>
 8    1  0.1262344E-006  0.9118800E+02  0.7816164E-02  0.1184000E+00
        -11   -1    0    0    0    0  0.00000000000E+00  0.00000000000E+00  0.45593999997E+02  0.45594000000E+02  0.51100000000E-03 0. -1.
         11   -1    0    0    0    0 -0.00000000000E+00 -0.00000000000E+00 -0.45593999997E+02  0.45594000000E+02  0.51100000000E-03 0.  1.
         23    2    1    2    0    0  0.00000000000E+00 -0.17763568394E-14  0.00000000000E+00  0.91188000000E+02  0.91188000000E+02 0.  0.
    9900012    2    3    3    0    0  0.23311373194E+02 -0.12149705518E+02  0.25782630393E+02  0.54367088898E+02  0.40000010761E+02 0.  0.
        -12    1    3    3    0    0 -0.23311373194E+02  0.12149705518E+02 -0.25782630393E+02  0.36820911102E+02  0.00000000000E+00 0.  1.
         11    1    4    4    0    0 -0.17396659117E+01 -0.22714233094E+01  0.12323257801E+02  0.12651027011E+02  0.51100000000E-03 0. -1.
        -11    1    4    4    0    0  0.73957852193E+01 -0.24453465905E+01  0.20008541807E+02  0.21471355440E+02  0.51100000000E-03 0.  1.
        -12    1    4    4    0    0  0.17655253887E+02 -0.74329356182E+01 -0.65491692145E+01  0.20244706447E+02  0.00000000000E+00 0.  1.
</event>
<event>
 8    1  0.1262344E-006  0.9118800E+02  0.7816164E-02  0.1184000E+00
        -11   -1    0    0    0    0  0.00000000000E+00  0.00000000000E+00  0.45593999997E+02  0.45594000000E+02  0.51100000000E-03 0.  1.
         11   -1    0    0    0    0 -0.00000000000E+00 -0.00000000000E+00 -0.45593999997E+02  0.45594000000E+02  0.51100000000E-03 0. -1.
         23    2    1    2    0    0  0.00000000000E+00  0.00000000000E+00  0.00000000000E+00  0.91188000000E+02  0.91188000000E+02 0.  0.
    9900012    2    3    3    0    0 -0.27979444649E+02 -0.17660296572E+02  0.16156903379E+02  0.54367069475E+02  0.39999966483E+02 0.  0.
         12    1    3    3    0    0  0.27979444649E+02  0.17660296572E+02 -0.16156903379E+02  0.36820930525E+02  0.00000000000E+00 0. -1.
         11    1    4    4    0    0 -0.36630236078E+01 -0.12630521650E+02  0.80830939607E+00  0.13175780183E+02  0.51100000000E-03 0. -1.
        -11    1    4    4    0    0 -0.21677164858E+02 -0.10579355050E+02  0.21633667400E+02  0.32401200518E+02  0.51100000000E-03 0.  1.
         12    1    4    4    0    0 -0.26392561841E+01  0.55495801282E+01 -0.62850734170E+01  0.87900887744E+01  0.00000000000E+00 0. -1.
</event>
<event>
 8    1  0.1262344E-006  0.9118800E+02  0.7816164E-02  0.1184000E+00
        -11   -1    0    0    0    0  0.00000000000E+00  0.00000000000E+00  0.45593999997E+02  0.45594000000E+02  0.51100000000E-03 0. -1.
         11   -1    0    0    0    0 -0.00000000000E+00 -0.00000000000E+00 -0.45593999997E+02  0.45594000000E+02  0.51100000000E-03 0.  1.
         23    2    1    2    0    0  0.17763568394E-14  0.17763568394E-14 -0.35527136788E-14  0.91188000000E+02  0.91188000000E+02 0.  0.
    9900012    2    3    3    0    0  0.14586081587E+02  0.13899508133E+02 -0.30819406645E+02  0.54367001530E+02  0.39999811588E+02 0.  0.
         12    1    3    3    0    0 -0.14586081587E+02 -0.13899508133E+02  0.30819406645E+02  0.36820998470E+02  0.00000000000E+00 0. -1.
         11    1    4    4    0    0  0.12855946341E+02  0.11288871376E+01  0.10619351390E+01  0.12949032744E+02  0.51100000000E-03 0. -1.
        -11    1    4    4    0    0 -0.22373301851E-01  0.16059653552E+02 -0.93556128358E+01  0.18586028746E+02  0.51100000000E-03 0.  1.
         12    1    4    4    0    0  0.17525085476E+01 -0.32890325564E+01 -0.22525728948E+02  0.22831940040E+02  0.00000000000E+00 0. -1.
</event>
<event>
 8    1  0.1262344E-006  0.9118800E+02  0.7816164E-02  0.1184000E+00
        -11   -1    0    0    0    0  0.00000000000E+00  0.00000000000E+00  0.45593999997E+02  0.45594000000E+02  0.51100000000E-03 0. -1.
         11   -1    0    0    0    0 -0.00000000000E+00 -0.00000000000E+00 -0.45593999997E+02  0.45594000000E+02  0.51100000000E-03 0.  1.
         23    2    1    2    0    0  0.22204460493E-14  0.00000000000E+00  0.00000000000E+00  0.91188000000E+02  0.91188000000E+02 0.  0.
    9900012    2    3    3    0    0 -0.31264918768E+01  0.24382034990E+02 -0.27413880103E+02  0.54367090125E+02  0.40000013559E+02 0.  0.
         12    1    3    3    0    0  0.31264918768E+01 -0.24382034990E+02  0.27413880103E+02  0.36820909875E+02  0.00000000000E+00 0. -1.
         11    1    4    4    0    0 -0.17844025985E+02  0.21018134810E+02 -0.19291542501E+02  0.33650183752E+02  0.51100000000E-03 0. -1.
        -11    1    4    4    0    0  0.10859919677E+02  0.71270308419E+01 -0.81368781275E+01  0.15327792076E+02  0.51100000000E-03 0.  1.
         12    1    4    4    0    0  0.38576144312E+01 -0.37631306619E+01  0.14540525050E-01  0.53891142969E+01  0.00000000000E+00 0. -1.
</event>
<event>
 8    1  0.1262344E-006  0.9118800E+02  0.7816164E-02  0.1184000E+00
        -11   -1    0    0    0    0  0.00000000000E+00  0.00000000000E+00  0.45593999997E+02  0.45594000000E+02  0.51100000000E-03 0.  1.
         11   -1    0    0    0    0 -0.00000000000E+00 -0.00000000000E+00 -0.45593999997E+02  0.45594000000E+02  0.51100000000E-03 0. -1.
         23    2    1    2    0    0  0.00000000000E+00  0.00000000000E+00  0.00000000000E+00  0.91188000000E+02  0.91188000000E+02 0.  0.
    9900012    2    3    3    0    0 -0.20995392075E+02  0.29223173529E+02 -0.78089355246E+01  0.54367084293E+02  0.40000000263E+02 0.  0.
         12    1    3    3    0    0  0.20995392075E+02 -0.29223173529E+02  0.78089355246E+01  0.36820915707E+02  0.00000000000E+00 0. -1.
         11    1    4    4    0    0 -0.22171552247E+01 -0.83664782017E+01 -0.57982680291E+01  0.10417948320E+02  0.51100000000E-03 0. -1.
        -11    1    4    4    0    0 -0.57350954598E+01  0.75747055761E+01  0.46090967206E+01  0.10559889078E+02  0.51100000000E-03 0.  1.
        -12    1    4    4    0    0 -0.13043141391E+02  0.30014946154E+02 -0.66197642160E+01  0.33389246896E+02  0.00000000000E+00 0.  1.
</event>
<event>
 8    1  0.1262344E-006  0.9118800E+02  0.7816164E-02  0.1184000E+00
        -11   -1    0    0    0    0  0.00000000000E+00  0.00000000000E+00  0.45593999997E+02  0.45594000000E+02  0.51100000000E-03 0. -1.
         11   -1    0    0    0    0 -0.00000000000E+00 -0.00000000000E+00 -0.45593999997E+02  0.45594000000E+02  0.51100000000E-03 0.  1.
         23    2    1    2    0    0 -0.13322676296E-14 -0.35527136788E-14  0.00000000000E+00  0.91188000000E+02  0.91188000000E+02 0.  0.
    9900012    2    3    3    0    0 -0.11186290859E+01 -0.28612599622E+02  0.23148369511E+02  0.54367092906E+02  0.40000019898E+02 0.  0.
        -12    1    3    3    0    0  0.11186290859E+01  0.28612599622E+02 -0.23148369511E+02  0.36820907094E+02  0.00000000000E+00 0.  1.
         11    1    4    4    0    0 -0.13969072023E+02 -0.20341470388E+02  0.16480142386E+02  0.29673312657E+02  0.51100000000E-03 0. -1.
        -11    1    4    4    0    0  0.12332196770E+02 -0.10644141505E+02  0.11049459609E+02  0.19684292810E+02  0.51100000000E-03 0.  1.
         12    1    4    4    0    0  0.51824616725E+00  0.23730122701E+01 -0.43812324835E+01  0.50094874387E+01  0.00000000000E+00 0. -1.
</event>
<event>
 8    1  0.1262344E-006  0.9118800E+02  0.7816164E-02  0.1184000E+00
        -11   -1    0    0    0    0  0.00000000000E+00  0.00000000000E+00  0.45593999997E+02  0.45594000000E+02  0.51100000000E-03 0.  1.
         11   -1    0    0    0    0 -0.00000000000E+00 -0.00000000000E+00 -0.45593999997E+02  0.45594000000E+02  0.51100000000E-03 0. -1.
         23    2    1    2    0    0 -0.44408920985E-15  0.00000000000E+00  0.71054273576E-14  0.91188000000E+02  0.91188000000E+02 0.  0.
    9900012    2    3    3    0    0  0.26418165912E+01 -0.13768565453E+02 -0.34047429196E+02  0.54367081701E+02  0.39999994354E+02 0.  0.
        -12    1    3    3    0    0 -0.26418165912E+01  0.13768565453E+02  0.34047429196E+02  0.36820918299E+02  0.00000000000E+00 0.  1.
         11    1    4    4    0    0 -0.46755504186E+01 -0.14191630555E+02 -0.22646459945E+02  0.27131629104E+02  0.51100000000E-03 0. -1.
        -11    1    4    4    0    0 -0.10020825329E+01 -0.10205234141E+02 -0.12149925981E+01  0.10326043800E+02  0.51100000000E-03 0.  1.
         12    1    4    4    0    0  0.83194495427E+01  0.10628299244E+02 -0.10185976652E+02  0.16909408797E+02  0.00000000000E+00 0. -1.
</event>
<event>
 8    1  0.1262344E-006  0.9118800E+02  0.7816164E-02  0.1184000E+00
        -11   -1    0    0    0    0  0.00000000000E+00  0.00000000000E+00  0.45593999997E+02  0.45594000000E+02  0.51100000000E-03 0. -1.
         11   -1    0    0    0    0 -0.00000000000E+00 -0.00000000000E+00 -0.45593999997E+02  0.45594000000E+02  0.51100000000E-03 0.  1.
         23    2    1    2    0    0 -0.17763568394E-14 -0.17763568394E-14 -0.35527136788E-14  0.91188000000E+02  0.91188000000E+02 0.  0.
    9900012    2    3    3    0    0 -0.13972177268E+02 -0.15071584162E+02 -0.30551668432E+02  0.54367097910E+02  0.40000031305E+02 0.  0.
         12    1    3    3    0    0  0.13972177268E+02  0.15071584162E+02  0.30551668432E+02  0.36820902090E+02  0.00000000000E+00 0. -1.
         11    1    4    4    0    0  0.10197515309E+02 -0.14332469796E+02 -0.55908985232E+01  0.18457170842E+02  0.51100000000E-03 0. -1.
        -11    1    4    4    0    0 -0.95181991031E+00 -0.22477492001E+01 -0.34267643545E+01  0.42072617949E+01  0.51100000000E-03 0.  1.
         12    1    4    4    0    0 -0.23217872667E+02  0.15086348342E+01 -0.21534005554E+02  0.31702665273E+02  0.00000000000E+00 0. -1.
</event>
<event>
 8    1  0.1262344E-006  0.9118800E+02  0.7816164E-02  0.1184000E+00
        -11   -1    0    0    0    0  0.00000000000E+00  0.00000000000E+00  0.45593999997E+02  0.45594000000E+02  0.51100000000E-03 0. -1.
         11   -1    0    0    0    0 -0.00000000000E+00 -0.00000000000E+00 -0.45593999997E+02  0.45594000000E+02  0.51100000000E-03 0.  1.
         23    2    1    2    0    0  0.35527136788E-14  0.00000000000E+00  0.00000000000E+00  0.91188000000E+02  0.91188000000E+02 0.  0.
    9900012    2    3    3    0    0  0.25121830154E+02 -0.18452050959E+02 -0.19600901608E+02  0.54367083679E+02  0.39999998862E+02 0.  0.
         12    1    3    3    0    0 -0.25121830154E+02  0.18452050959E+02  0.19600901608E+02  0.36820916321E+02  0.00000000000E+00 0. -1.
         11    1    4    4    0    0  0.22331867580E+01 -0.49027909315E+01  0.78121435700E+00  0.54437834405E+01  0.51100000000E-03 0. -1.
        -11    1    4    4    0    0  0.19870460189E+02  0.28538074800E+01 -0.24569166850E+02  0.31727328366E+02  0.51100000000E-03 0.  1.
        -12    1    4    4    0    0  0.30181832071E+01 -0.16403067507E+02  0.41870508850E+01  0.17195971872E+02  0.00000000000E+00 0.  1.
</event>
<event>
 8    1  0.1262344E-006  0.9118800E+02  0.7816164E-02  0.1184000E+00
        -11   -1    0    0    0    0  0.00000000000E+00  0.00000000000E+00  0.45593999997E+02  0.45594000000E+02  0.51100000000E-03 0.  1.
         11   -1    0    0    0    0 -0.00000000000E+00 -0.00000000000E+00 -0.45593999997E+02  0.45594000000E+02  0.51100000000E-03 0. -1.
         23    2    1    2    0    0  0.00000000000E+00  0.00000000000E+00  0.00000000000E+00  0.91188000000E+02  0.91188000000E+02 0.  0.
    9900012    2    3    3    0    0 -0.29345509968E+02 -0.19891624091E+02  0.99470558775E+01  0.54367087669E+02  0.40000007959E+02 0.  0.
         12    1    3    3    0    0  0.29345509968E+02  0.19891624091E+02 -0.99470558775E+01  0.36820912331E+02  0.00000000000E+00 0. -1.
         11    1    4    4    0    0 -0.72807484863E+01 -0.18254765414E+01  0.69191886750E+01  0.10208664717E+02  0.51100000000E-03 0. -1.
        -11    1    4    4    0    0 -0.25103882247E+02 -0.14887230027E+02  0.13976055205E+02  0.32359923379E+02  0.51100000000E-03 0.  1.
         12    1    4    4    0    0  0.30391207648E+01 -0.31789175230E+01 -0.10948188002E+02  0.11798499573E+02  0.00000000000E+00 0. -1.
</event>
<event>
 8    1  0.1262344E-006  0.9118800E+02  0.7816164E-02  0.1184000E+00
        -11   -1    0    0    0    0  0.00000000000E+00  0.00000000000E+00  0.45593999997E+02  0.45594000000E+02  0.51100000000E-03 0.  1.
         11   -1    0    0    0    0 -0.00000000000E+00 -0.00000000000E+00 -0.45593999997E+02  0.45594000000E+02  0.51100000000E-03 0. -1.
         23    2    1    2    0    0  0.00000000000E+00  0.00000000000E+00  0.26645352591E-14  0.91188000000E+02  0.91188000000E+02 0.  0.
    9900012    2    3    3    0    0  0.39668259564E+01 -0.36215944761E+02 -0.53338718859E+01  0.54367074531E+02  0.39999978008E+02 0.  0.
        -12    1    3    3    0    0 -0.39668259564E+01  0.36215944761E+02  0.53338718859E+01  0.36820925469E+02  0.00000000000E+00 0.  1.
         11    1    4    4    0    0 -0.51411235277E+01 -0.82034972032E+01 -0.17332150551E+02  0.19852756999E+02  0.51100000000E-03 0. -1.
        -11    1    4    4    0    0  0.45209704334E+01 -0.13852855446E+02 -0.12001816015E+01  0.14621258968E+02  0.51100000000E-03 0.  1.
         12    1    4    4    0    0  0.45869790508E+01 -0.14159592112E+02  0.13198460267E+02  0.19893058563E+02  0.00000000000E+00 0. -1.
</event>
<event>
 8    1  0.1262344E-006  0.9118800E+02  0.7816164E-02  0.1184000E+00
        -11   -1    0    0    0    0  0.00000000000E+00  0.00000000000E+00  0.45593999997E+02  0.45594000000E+02  0.51100000000E-03 0.  1.
         11   -1    0    0    0    0 -0.00000000000E+00 -0.00000000000E+00 -0.45593999997E+02  0.45594000000E+02  0.51100000000E-03 0. -1.
         23    2    1    2    0    0 -0.71054273576E-14  0.00000000000E+00  0.00000000000E+00  0.91188000000E+02  0.91188000000E+02 0.  0.
    9900012    2    3    3    0    0  0.34297594264E+02  0.69128282997E+01  0.11474614873E+02  0.54367096237E+02  0.40000027493E+02 0.  0.
         12    1    3    3    0    0 -0.34297594264E+02 -0.69128282997E+01 -0.11474614873E+02  0.36820903763E+02  0.00000000000E+00 0. -1.
         11    1    4    4    0    0  0.34867271131E+02  0.36491890651E+01  0.27159273737E+01  0.35162756415E+02  0.51100000000E-03 0. -1.
        -11    1    4    4    0    0  0.68582718871E+01  0.11719073191E+01  0.91295471879E+01  0.11478584066E+02  0.51100000000E-03 0.  1.
        -12    1    4    4    0    0 -0.74279487540E+01  0.20917319155E+01 -0.37085968860E+00  0.77257557564E+01  0.00000000000E+00 0.  1.
</event>
<event>
 8    1  0.1262344E-006  0.9118800E+02  0.7816164E-02  0.1184000E+00
        -11   -1    0    0    0    0  0.00000000000E+00  0.00000000000E+00  0.45593999997E+02  0.45594000000E+02  0.51100000000E-03 0. -1.
         11   -1    0    0    0    0 -0.00000000000E+00 -0.00000000000E+00 -0.45593999997E+02  0.45594000000E+02  0.51100000000E-03 0.  1.
         23    2    1    2    0    0  0.10658141036E-13 -0.35527136788E-14 -0.35527136788E-14  0.91188000000E+02  0.91188000000E+02 0.  0.
    9900012    2    3    3    0    0 -0.31207394706E+02  0.90609321866E+01  0.17314088400E+02  0.54367087009E+02  0.40000006453E+02 0.  0.
        -12    1    3    3    0    0  0.31207394706E+02 -0.90609321866E+01 -0.17314088400E+02  0.36820912991E+02  0.00000000000E+00 0.  1.
         11    1    4    4    0    0 -0.42053920356E+01 -0.34810758151E+01 -0.18880025219E+01  0.57764837737E+01  0.51100000000E-03 0. -1.
        -11    1    4    4    0    0 -0.29242838265E+02  0.17715170831E+02  0.66504640702E+01  0.34831014053E+02  0.51100000000E-03 0.  1.
         12    1    4    4    0    0  0.22408355953E+01 -0.51731628292E+01  0.12551626852E+02  0.13759589182E+02  0.00000000000E+00 0. -1.
</event>
<event>
 8    1  0.1262344E-006  0.9118800E+02  0.7816164E-02  0.1184000E+00
        -11   -1    0    0    0    0  0.00000000000E+00  0.00000000000E+00  0.45593999997E+02  0.45594000000E+02  0.51100000000E-03 0. -1.
         11   -1    0    0    0    0 -0.00000000000E+00 -0.00000000000E+00 -0.45593999997E+02  0.45594000000E+02  0.51100000000E-03 0.  1.
         23    2    1    2    0    0 -0.71054273576E-14  0.00000000000E+00  0.00000000000E+00  0.91188000000E+02  0.91188000000E+02 0.  0.
    9900012    2    3    3    0    0 -0.36149374255E+02  0.50782183836E+01  0.48187919340E+01  0.54366996256E+02  0.39999799565E+02 0.  0.
        -12    1    3    3    0    0  0.36149374255E+02 -0.50782183836E+01 -0.48187919340E+01  0.36821003744E+02  0.00000000000E+00 0.  1.
         11    1    4    4    0    0 -0.42871316590E+02  0.11697257071E+01  0.47430831978E+01  0.43148752970E+02  0.51100000000E-03 0. -1.
        -11    1    4    4    0    0  0.70923007054E+01  0.23650726118E+01  0.28670873459E+01  0.80071522943E+01  0.51100000000E-03 0.  1.
         12    1    4    4    0    0 -0.37035837075E+00  0.15434200646E+01 -0.27913786097E+01  0.32110909924E+01  0.00000000000E+00 0. -1.
</event>
<event>
 8    1  0.1262344E-006  0.9118800E+02  0.7816164E-02  0.1184000E+00
        -11   -1    0    0    0    0  0.00000000000E+00  0.00000000000E+00  0.45593999997E+02  0.45594000000E+02  0.51100000000E-03 0.  1.
         11   -1    0    0    0    0 -0.00000000000E+00 -0.00000000000E+00 -0.45593999997E+02  0.45594000000E+02  0.51100000000E-03 0. -1.
         23    2    1    2    0    0  0.35527136788E-14 -0.35527136788E-14  0.88817841970E-15  0.91188000000E+02  0.91188000000E+02 0.  0.
    9900012    2    3    3    0    0  0.23710123521E+02 -0.27610010615E+02  0.55942598288E+01  0.54367103942E+02  0.40000045056E+02 0.  0.
         12    1    3    3    0    0 -0.23710123521E+02  0.27610010615E+02 -0.55942598288E+01  0.36820896058E+02  0.00000000000E+00 0. -1.
         11    1    4    4    0    0 -0.18288333225E+00  0.41371009301E+01 -0.42043322133E+01  0.59013100274E+01  0.51100000000E-03 0. -1.
        -11    1    4    4    0    0  0.31226557313E+00 -0.24728102792E+01  0.10577664342E+02  0.10867349431E+02  0.51100000000E-03 0.  1.
        -12    1    4    4    0    0  0.23580741280E+02 -0.29274301265E+02 -0.77907229983E+00  0.37598444483E+02  0.00000000000E+00 0.  1.
</event>
<event>
 8    1  0.1262344E-006  0.9118800E+02  0.7816164E-02  0.1184000E+00
        -11   -1    0    0    0    0  0.00000000000E+00  0.00000000000E+00  0.45593999997E+02  0.45594000000E+02  0.51100000000E-03 0. -1.
         11   -1    0    0    0    0 -0.00000000000E+00 -0.00000000000E+00 -0.45593999997E+02  0.45594000000E+02  0.51100000000E-03 0.  1.
         23    2    1    2    0    0  0.00000000000E+00  0.00000000000E+00  0.00000000000E+00  0.91188000000E+02  0.91188000000E+02 0.  0.
    9900012    2    3    3    0    0  0.32781305377E+02 -0.16137180108E+02  0.45559777655E+01  0.54367088856E+02  0.40000010665E+02 0.  0.
         12    1    3    3    0    0 -0.32781305377E+02  0.16137180108E+02 -0.45559777655E+01  0.36820911144E+02  0.00000000000E+00 0. -1.
         11    1    4    4    0    0  0.30782903129E+01 -0.51492532028E+01  0.83493784658E+01  0.10281186742E+02  0.51100000000E-03 0. -1.
        -11    1    4    4    0    0  0.25053780686E+02 -0.18556932020E+02  0.50123075108E+01  0.31578075931E+02  0.51100000000E-03 0.  1.
        -12    1    4    4    0    0  0.46492343779E+01  0.75690051148E+01 -0.88057082111E+01  0.12507826183E+02  0.00000000000E+00 0.  1.
</event>
<event>
 8    1  0.1262344E-006  0.9118800E+02  0.7816164E-02  0.1184000E+00
        -11   -1    0    0    0    0  0.00000000000E+00  0.00000000000E+00  0.45593999997E+02  0.45594000000E+02  0.51100000000E-03 0. -1.
         11   -1    0    0    0    0 -0.00000000000E+00 -0.00000000000E+00 -0.45593999997E+02  0.45594000000E+02  0.51100000000E-03 0.  1.
         23    2    1    2    0    0  0.88817841970E-15  0.00000000000E+00  0.00000000000E+00  0.91188000000E+02  0.91188000000E+02 0.  0.
    9900012    2    3    3    0    0  0.50062834098E+01  0.99675440621E+01 -0.35090779840E+02  0.54367114107E+02  0.40000068229E+02 0.  0.
         12    1    3    3    0    0 -0.50062834098E+01 -0.99675440621E+01  0.35090779840E+02  0.36820885893E+02  0.00000000000E+00 0. -1.
         11    1    4    4    0    0 -0.88859495849E+01  0.45294879559E+01 -0.25177347869E+02  0.27080901151E+02  0.51100000000E-03 0. -1.
        -11    1    4    4    0    0  0.12259633389E+02 -0.29077003801E+01 -0.13126968650E+02  0.18195346617E+02  0.51100000000E-03 0.  1.
         12    1    4    4    0    0  0.16325996057E+01  0.83457564863E+01  0.32135366789E+01  0.90908663386E+01  0.00000000000E+00 0. -1.
</event>
<event>
 8    1  0.1262344E-006  0.9118800E+02  0.7816164E-02  0.1184000E+00
        -11   -1    0    0    0    0  0.00000000000E+00  0.00000000000E+00  0.45593999997E+02  0.45594000000E+02  0.51100000000E-03 0.  1.
         11   -1    0    0    0    0 -0.00000000000E+00 -0.00000000000E+00 -0.45593999997E+02  0.45594000000E+02  0.51100000000E-03 0. -1.
         23    2    1    2    0    0 -0.35527136788E-14  0.00000000000E+00  0.35527136788E-14  0.91188000000E+02  0.91188000000E+02 0.  0.
    9900012    2    3    3    0    0  0.24638726844E+02  0.98881698103E+01 -0.25513446196E+02  0.54367099692E+02  0.40000035368E+02 0.  0.
        -12    1    3    3    0    0 -0.24638726844E+02 -0.98881698103E+01  0.25513446196E+02  0.36820900308E+02  0.00000000000E+00 0.  1.
         11    1    4    4    0    0 -0.89773076397E+00  0.14220696822E+02 -0.34337615542E+01  0.14656904765E+02  0.51100000000E-03 0. -1.
        -11    1    4    4    0    0 -0.26737751160E+01  0.21972223664E+01 -0.50358945932E+01  0.61104086699E+01  0.51100000000E-03 0.  1.
        -12    1    4    4    0    0  0.28210232724E+02 -0.65297493781E+01 -0.17043790049E+02  0.33599786257E+02  0.00000000000E+00 0.  1.
</event>
<event>
 8    1  0.1262344E-006  0.9118800E+02  0.7816164E-02  0.1184000E+00
        -11   -1    0    0    0    0  0.00000000000E+00  0.00000000000E+00  0.45593999997E+02  0.45594000000E+02  0.51100000000E-03 0. -1.
         11   -1    0    0    0    0 -0.00000000000E+00 -0.00000000000E+00 -0.45593999997E+02  0.45594000000E+02  0.51100000000E-03 0.  1.
         23    2    1    2    0    0 -0.88817841970E-15 -0.35527136788E-14 -0.35527136788E-14  0.91188000000E+02  0.91188000000E+02 0.  0.
    9900012    2    3    3    0    0  0.43301612530E+01  0.31423056582E+02  0.18698140515E+02  0.54367092350E+02  0.40000018630E+02 0.  0.
        -12    1    3    3    0    0 -0.43301612530E+01 -0.31423056582E+02 -0.18698140515E+02  0.36820907650E+02  0.00000000000E+00 0.  1.
         11    1    4    4    0    0  0.57500628110E+00  0.27093917310E+02  0.27454467850E+02  0.38576661243E+02  0.51100000000E-03 0. -1.
        -11    1    4    4    0    0 -0.22365631975E+01  0.53369554383E+01 -0.76862974608E+01  0.96210434571E+01  0.51100000000E-03 0.  1.
         12    1    4    4    0    0  0.59917181694E+01 -0.10078161660E+01 -0.10700298741E+01  0.61693876501E+01  0.00000000000E+00 0. -1.
</event>
<event>
 8    1  0.1262344E-006  0.9118800E+02  0.7816164E-02  0.1184000E+00
        -11   -1    0    0    0    0  0.00000000000E+00  0.00000000000E+00  0.45593999997E+02  0.45594000000E+02  0.51100000000E-03 0.  1.
         11   -1    0    0    0    0 -0.00000000000E+00 -0.00000000000E+00 -0.45593999997E+02  0.45594000000E+02  0.51100000000E-03 0. -1.
         23    2    1    2    0    0  0.88817841970E-15  0.00000000000E+00 -0.35527136788E-14  0.91188000000E+02  0.91188000000E+02 0.  0.
    9900012    2    3    3    0    0 -0.30912353380E+01  0.22387832502E+02  0.29069036649E+02  0.54367086489E+02  0.40000005269E+02 0.  0.
         12    1    3    3    0    0  0.30912353380E+01 -0.22387832502E+02 -0.29069036649E+02  0.36820913511E+02  0.00000000000E+00 0. -1.
         11    1    4    4    0    0 -0.11126387239E+02 -0.46412252979E+00 -0.43231150000E+01  0.11945761855E+02  0.51100000000E-03 0. -1.
        -11    1    4    4    0    0  0.83052639266E+01  0.10725733166E+02  0.13604039459E+02  0.19211680060E+02  0.51100000000E-03 0.  1.
         12    1    4    4    0    0 -0.27011202537E+00  0.12126221866E+02  0.19788112190E+02  0.23209644575E+02  0.00000000000E+00 0. -1.
</event>
<event>
 8    1  0.1262344E-006  0.9118800E+02  0.7816164E-02  0.1184000E+00
        -11   -1    0    0    0    0  0.00000000000E+00  0.00000000000E+00  0.45593999997E+02  0.45594000000E+02  0.51100000000E-03 0. -1.
         11   -1    0    0    0    0 -0.00000000000E+00 -0.00000000000E+00 -0.45593999997E+02  0.45594000000E+02  0.51100000000E-03 0.  1.
         23    2    1    2    0    0  0.00000000000E+00 -0.71054273576E-14  0.88817841970E-15  0.91188000000E+02  0.91188000000E+02 0.  0.
    9900012    2    3    3    0    0  0.14044861482E+02  0.33388421572E+02 -0.66132361371E+01  0.54367085816E+02  0.40000003735E+02 0.  0.
         12    1    3    3    0    0 -0.14044861482E+02 -0.33388421572E+02  0.66132361371E+01  0.36820914184E+02  0.00000000000E+00 0. -1.
         11    1    4    4    0    0  0.67735766580E+01  0.37653786624E+02 -0.12012649623E+02  0.40099784777E+02  0.51100000000E-03 0. -1.
        -11    1    4    4    0    0  0.51919198755E+01 -0.44501225705E+00 -0.20835290833E+01  0.56120550251E+01  0.51100000000E-03 0.  1.
         12    1    4    4    0    0  0.20793649488E+01 -0.38203527950E+01  0.74829425696E+01  0.86552460143E+01  0.00000000000E+00 0. -1.
</event>
<event>
 8    1  0.1262344E-006  0.9118800E+02  0.7816164E-02  0.1184000E+00
        -11   -1    0    0    0    0  0.00000000000E+00  0.00000000000E+00  0.45593999997E+02  0.45594000000E+02  0.51100000000E-03 0.  1.
         11   -1    0    0    0    0 -0.00000000000E+00 -0.00000000000E+00 -0.45593999997E+02  0.45594000000E+02  0.51100000000E-03 0. -1.
         23    2    1    2    0    0  0.00000000000E+00 -0.88817841970E-15  0.00000000000E+00  0.91188000000E+02  0.91188000000E+02 0.  0.
    9900012    2    3    3    0    0 -0.34026097637E+02 -0.53770135936E+01 -0.13003542129E+02  0.54367086058E+02  0.40000004287E+02 0.  0.
        -12    1    3    3    0    0  0.34026097637E+02  0.53770135936E+01  0.13003542129E+02  0.36820913942E+02  0.00000000000E+00 0.  1.
         11    1    4    4    0    0 -0.60486396549E+01  0.11004317937E+02 -0.31420791003E+01  0.12944254180E+02  0.51100000000E-03 0. -1.
        -11    1    4    4    0    0  0.33464841851E+01  0.78602300553E+00  0.17575050276E+01  0.38607787750E+01  0.51100000000E-03 0.  1.
         12    1    4    4    0    0 -0.31323942167E+02 -0.17167354536E+02 -0.11618968056E+02  0.37562053104E+02  0.00000000000E+00 0. -1.
</event>
<event>
 8    1  0.1262344E-006  0.9118800E+02  0.7816164E-02  0.1184000E+00
        -11   -1    0    0    0    0  0.00000000000E+00  0.00000000000E+00  0.45593999997E+02  0.45594000000E+02  0.51100000000E-03 0. -1.
         11   -1    0    0    0    0 -0.00000000000E+00 -0.00000000000E+00 -0.45593999997E+02  0.45594000000E+02  0.51100000000E-03 0.  1.
         23    2    1    2    0    0  0.00000000000E+00 -0.35527136788E-14 -0.35527136788E-14  0.91188000000E+02  0.91188000000E+02 0.  0.
    9900012    2    3    3    0    0 -0.18341500984E+02  0.26091654577E+02  0.18400945068E+02  0.54367083712E+02  0.39999998937E+02 0.  0.
        -12    1    3    3    0    0  0.18341500984E+02 -0.26091654577E+02 -0.18400945068E+02  0.36820916288E+02  0.00000000000E+00 0.  1.
         11    1    4    4    0    0 -0.11467961640E+02  0.71275761661E+01  0.28079271136E+02  0.31157053037E+02  0.51100000000E-03 0. -1.
        -11    1    4    4    0    0 -0.11316759710E+01  0.81633297257E+01 -0.12032690163E+01  0.83287753782E+01  0.51100000000E-03 0.  1.
        -12    1    4    4    0    0 -0.57418633733E+01  0.10800748685E+02 -0.84750570518E+01  0.14881255296E+02  0.00000000000E+00 0.  1.
</event>
<event>
 8    1  0.1262344E-006  0.9118800E+02  0.7816164E-02  0.1184000E+00
        -11   -1    0    0    0    0  0.00000000000E+00  0.00000000000E+00  0.45593999997E+02  0.45594000000E+02  0.51100000000E-03 0.  1.
         11   -1    0    0    0    0 -0.00000000000E+00 -0.00000000000E+00 -0.45593999997E+02  0.45594000000E+02  0.51100000000E-03 0. -1.
         23    2    1    2    0    0  0.00000000000E+00 -0.71054273576E-14  0.00000000000E+00  0.91188000000E+02  0.91188000000E+02 0.  0.
    9900012    2    3    3    0    0  0.49837674494E+01 -0.35112262720E+02  0.99030977005E+01  0.54367078293E+02  0.39999986583E+02 0.  0.
         12    1    3    3    0    0 -0.49837674494E+01  0.35112262720E+02 -0.99030977005E+01  0.36820921707E+02  0.00000000000E+00 0. -1.
         11    1    4    4    0    0 -0.88178342590E+01 -0.11891151140E+01 -0.77854595410E+01  0.11822925877E+02  0.51100000000E-03 0. -1.
        -11    1    4    4    0    0  0.11249961617E+01 -0.73786495906E+01  0.93602621865E+01  0.11971825032E+02  0.51100000000E-03 0.  1.
         12    1    4    4    0    0  0.12676605547E+02 -0.26544498016E+02  0.83282950550E+01  0.30572327383E+02  0.00000000000E+00 0. -1.
</event>
<event>
 8    1  0.1262344E-006  0.9118800E+02  0.7816164E-02  0.1184000E+00
        -11   -1    0    0    0    0  0.00000000000E+00  0.00000000000E+00  0.45593999997E+02  0.45594000000E+02  0.51100000000E-03 0.  1.
         11   -1    0    0    0    0 -0.00000000000E+00 -0.00000000000E+00 -0.45593999997E+02  0.45594000000E+02  0.51100000000E-03 0. -1.
         23    2    1    2    0    0  0.00000000000E+00  0.00000000000E+00  0.00000000000E+00  0.91188000000E+02  0.91188000000E+02 0.  0.
    9900012    2    3    3    0    0 -0.93895458973E+01 -0.32763697397E+02  0.13934005181E+02  0.54367082851E+02  0.39999996976E+02 0.  0.
         12    1    3    3    0    0  0.93895458973E+01  0.32763697397E+02 -0.13934005181E+02  0.36820917149E+02  0.00000000000E+00 0. -1.
         11    1    4    4    0    0  0.30358947227E+01 -0.11545316456E+02  0.21650736927E+02  0.24723782044E+02  0.51100000000E-03 0.  1.
        -11    1    4    4    0    0 -0.80310337247E+01 -0.66718864784E+01  0.32142130270E+01  0.10924410168E+02  0.51100000000E-03 0. -1.
         12    1    4    4    0    0 -0.43944068953E+01 -0.14546494463E+02 -0.10930944773E+02  0.18718890639E+02  0.00000000000E+00 0. -1.
</event>
<event>
 8    1  0.1262344E-006  0.9118800E+02  0.7816164E-02  0.1184000E+00
        -11   -1    0    0    0    0  0.00000000000E+00  0.00000000000E+00  0.45593999997E+02  0.45594000000E+02  0.51100000000E-03 0. -1.
         11   -1    0    0    0    0 -0.00000000000E+00 -0.00000000000E+00 -0.45593999997E+02  0.45594000000E+02  0.51100000000E-03 0.  1.
         23    2    1    2    0    0  0.00000000000E+00  0.35527136788E-14  0.00000000000E+00  0.91188000000E+02  0.91188000000E+02 0.  0.
    9900012    2    3    3    0    0 -0.31540241943E+02  0.11625725303E+02 -0.15027860300E+02  0.54367069324E+02  0.39999966137E+02 0.  0.
         12    1    3    3    0    0  0.31540241943E+02 -0.11625725303E+02  0.15027860300E+02  0.36820930676E+02  0.00000000000E+00 0. -1.
         11    1    4    4    0    0  0.17069391237E+01  0.55603090111E+01 -0.15463572009E+01  0.60184631199E+01  0.51100000000E-03 0. -1.
        -11    1    4    4    0    0  0.27691782781E+00 -0.92540414366E+01 -0.50294029601E+00  0.92718345324E+01  0.51100000000E-03 0.  1.
        -12    1    4    4    0    0 -0.33524098895E+02  0.15319457729E+02 -0.12978562804E+02  0.39076771671E+02  0.00000000000E+00 0.  1.
</event>
<event>
 8    1  0.1262344E-006  0.9118800E+02  0.7816164E-02  0.1184000E+00
        -11   -1    0    0    0    0  0.00000000000E+00  0.00000000000E+00  0.45593999997E+02  0.45594000000E+02  0.51100000000E-03 0.  1.
         11   -1    0    0    0    0 -0.00000000000E+00 -0.00000000000E+00 -0.45593999997E+02  0.45594000000E+02  0.51100000000E-03 0. -1.
         23    2    1    2    0    0  0.11102230246E-14  0.17763568394E-14  0.00000000000E+00  0.91188000000E+02  0.91188000000E+02 0.  0.
    9900012    2    3    3    0    0 -0.87182089277E+00 -0.11896018461E+02 -0.34835383265E+02  0.54367092160E+02  0.40000018198E+02 0.  0.
        -12    1    3    3    0    0  0.87182089277E+00  0.11896018461E+02  0.34835383265E+02  0.36820907840E+02  0.00000000000E+00 0.  1.
         11    1    4    4    0    0 -0.82112722062E+01 -0.91811943884E+01 -0.27428544649E+02  0.30067330834E+02  0.51100000000E-03 0. -1.
        -11    1    4    4    0    0  0.87423529153E+01  0.96240692279E+00 -0.14051428207E+02  0.16577020133E+02  0.51100000000E-03 0.  1.
        -12    1    4    4    0    0 -0.14029016018E+01 -0.36772309955E+01  0.66445895910E+01  0.77227411928E+01  0.00000000000E+00 0.  1.
</event>
<event>
 8    1  0.1262344E-006  0.9118800E+02  0.7816164E-02  0.1184000E+00
        -11   -1    0    0    0    0  0.00000000000E+00  0.00000000000E+00  0.45593999997E+02  0.45594000000E+02  0.51100000000E-03 0. -1.
         11   -1    0    0    0    0 -0.00000000000E+00 -0.00000000000E+00 -0.45593999997E+02  0.45594000000E+02  0.51100000000E-03 0.  1.
         23    2    1    2    0    0  0.00000000000E+00  0.35527136788E-14  0.00000000000E+00  0.91188000000E+02  0.91188000000E+02 0.  0.
    9900012    2    3    3    0    0  0.16118605800E+02 -0.30231368651E+02 -0.13492031945E+02  0.54367081632E+02  0.39999994196E+02 0.  0.
        -12    1    3    3    0    0 -0.16118605800E+02  0.30231368651E+02  0.13492031945E+02  0.36820918368E+02  0.00000000000E+00 0.  1.
         11    1    4    4    0    0  0.48327302288E+01 -0.21510158220E+02 -0.23345144886E+02  0.32109780101E+02  0.51100000000E-03 0.  1.
        -11    1    4    4    0    0  0.12929164326E+02 -0.10632846223E+02  0.10359563886E+02  0.19686067996E+02  0.51100000000E-03 0. -1.
        -12    1    4    4    0    0 -0.16432887544E+01  0.19116357918E+01 -0.50645094438E+00  0.25712335347E+01  0.00000000000E+00 0.  1.
</event>
<event>
 8    1  0.1262344E-006  0.9118800E+02  0.7816164E-02  0.1184000E+00
        -11   -1    0    0    0    0  0.00000000000E+00  0.00000000000E+00  0.45593999997E+02  0.45594000000E+02  0.51100000000E-03 0. -1.
         11   -1    0    0    0    0 -0.00000000000E+00 -0.00000000000E+00 -0.45593999997E+02  0.45594000000E+02  0.51100000000E-03 0.  1.
         23    2    1    2    0    0 -0.35527136788E-14 -0.35527136788E-14  0.00000000000E+00  0.91188000000E+02  0.91188000000E+02 0.  0.
    9900012    2    3    3    0    0 -0.17846331396E+02  0.31425134597E+02  0.70532522964E+01  0.54367095656E+02  0.40000026167E+02 0.  0.
        -12    1    3    3    0    0  0.17846331396E+02 -0.31425134597E+02 -0.70532522964E+01  0.36820904344E+02  0.00000000000E+00 0.  1.
         11    1    4    4    0    0 -0.10182276038E+02  0.36608609897E+02  0.61783566173E+01  0.38497287628E+02  0.51100000000E-03 0. -1.
        -11    1    4    4    0    0  0.20827256657E+01 -0.38365161536E+01  0.36018552288E+01  0.56595020758E+01  0.51100000000E-03 0.  1.
         12    1    4    4    0    0 -0.97467810234E+01 -0.13469591469E+01 -0.27269595497E+01  0.10210305953E+02  0.00000000000E+00 0. -1.
</event>
<event>
 8    1  0.1262344E-006  0.9118800E+02  0.7816164E-02  0.1184000E+00
        -11   -1    0    0    0    0  0.00000000000E+00  0.00000000000E+00  0.45593999997E+02  0.45594000000E+02  0.51100000000E-03 0. -1.
         11   -1    0    0    0    0 -0.00000000000E+00 -0.00000000000E+00 -0.45593999997E+02  0.45594000000E+02  0.51100000000E-03 0.  1.
         23    2    1    2    0    0  0.17763568394E-14 -0.35527136788E-14  0.71054273576E-14  0.91188000000E+02  0.91188000000E+02 0.  0.
    9900012    2    3    3    0    0 -0.15909850067E+02  0.23085834171E+02 -0.23868407574E+02  0.54367082729E+02  0.39999996698E+02 0.  0.
         12    1    3    3    0    0  0.15909850067E+02 -0.23085834171E+02  0.23868407574E+02  0.36820917271E+02  0.00000000000E+00 0. -1.
         11    1    4    4    0    0 -0.15490199330E+02  0.24625118770E+02  0.78511924014E+00  0.29102562811E+02  0.51100000000E-03 0. -1.
        -11    1    4    4    0    0 -0.28469460419E+00 -0.13393667584E+01 -0.12325998803E+01  0.18423509593E+01  0.51100000000E-03 0.  1.
        -12    1    4    4    0    0 -0.13495613325E+00 -0.19991783968E+00 -0.23420926934E+02  0.23422168959E+02  0.00000000000E+00 0.  1.
</event>
<event>
 8    1  0.1262344E-006  0.9118800E+02  0.7816164E-02  0.1184000E+00
        -11   -1    0    0    0    0  0.00000000000E+00  0.00000000000E+00  0.45593999997E+02  0.45594000000E+02  0.51100000000E-03 0.  1.
         11   -1    0    0    0    0 -0.00000000000E+00 -0.00000000000E+00 -0.45593999997E+02  0.45594000000E+02  0.51100000000E-03 0. -1.
         23    2    1    2    0    0  0.17763568394E-14  0.00000000000E+00 -0.35527136788E-14  0.91188000000E+02  0.91188000000E+02 0.  0.
    9900012    2    3    3    0    0 -0.42201715533E+01  0.20092350914E+02  0.30565750860E+02  0.54367115453E+02  0.40000071297E+02 0.  0.
         12    1    3    3    0    0  0.42201715533E+01 -0.20092350914E+02 -0.30565750860E+02  0.36820884547E+02  0.00000000000E+00 0. -1.
         11    1    4    4    0    0  0.52763006040E+00 -0.14133068967E+01 -0.35534739966E+01  0.38604413699E+01  0.51100000000E-03 0. -1.
        -11    1    4    4    0    0  0.11853653089E+02  0.15426448440E+02  0.15972117066E+02  0.25171271856E+02  0.51100000000E-03 0.  1.
        -12    1    4    4    0    0 -0.16601454702E+02  0.60792093705E+01  0.18147107791E+02  0.25335402226E+02  0.00000000000E+00 0.  1.
</event>
<event>
 8    1  0.1262344E-006  0.9118800E+02  0.7816164E-02  0.1184000E+00
        -11   -1    0    0    0    0  0.00000000000E+00  0.00000000000E+00  0.45593999997E+02  0.45594000000E+02  0.51100000000E-03 0.  1.
         11   -1    0    0    0    0 -0.00000000000E+00 -0.00000000000E+00 -0.45593999997E+02  0.45594000000E+02  0.51100000000E-03 0. -1.
         23    2    1    2    0    0 -0.44408920985E-14  0.00000000000E+00  0.17763568394E-14  0.91188000000E+02  0.91188000000E+02 0.  0.
    9900012    2    3    3    0    0  0.44788745299E+01  0.34326957174E+02 -0.12545124971E+02  0.54367075698E+02  0.39999980670E+02 0.  0.
        -12    1    3    3    0    0 -0.44788745299E+01 -0.34326957174E+02  0.12545124971E+02  0.36820924302E+02  0.00000000000E+00 0.  1.
         11    1    4    4    0    0  0.10569050142E+02  0.15173417739E+02 -0.66793304426E+01  0.19660897289E+02  0.51100000000E-03 0. -1.
        -11    1    4    4    0    0 -0.13360754692E+02  0.18925757236E+02  0.28639440921E+01  0.23343012421E+02  0.51100000000E-03 0.  1.
        -12    1    4    4    0    0  0.72705790793E+01  0.22778219869E+00 -0.87297386209E+01  0.11363165988E+02  0.00000000000E+00 0.  1.
</event>
<event>
 8    1  0.1262344E-006  0.9118800E+02  0.7816164E-02  0.1184000E+00
        -11   -1    0    0    0    0  0.00000000000E+00  0.00000000000E+00  0.45593999997E+02  0.45594000000E+02  0.51100000000E-03 0.  1.
         11   -1    0    0    0    0 -0.00000000000E+00 -0.00000000000E+00 -0.45593999997E+02  0.45594000000E+02  0.51100000000E-03 0. -1.
         23    2    1    2    0    0  0.17763568394E-14 -0.35527136788E-14  0.00000000000E+00  0.91188000000E+02  0.91188000000E+02 0.  0.
    9900012    2    3    3    0    0  0.75351578823E+01  0.23205788327E+02  0.27577035393E+02  0.54367080712E+02  0.39999992099E+02 0.  0.
         12    1    3    3    0    0 -0.75351578823E+01 -0.23205788327E+02 -0.27577035393E+02  0.36820919288E+02  0.00000000000E+00 0. -1.
         11    1    4    4    0    0  0.22366486086E+01 -0.10011253531E+02  0.44071849973E+01  0.11164724543E+02  0.51100000000E-03 0. -1.
        -11    1    4    4    0    0  0.48275931155E+01  0.19440374830E+02  0.21387514902E+02  0.29302894443E+02  0.51100000000E-03 0.  1.
         12    1    4    4    0    0  0.47091615821E+00  0.13776667028E+02  0.17823354939E+01  0.13899461725E+02  0.00000000000E+00 0. -1.
</event>
<event>
 8    1  0.1262344E-006  0.9118800E+02  0.7816164E-02  0.1184000E+00
        -11   -1    0    0    0    0  0.00000000000E+00  0.00000000000E+00  0.45593999997E+02  0.45594000000E+02  0.51100000000E-03 0. -1.
         11   -1    0    0    0    0 -0.00000000000E+00 -0.00000000000E+00 -0.45593999997E+02  0.45594000000E+02  0.51100000000E-03 0.  1.
         23    2    1    2    0    0  0.20539125956E-14  0.71054273576E-14  0.00000000000E+00  0.91188000000E+02  0.91188000000E+02 0.  0.
    9900012    2    3    3    0    0 -0.44255501165E+00  0.35955333241E+02 -0.79246613724E+01  0.54367053499E+02  0.39999930061E+02 0.  0.
         12    1    3    3    0    0  0.44255501165E+00 -0.35955333241E+02  0.79246613724E+01  0.36820946501E+02  0.00000000000E+00 0. -1.
         11    1    4    4    0    0  0.27410067667E+01 -0.54905638887E+01  0.23379109589E+01  0.65669808759E+01  0.51100000000E-03 0. -1.
        -11    1    4    4    0    0 -0.78022577056E+01  0.61931932903E+01 -0.68357660422E+01  0.12081331304E+02  0.51100000000E-03 0.  1.
        -12    1    4    4    0    0  0.46186959272E+01  0.35252703839E+02 -0.34268062891E+01  0.35718741319E+02  0.00000000000E+00 0.  1.
</event>
<event>
 8    1  0.1262344E-006  0.9118800E+02  0.7816164E-02  0.1184000E+00
        -11   -1    0    0    0    0  0.00000000000E+00  0.00000000000E+00  0.45593999997E+02  0.45594000000E+02  0.51100000000E-03 0.  1.
         11   -1    0    0    0    0 -0.00000000000E+00 -0.00000000000E+00 -0.45593999997E+02  0.45594000000E+02  0.51100000000E-03 0. -1.
         23    2    1    2    0    0  0.35527136788E-14  0.35527136788E-14  0.71054273576E-14  0.91188000000E+02  0.91188000000E+02 0.  0.
    9900012    2    3    3    0    0  0.19082334012E+02  0.21514605002E+02  0.22994902746E+02  0.54367092189E+02  0.40000018264E+02 0.  0.
         12    1    3    3    0    0 -0.19082334012E+02 -0.21514605002E+02 -0.22994902746E+02  0.36820907811E+02  0.00000000000E+00 0. -1.
         11    1    4    4    0    0  0.22721639112E+01  0.11157308954E+02 -0.37361017814E+01  0.11983602493E+02  0.51100000000E-03 0. -1.
        -11    1    4    4    0    0 -0.69871627149E+01  0.13290426945E+00  0.55037975643E+01  0.88954985380E+01  0.51100000000E-03 0.  1.
        -12    1    4    4    0    0  0.23797332816E+02  0.10224391779E+02  0.21227206963E+02  0.33487991158E+02  0.00000000000E+00 0.  1.
</event>
<event>
 8    1  0.1262344E-006  0.9118800E+02  0.7816164E-02  0.1184000E+00
        -11   -1    0    0    0    0  0.00000000000E+00  0.00000000000E+00  0.45593999997E+02  0.45594000000E+02  0.51100000000E-03 0. -1.
         11   -1    0    0    0    0 -0.00000000000E+00 -0.00000000000E+00 -0.45593999997E+02  0.45594000000E+02  0.51100000000E-03 0.  1.
         23    2    1    2    0    0  0.00000000000E+00  0.00000000000E+00  0.00000000000E+00  0.91188000000E+02  0.91188000000E+02 0.  0.
    9900012    2    3    3    0    0  0.94275370586E+01  0.35568895836E+02 -0.13257773551E+01  0.54367048198E+02  0.39999917978E+02 0.  0.
         12    1    3    3    0    0 -0.94275370586E+01 -0.35568895836E+02  0.13257773551E+01  0.36820951802E+02  0.00000000000E+00 0. -1.
         11    1    4    4    0    0  0.12347824339E+02  0.17762405359E+02  0.31547775469E+01  0.21861482834E+02  0.51100000000E-03 0.  1.
        -11    1    4    4    0    0  0.29299640354E+01  0.23609635577E+02 -0.18810194744E+01  0.23864991428E+02  0.51100000000E-03 0. -1.
        -12    1    4    4    0    0 -0.58502513158E+01 -0.58031451006E+01 -0.25995354275E+01  0.86405739367E+01  0.00000000000E+00 0.  1.
</event>
<event>
 8    1  0.1262344E-006  0.9118800E+02  0.7816164E-02  0.1184000E+00
        -11   -1    0    0    0    0  0.00000000000E+00  0.00000000000E+00  0.45593999997E+02  0.45594000000E+02  0.51100000000E-03 0. -1.
         11   -1    0    0    0    0 -0.00000000000E+00 -0.00000000000E+00 -0.45593999997E+02  0.45594000000E+02  0.51100000000E-03 0.  1.
         23    2    1    2    0    0 -0.88817841970E-15  0.00000000000E+00  0.71054273576E-14  0.91188000000E+02  0.91188000000E+02 0.  0.
    9900012    2    3    3    0    0 -0.49187272106E+01  0.61953147365E+01 -0.35961141643E+02  0.54367088681E+02  0.40000010266E+02 0.  0.
         12    1    3    3    0    0  0.49187272106E+01 -0.61953147365E+01  0.35961141643E+02  0.36820911319E+02  0.00000000000E+00 0. -1.
         11    1    4    4    0    0  0.99151889338E+01 -0.62894542629E+00 -0.22459018647E+01  0.10185804798E+02  0.51100000000E-03 0. -1.
        -11    1    4    4    0    0 -0.17484575699E+01  0.10426015241E+02 -0.36318507960E+01  0.11178069518E+02  0.51100000000E-03 0.  1.
        -12    1    4    4    0    0 -0.13085458574E+02 -0.36017550782E+01 -0.30083388983E+02  0.33003214365E+02  0.00000000000E+00 0.  1.
</event>
<event>
 8    1  0.1262344E-006  0.9118800E+02  0.7816164E-02  0.1184000E+00
        -11   -1    0    0    0    0  0.00000000000E+00  0.00000000000E+00  0.45593999997E+02  0.45594000000E+02  0.51100000000E-03 0. -1.
         11   -1    0    0    0    0 -0.00000000000E+00 -0.00000000000E+00 -0.45593999997E+02  0.45594000000E+02  0.51100000000E-03 0.  1.
         23    2    1    2    0    0  0.00000000000E+00 -0.44408920985E-15 -0.35527136788E-14  0.91188000000E+02  0.91188000000E+02 0.  0.
    9900012    2    3    3    0    0  0.32680878989E+02 -0.35749031840E+01  0.16581911400E+02  0.54367087872E+02  0.40000008422E+02 0.  0.
        -12    1    3    3    0    0 -0.32680878989E+02  0.35749031840E+01 -0.16581911400E+02  0.36820912128E+02  0.00000000000E+00 0.  1.
         11    1    4    4    0    0  0.56083929023E+01 -0.18984826298E+01 -0.25673687814E+01  0.64536570999E+01  0.51100000000E-03 0. -1.
        -11    1    4    4    0    0  0.20513611843E+02  0.38899878510E+01 -0.56784526450E+01  0.21637585378E+02  0.51100000000E-03 0.  1.
         12    1    4    4    0    0  0.65588742440E+01 -0.55664084053E+01  0.24827732826E+02  0.26275845394E+02  0.00000000000E+00 0. -1.
</event>
<event>
 8    1  0.1262344E-006  0.9118800E+02  0.7816164E-02  0.1184000E+00
        -11   -1    0    0    0    0  0.00000000000E+00  0.00000000000E+00  0.45593999997E+02  0.45594000000E+02  0.51100000000E-03 0.  1.
         11   -1    0    0    0    0 -0.00000000000E+00 -0.00000000000E+00 -0.45593999997E+02  0.45594000000E+02  0.51100000000E-03 0. -1.
         23    2    1    2    0    0  0.00000000000E+00  0.00000000000E+00 -0.17763568394E-14  0.91188000000E+02  0.91188000000E+02 0.  0.
    9900012    2    3    3    0    0  0.32554599310E+02 -0.70959874718E+01  0.15672469666E+02  0.54367064653E+02  0.39999955489E+02 0.  0.
         12    1    3    3    0    0 -0.32554599310E+02  0.70959874718E+01 -0.15672469666E+02  0.36820935347E+02  0.00000000000E+00 0. -1.
         11    1    4    4    0    0  0.11916441034E+02  0.16382531773E+01  0.63456058598E+00  0.12045252500E+02  0.51100000000E-03 0. -1.
        -11    1    4    4    0    0  0.84638999406E+01 -0.65095290573E+01  0.24511499995E+02  0.26736215196E+02  0.51100000000E-03 0.  1.
        -12    1    4    4    0    0  0.12174258335E+02 -0.22247115918E+01 -0.94735909146E+01  0.15585596956E+02  0.00000000000E+00 0.  1.
</event>
<event>
 8    1  0.1262344E-006  0.9118800E+02  0.7816164E-02  0.1184000E+00
        -11   -1    0    0    0    0  0.00000000000E+00  0.00000000000E+00  0.45593999997E+02  0.45594000000E+02  0.51100000000E-03 0.  1.
         11   -1    0    0    0    0 -0.00000000000E+00 -0.00000000000E+00 -0.45593999997E+02  0.45594000000E+02  0.51100000000E-03 0. -1.
         23    2    1    2    0    0 -0.35527136788E-14 -0.21649348980E-14  0.00000000000E+00  0.91188000000E+02  0.91188000000E+02 0.  0.
    9900012    2    3    3    0    0 -0.29400227579E+02  0.21975370079E+00  0.22166587432E+02  0.54367091921E+02  0.40000017652E+02 0.  0.
         12    1    3    3    0    0  0.29400227579E+02 -0.21975370079E+00 -0.22166587432E+02  0.36820908079E+02  0.00000000000E+00 0. -1.
         11    1    4    4    0    0 -0.75544263283E+01 -0.14026733776E+02 -0.13727420498E+01  0.15990717263E+02  0.51100000000E-03 0. -1.
        -11    1    4    4    0    0 -0.16175597712E+02  0.16456923649E+02  0.22448801913E+02  0.32193617456E+02  0.51100000000E-03 0.  1.
        -12    1    4    4    0    0 -0.56702035385E+01 -0.22104361719E+01  0.10905275687E+01  0.61827572017E+01  0.00000000000E+00 0.  1.
</event>
<event>
 8    1  0.1262344E-006  0.9118800E+02  0.7816164E-02  0.1184000E+00
        -11   -1    0    0    0    0  0.00000000000E+00  0.00000000000E+00  0.45593999997E+02  0.45594000000E+02  0.51100000000E-03 0.  1.
         11   -1    0    0    0    0 -0.00000000000E+00 -0.00000000000E+00 -0.45593999997E+02  0.45594000000E+02  0.51100000000E-03 0. -1.
         23    2    1    2    0    0  0.22204460493E-15  0.00000000000E+00  0.00000000000E+00  0.91188000000E+02  0.91188000000E+02 0.  0.
    9900012    2    3    3    0    0  0.75826295725E+00  0.21805420004E+02 -0.29660188970E+02  0.54367107643E+02  0.40000053493E+02 0.  0.
        -12    1    3    3    0    0 -0.75826295725E+00 -0.21805420004E+02  0.29660188970E+02  0.36820892357E+02  0.00000000000E+00 0.  1.
         11    1    4    4    0    0 -0.30696843584E+01  0.28945571036E+02 -0.21720574306E+02  0.36318760897E+02  0.51100000000E-03 0. -1.
        -11    1    4    4    0    0 -0.14149894094E+01 -0.34776876232E+01  0.33768507220E+01  0.50497155656E+01  0.51100000000E-03 0.  1.
         12    1    4    4    0    0  0.52429367250E+01 -0.36624634091E+01 -0.11316465386E+02  0.12998631180E+02  0.00000000000E+00 0. -1.
</event>
<event>
 8    1  0.1262344E-006  0.9118800E+02  0.7816164E-02  0.1184000E+00
        -11   -1    0    0    0    0  0.00000000000E+00  0.00000000000E+00  0.45593999997E+02  0.45594000000E+02  0.51100000000E-03 0.  1.
         11   -1    0    0    0    0 -0.00000000000E+00 -0.00000000000E+00 -0.45593999997E+02  0.45594000000E+02  0.51100000000E-03 0. -1.
         23    2    1    2    0    0 -0.35527136788E-14  0.88817841970E-15  0.00000000000E+00  0.91188000000E+02  0.91188000000E+02 0.  0.
    9900012    2    3    3    0    0  0.19700821286E+02  0.23224070253E+01  0.31020378505E+02  0.54367084526E+02  0.40000000794E+02 0.  0.
         12    1    3    3    0    0 -0.19700821286E+02 -0.23224070253E+01 -0.31020378505E+02  0.36820915474E+02  0.00000000000E+00 0. -1.
         11    1    4    4    0    0  0.11996216188E+02 -0.41626746242E+01 -0.17030710620E+01  0.12811616376E+02  0.51100000000E-03 0. -1.
        -11    1    4    4    0    0  0.10288924355E+02 -0.16033834595E+01  0.31247455250E+02  0.32936852654E+02  0.51100000000E-03 0.  1.
         12    1    4    4    0    0 -0.25843192568E+01  0.80884651090E+01  0.14759943170E+01  0.86186154958E+01  0.00000000000E+00 0. -1.
</event>
<event>
 8    1  0.1262344E-006  0.9118800E+02  0.7816164E-02  0.1184000E+00
        -11   -1    0    0    0    0  0.00000000000E+00  0.00000000000E+00  0.45593999997E+02  0.45594000000E+02  0.51100000000E-03 0.  1.
         11   -1    0    0    0    0 -0.00000000000E+00 -0.00000000000E+00 -0.45593999997E+02  0.45594000000E+02  0.51100000000E-03 0. -1.
         23    2    1    2    0    0  0.44408920985E-15 -0.35527136788E-14  0.00000000000E+00  0.91188000000E+02  0.91188000000E+02 0.  0.
    9900012    2    3    3    0    0  0.32016757833E+01  0.26390747729E+02  0.25476253112E+02  0.54367329634E+02  0.40000559564E+02 0.  0.
         12    1    3    3    0    0 -0.32016757833E+01 -0.26390747729E+02 -0.25476253112E+02  0.36820670366E+02  0.00000000000E+00 0. -1.
         11    1    4    4    0    0 -0.23757991372E-01  0.59679933941E+01 -0.85123598261E+01  0.10396046348E+02  0.51100000000E-03 0. -1.
        -11    1    4    4    0    0 -0.25897147535E+01 -0.22939379940E+01  0.92943556562E+01  0.99173495123E+01  0.51100000000E-03 0.  1.
        -12    1    4    4    0    0  0.58151485282E+01  0.22716692329E+02  0.24694257282E+02  0.34053933774E+02  0.00000000000E+00 0.  1.
</event>
<event>
 8    1  0.1262344E-006  0.9118800E+02  0.7816164E-02  0.1184000E+00
        -11   -1    0    0    0    0  0.00000000000E+00  0.00000000000E+00  0.45593999997E+02  0.45594000000E+02  0.51100000000E-03 0.  1.
         11   -1    0    0    0    0 -0.00000000000E+00 -0.00000000000E+00 -0.45593999997E+02  0.45594000000E+02  0.51100000000E-03 0. -1.
         23    2    1    2    0    0  0.71054273576E-14 -0.88817841970E-15  0.26645352591E-14  0.91188000000E+02  0.91188000000E+02 0.  0.
    9900012    2    3    3    0    0  0.36099805256E+02 -0.58480530241E+01  0.42876743928E+01  0.54367084539E+02  0.40000000824E+02 0.  0.
         12    1    3    3    0    0 -0.36099805256E+02  0.58480530241E+01 -0.42876743928E+01  0.36820915461E+02  0.00000000000E+00 0. -1.
         11    1    4    4    0    0  0.12493520363E+02  0.60344468276E+01 -0.93275567901E+01  0.16718430414E+02  0.51100000000E-03 0. -1.
        -11    1    4    4    0    0  0.99651214880E+01 -0.93172655113E+01 -0.49110818024E+01  0.14499441631E+02  0.51100000000E-03 0.  1.
        -12    1    4    4    0    0  0.13641163405E+02 -0.25652343404E+01  0.18526312985E+02  0.23149212494E+02  0.00000000000E+00 0.  1.
</event>
<event>
 8    1  0.1262344E-006  0.9118800E+02  0.7816164E-02  0.1184000E+00
        -11   -1    0    0    0    0  0.00000000000E+00  0.00000000000E+00  0.45593999997E+02  0.45594000000E+02  0.51100000000E-03 0.  1.
         11   -1    0    0    0    0 -0.00000000000E+00 -0.00000000000E+00 -0.45593999997E+02  0.45594000000E+02  0.51100000000E-03 0. -1.
         23    2    1    2    0    0  0.00000000000E+00  0.88817841970E-15  0.00000000000E+00  0.91188000000E+02  0.91188000000E+02 0.  0.
    9900012    2    3    3    0    0 -0.19299453966E+02  0.62789155249E+01  0.30722719161E+02  0.54367093218E+02  0.40000020610E+02 0.  0.
         12    1    3    3    0    0  0.19299453966E+02 -0.62789155249E+01 -0.30722719161E+02  0.36820906782E+02  0.00000000000E+00 0. -1.
         11    1    4    4    0    0 -0.16305407310E+01 -0.33074771734E+01  0.71505615917E+01  0.80454086077E+01  0.51100000000E-03 0.  1.
        -11    1    4    4    0    0 -0.27786880577E+02  0.38537868586E+01  0.14540275339E+02  0.31597183618E+02  0.51100000000E-03 0. -1.
         12    1    4    4    0    0  0.10117967343E+02  0.57326058397E+01  0.90318822311E+01  0.14724500993E+02  0.00000000000E+00 0. -1.
</event>
<event>
 8    1  0.1262344E-006  0.9118800E+02  0.7816164E-02  0.1184000E+00
        -11   -1    0    0    0    0  0.00000000000E+00  0.00000000000E+00  0.45593999997E+02  0.45594000000E+02  0.51100000000E-03 0.  1.
         11   -1    0    0    0    0 -0.00000000000E+00 -0.00000000000E+00 -0.45593999997E+02  0.45594000000E+02  0.51100000000E-03 0. -1.
         23    2    1    2    0    0  0.17763568394E-14  0.35527136788E-14  0.17763568394E-14  0.91188000000E+02  0.91188000000E+02 0.  0.
    9900012    2    3    3    0    0  0.14061058167E+02  0.31497354462E+02  0.12883462169E+02  0.54367078062E+02  0.39999986058E+02 0.  0.
         12    1    3    3    0    0 -0.14061058167E+02 -0.31497354462E+02 -0.12883462169E+02  0.36820921938E+02  0.00000000000E+00 0. -1.
         11    1    4    4    0    0  0.10047144880E+02  0.49743950229E+01 -0.35756342382E+01  0.11767535279E+02  0.51100000000E-03 0. -1.
        -11    1    4    4    0    0  0.10322655707E+02  0.21269222735E+02 -0.61967264695E+00  0.23649969366E+02  0.51100000000E-03 0.  1.
        -12    1    4    4    0    0 -0.63087424190E+01  0.52537367048E+01  0.17078769054E+02  0.18949573417E+02  0.00000000000E+00 0.  1.
</event>
<event>
 8    1  0.1262344E-006  0.9118800E+02  0.7816164E-02  0.1184000E+00
        -11   -1    0    0    0    0  0.00000000000E+00  0.00000000000E+00  0.45593999997E+02  0.45594000000E+02  0.51100000000E-03 0.  1.
         11   -1    0    0    0    0 -0.00000000000E+00 -0.00000000000E+00 -0.45593999997E+02  0.45594000000E+02  0.51100000000E-03 0. -1.
         23    2    1    2    0    0  0.00000000000E+00  0.00000000000E+00 -0.35527136788E-14  0.91188000000E+02  0.91188000000E+02 0.  0.
    9900012    2    3    3    0    0 -0.13476255399E+02 -0.13435617069E+02 -0.31522273558E+02  0.54367095668E+02  0.40000026193E+02 0.  0.
        -12    1    3    3    0    0  0.13476255399E+02  0.13435617069E+02  0.31522273558E+02  0.36820904332E+02  0.00000000000E+00 0.  1.
         11    1    4    4    0    0 -0.61261051846E+01 -0.35566313999E+01 -0.25115461763E+01  0.75157605140E+01  0.51100000000E-03 0.  1.
        -11    1    4    4    0    0 -0.28673368384E+01 -0.14106525589E+02 -0.35253867470E+02  0.38079533303E+02  0.51100000000E-03 0. -1.
        -12    1    4    4    0    0 -0.44828133761E+01  0.42275399195E+01  0.62431400887E+01  0.87718018504E+01  0.00000000000E+00 0.  1.
</event>
<event>
 8    1  0.1262344E-006  0.9118800E+02  0.7816164E-02  0.1184000E+00
        -11   -1    0    0    0    0  0.00000000000E+00  0.00000000000E+00  0.45593999997E+02  0.45594000000E+02  0.51100000000E-03 0.  1.
         11   -1    0    0    0    0 -0.00000000000E+00 -0.00000000000E+00 -0.45593999997E+02  0.45594000000E+02  0.51100000000E-03 0. -1.
         23    2    1    2    0    0  0.35527136788E-14  0.00000000000E+00  0.35527136788E-14  0.91188000000E+02  0.91188000000E+02 0.  0.
    9900012    2    3    3    0    0  0.24173639805E+02  0.11867281131E+02  0.25111400369E+02  0.54367086766E+02  0.40000005901E+02 0.  0.
         12    1    3    3    0    0 -0.24173639805E+02 -0.11867281131E+02 -0.25111400369E+02  0.36820913234E+02  0.00000000000E+00 0. -1.
         11    1    4    4    0    0 -0.52905974013E+00 -0.17217725366E+00 -0.30332902236E+00  0.63368602023E+00  0.51100000000E-03 0. -1.
        -11    1    4    4    0    0  0.71650103276E+01  0.28509228747E+01 -0.10318523189E+02  0.12881655767E+02  0.51100000000E-03 0.  1.
        -12    1    4    4    0    0  0.17537689218E+02  0.91885355101E+01  0.35733252580E+02  0.40851744979E+02  0.00000000000E+00 0.  1.
</event>
<event>
 8    1  0.1262344E-006  0.9118800E+02  0.7816164E-02  0.1184000E+00
        -11   -1    0    0    0    0  0.00000000000E+00  0.00000000000E+00  0.45593999997E+02  0.45594000000E+02  0.51100000000E-03 0.  1.
         11   -1    0    0    0    0 -0.00000000000E+00 -0.00000000000E+00 -0.45593999997E+02  0.45594000000E+02  0.51100000000E-03 0. -1.
         23    2    1    2    0    0  0.00000000000E+00  0.88817841970E-15  0.00000000000E+00  0.91188000000E+02  0.91188000000E+02 0.  0.
    9900012    2    3    3    0    0 -0.35034921074E+02 -0.75126302172E+01 -0.84791322091E+01  0.54367068583E+02  0.39999964448E+02 0.  0.
         12    1    3    3    0    0  0.35034921074E+02  0.75126302172E+01  0.84791322091E+01  0.36820931417E+02  0.00000000000E+00 0. -1.
         11    1    4    4    0    0 -0.12286434702E+02  0.23926045326E+01 -0.11514804470E+02  0.17007990956E+02  0.51100000000E-03 0. -1.
        -11    1    4    4    0    0 -0.12513862947E+02 -0.76955289128E+00  0.14722208381E+02  0.19337331702E+02  0.51100000000E-03 0.  1.
         12    1    4    4    0    0 -0.10234623425E+02 -0.91356818585E+01 -0.11686536120E+02  0.18021745924E+02  0.00000000000E+00 0. -1.
</event>
<event>
 8    1  0.1262344E-006  0.9118800E+02  0.7816164E-02  0.1184000E+00
        -11   -1    0    0    0    0  0.00000000000E+00  0.00000000000E+00  0.45593999997E+02  0.45594000000E+02  0.51100000000E-03 0.  1.
         11   -1    0    0    0    0 -0.00000000000E+00 -0.00000000000E+00 -0.45593999997E+02  0.45594000000E+02  0.51100000000E-03 0. -1.
         23    2    1    2    0    0  0.88817841970E-15  0.00000000000E+00  0.88817841970E-15  0.91188000000E+02  0.91188000000E+02 0.  0.
    9900012    2    3    3    0    0  0.63898498115E+01  0.36206880091E+02 -0.20017909528E+01  0.54367142955E+02  0.40000133994E+02 0.  0.
         12    1    3    3    0    0 -0.63898498115E+01 -0.36206880091E+02  0.20017909528E+01  0.36820857045E+02  0.00000000000E+00 0. -1.
         11    1    4    4    0    0  0.35673332153E+01 -0.43411761478E+01 -0.13357665954E-02  0.56188680943E+01  0.51100000000E-03 0. -1.
        -11    1    4    4    0    0  0.89762817669E+01  0.32703191014E+02 -0.10653305469E+02  0.35546663058E+02  0.51100000000E-03 0.  1.
        -12    1    4    4    0    0 -0.61537651707E+01  0.78448652248E+01  0.86528502832E+01  0.13201611803E+02  0.00000000000E+00 0.  1.
</event>
<event>
 8    1  0.1262344E-006  0.9118800E+02  0.7816164E-02  0.1184000E+00
        -11   -1    0    0    0    0  0.00000000000E+00  0.00000000000E+00  0.45593999997E+02  0.45594000000E+02  0.51100000000E-03 0.  1.
         11   -1    0    0    0    0 -0.00000000000E+00 -0.00000000000E+00 -0.45593999997E+02  0.45594000000E+02  0.51100000000E-03 0. -1.
         23    2    1    2    0    0 -0.35527136788E-14 -0.17763568394E-14  0.00000000000E+00  0.91188000000E+02  0.91188000000E+02 0.  0.
    9900012    2    3    3    0    0  0.22559853217E+02 -0.12473199778E+02 -0.26291675179E+02  0.54367083749E+02  0.39999999023E+02 0.  0.
        -12    1    3    3    0    0 -0.22559853217E+02  0.12473199778E+02  0.26291675179E+02  0.36820916251E+02  0.00000000000E+00 0.  1.
         11    1    4    4    0    0 -0.34594077889E+01 -0.37050293786E+01 -0.48156331916E+01  0.69917857693E+01  0.51100000000E-03 0. -1.
        -11    1    4    4    0    0  0.10856386435E+02 -0.19810666570E+02 -0.16482950007E+02  0.27964464550E+02  0.51100000000E-03 0.  1.
         12    1    4    4    0    0  0.15162874571E+02  0.11042496170E+02 -0.49930919795E+01  0.19410833430E+02  0.00000000000E+00 0. -1.
</event>
<event>
 8    1  0.1262344E-006  0.9118800E+02  0.7816164E-02  0.1184000E+00
        -11   -1    0    0    0    0  0.00000000000E+00  0.00000000000E+00  0.45593999997E+02  0.45594000000E+02  0.51100000000E-03 0.  1.
         11   -1    0    0    0    0 -0.00000000000E+00 -0.00000000000E+00 -0.45593999997E+02  0.45594000000E+02  0.51100000000E-03 0. -1.
         23    2    1    2    0    0 -0.35527136788E-14  0.00000000000E+00  0.71054273576E-14  0.91188000000E+02  0.91188000000E+02 0.  0.
    9900012    2    3    3    0    0 -0.21635311215E+02 -0.18594948421E+02  0.23279228214E+02  0.54367064862E+02  0.39999955967E+02 0.  0.
         12    1    3    3    0    0  0.21635311215E+02  0.18594948421E+02 -0.23279228214E+02  0.36820935138E+02  0.00000000000E+00 0. -1.
         11    1    4    4    0    0  0.67203773734E+01 -0.93237484646E+01  0.97382686196E+01  0.15064183796E+02  0.51100000000E-03 0. -1.
        -11    1    4    4    0    0 -0.55367717944E+01 -0.11613339897E+02  0.41121797275E+00  0.12872241683E+02  0.51100000000E-03 0.  1.
         12    1    4    4    0    0 -0.22818916794E+02  0.23421399406E+01  0.13129741622E+02  0.26430639383E+02  0.00000000000E+00 0. -1.
</event>
<event>
 8    1  0.1262344E-006  0.9118800E+02  0.7816164E-02  0.1184000E+00
        -11   -1    0    0    0    0  0.00000000000E+00  0.00000000000E+00  0.45593999997E+02  0.45594000000E+02  0.51100000000E-03 0.  1.
         11   -1    0    0    0    0 -0.00000000000E+00 -0.00000000000E+00 -0.45593999997E+02  0.45594000000E+02  0.51100000000E-03 0. -1.
         23    2    1    2    0    0  0.17763568394E-14  0.00000000000E+00  0.00000000000E+00  0.91188000000E+02  0.91188000000E+02 0.  0.
    9900012    2    3    3    0    0 -0.24205057796E+01  0.36010507942E+02 -0.72912858886E+01  0.54367104026E+02  0.40000045247E+02 0.  0.
         12    1    3    3    0    0  0.24205057796E+01 -0.36010507942E+02  0.72912858886E+01  0.36820895974E+02  0.00000000000E+00 0. -1.
         11    1    4    4    0    0  0.95062073675E+01 -0.46381033298E+00 -0.48647812367E-01  0.95176396974E+01  0.51100000000E-03 0. -1.
        -11    1    4    4    0    0 -0.94335744855E+01  0.39272872552E+02 -0.75473084864E+01  0.41089082634E+02  0.51100000000E-03 0.  1.
        -12    1    4    4    0    0 -0.24931386616E+01 -0.27985542773E+01  0.30467041020E+00  0.37603816944E+01  0.00000000000E+00 0.  1.
</event>
<event>
 8    1  0.1262344E-006  0.9118800E+02  0.7816164E-02  0.1184000E+00
        -11   -1    0    0    0    0  0.00000000000E+00  0.00000000000E+00  0.45593999997E+02  0.45594000000E+02  0.51100000000E-03 0.  1.
         11   -1    0    0    0    0 -0.00000000000E+00 -0.00000000000E+00 -0.45593999997E+02  0.45594000000E+02  0.51100000000E-03 0. -1.
         23    2    1    2    0    0 -0.17763568394E-14 -0.71054273576E-14  0.00000000000E+00  0.91188000000E+02  0.91188000000E+02 0.  0.
    9900012    2    3    3    0    0  0.12099376522E+02  0.34515428604E+02  0.42509932562E+01  0.54367072967E+02  0.39999974442E+02 0.  0.
        -12    1    3    3    0    0 -0.12099376522E+02 -0.34515428604E+02 -0.42509932562E+01  0.36820927033E+02  0.00000000000E+00 0.  1.
         11    1    4    4    0    0 -0.17437792594E+01  0.21958513353E+02 -0.10118766607E+02  0.24240596376E+02  0.51100000000E-03 0. -1.
        -11    1    4    4    0    0  0.30903019222E+01  0.15236192226E+00 -0.42796781123E+01  0.52809871361E+01  0.51100000000E-03 0.  1.
        -12    1    4    4    0    0  0.10752853859E+02  0.12404553329E+02  0.18649437976E+02  0.24845489454E+02  0.00000000000E+00 0.  1.
</event>
<event>
 8    1  0.1262344E-006  0.9118800E+02  0.7816164E-02  0.1184000E+00
        -11   -1    0    0    0    0  0.00000000000E+00  0.00000000000E+00  0.45593999997E+02  0.45594000000E+02  0.51100000000E-03 0. -1.
         11   -1    0    0    0    0 -0.00000000000E+00 -0.00000000000E+00 -0.45593999997E+02  0.45594000000E+02  0.51100000000E-03 0.  1.
         23    2    1    2    0    0 -0.35527136788E-14  0.00000000000E+00  0.00000000000E+00  0.91188000000E+02  0.91188000000E+02 0.  0.
    9900012    2    3    3    0    0 -0.17761423082E+02 -0.25579052154E+02 -0.19647514873E+02  0.54367069816E+02  0.39999967259E+02 0.  0.
         12    1    3    3    0    0  0.17761423082E+02  0.25579052154E+02  0.19647514873E+02  0.36820930184E+02  0.00000000000E+00 0. -1.
         11    1    4    4    0    0 -0.16156119519E+02 -0.50471455662E+01 -0.21829382617E+01  0.17066314658E+02  0.51100000000E-03 0. -1.
        -11    1    4    4    0    0  0.72841490274E+01 -0.21192366189E+02 -0.17424990184E+02  0.28386713352E+02  0.51100000000E-03 0.  1.
        -12    1    4    4    0    0 -0.88894525899E+01  0.66045960150E+00 -0.39586426911E-01  0.89140418059E+01  0.00000000000E+00 0.  1.
</event>
<event>
 8    1  0.1262344E-006  0.9118800E+02  0.7816164E-02  0.1184000E+00
        -11   -1    0    0    0    0  0.00000000000E+00  0.00000000000E+00  0.45593999997E+02  0.45594000000E+02  0.51100000000E-03 0. -1.
         11   -1    0    0    0    0 -0.00000000000E+00 -0.00000000000E+00 -0.45593999997E+02  0.45594000000E+02  0.51100000000E-03 0.  1.
         23    2    1    2    0    0  0.00000000000E+00  0.00000000000E+00  0.17763568394E-14  0.91188000000E+02  0.91188000000E+02 0.  0.
    9900012    2    3    3    0    0 -0.34009556953E+02 -0.65736220043E+01 -0.12486694645E+02  0.54367081848E+02  0.39999994689E+02 0.  0.
         12    1    3    3    0    0  0.34009556953E+02  0.65736220043E+01  0.12486694645E+02  0.36820918152E+02  0.00000000000E+00 0. -1.
         11    1    4    4    0    0 -0.37102522681E+01 -0.15159835492E+02 -0.13281941500E+02  0.20493817466E+02  0.51100000000E-03 0.  1.
        -11    1    4    4    0    0 -0.25433352476E+02  0.10662049376E+02  0.37213084359E+01  0.27827735298E+02  0.51100000000E-03 0. -1.
        -12    1    4    4    0    0 -0.48659522092E+01 -0.20758358883E+01 -0.29260615815E+01  0.60455290849E+01  0.00000000000E+00 0.  1.
</event>
<event>
 8    1  0.1262344E-006  0.9118800E+02  0.7816164E-02  0.1184000E+00
        -11   -1    0    0    0    0  0.00000000000E+00  0.00000000000E+00  0.45593999997E+02  0.45594000000E+02  0.51100000000E-03 0.  1.
         11   -1    0    0    0    0 -0.00000000000E+00 -0.00000000000E+00 -0.45593999997E+02  0.45594000000E+02  0.51100000000E-03 0. -1.
         23    2    1    2    0    0 -0.35527136788E-14  0.00000000000E+00 -0.35527136788E-14  0.91188000000E+02  0.91188000000E+02 0.  0.
    9900012    2    3    3    0    0  0.27683112866E+02 -0.19693731837E+02 -0.14198011226E+02  0.54367063913E+02  0.39999953802E+02 0.  0.
        -12    1    3    3    0    0 -0.27683112866E+02  0.19693731837E+02  0.14198011226E+02  0.36820936087E+02  0.00000000000E+00 0.  1.
         11    1    4    4    0    0  0.30705718188E+01 -0.64478652726E+01 -0.61707088783E+01  0.94382745345E+01  0.51100000000E-03 0. -1.
        -11    1    4    4    0    0  0.65965312729E+01 -0.13035236119E+02  0.11327149518E+02  0.18486100779E+02  0.51100000000E-03 0.  1.
        -12    1    4    4    0    0  0.18016009774E+02 -0.21063044456E+00 -0.19354451866E+02  0.26442688600E+02  0.00000000000E+00 0.  1.
</event>
<event>
 8    1  0.1262344E-006  0.9118800E+02  0.7816164E-02  0.1184000E+00
        -11   -1    0    0    0    0  0.00000000000E+00  0.00000000000E+00  0.45593999997E+02  0.45594000000E+02  0.51100000000E-03 0.  1.
         11   -1    0    0    0    0 -0.00000000000E+00 -0.00000000000E+00 -0.45593999997E+02  0.45594000000E+02  0.51100000000E-03 0. -1.
         23    2    1    2    0    0  0.00000000000E+00  0.88817841970E-15 -0.12212453271E-14  0.91188000000E+02  0.91188000000E+02 0.  0.
    9900012    2    3    3    0    0 -0.36172312212E+02 -0.68439559103E+01 -0.70998814730E+00  0.54367082216E+02  0.39999995527E+02 0.  0.
        -12    1    3    3    0    0  0.36172312212E+02  0.68439559103E+01  0.70998814730E+00  0.36820917784E+02  0.00000000000E+00 0.  1.
         11    1    4    4    0    0 -0.90042078124E+01 -0.19390023168E+01 -0.73228278780E+00  0.92396821729E+01  0.51100000000E-03 0. -1.
        -11    1    4    4    0    0 -0.24777123729E+02  0.10553482674E+02  0.72590897090E+01  0.27892225449E+02  0.51100000000E-03 0.  1.
        -12    1    4    4    0    0 -0.23909806712E+01 -0.15458436268E+02 -0.72367950685E+01  0.17235174594E+02  0.00000000000E+00 0.  1.
</event>
<event>
 8    1  0.1262344E-006  0.9118800E+02  0.7816164E-02  0.1184000E+00
        -11   -1    0    0    0    0  0.00000000000E+00  0.00000000000E+00  0.45593999997E+02  0.45594000000E+02  0.51100000000E-03 0. -1.
         11   -1    0    0    0    0 -0.00000000000E+00 -0.00000000000E+00 -0.45593999997E+02  0.45594000000E+02  0.51100000000E-03 0.  1.
         23    2    1    2    0    0 -0.17763568394E-14  0.00000000000E+00 -0.35527136788E-14  0.91188000000E+02  0.91188000000E+02 0.  0.
    9900012    2    3    3    0    0 -0.97342562527E+01  0.21048643150E+02 -0.28600316897E+02  0.54367092218E+02  0.40000018330E+02 0.  0.
         12    1    3    3    0    0  0.97342562527E+01 -0.21048643150E+02  0.28600316897E+02  0.36820907782E+02  0.00000000000E+00 0. -1.
         11    1    4    4    0    0 -0.22552508767E+01 -0.74675718477E+01 -0.20597950713E+02  0.22025584206E+02  0.51100000000E-03 0. -1.
        -11    1    4    4    0    0 -0.28331155622E+01  0.85871855367E+01  0.24426014318E+01  0.93665682748E+01  0.51100000000E-03 0.  1.
         12    1    4    4    0    0 -0.46458898138E+01  0.19929029461E+02 -0.10444967616E+02  0.22974939737E+02  0.00000000000E+00 0. -1.
</event>
<event>
 8    1  0.1262344E-006  0.9118800E+02  0.7816164E-02  0.1184000E+00
        -11   -1    0    0    0    0  0.00000000000E+00  0.00000000000E+00  0.45593999997E+02  0.45594000000E+02  0.51100000000E-03 0.  1.
         11   -1    0    0    0    0 -0.00000000000E+00 -0.00000000000E+00 -0.45593999997E+02  0.45594000000E+02  0.51100000000E-03 0. -1.
         23    2    1    2    0    0  0.00000000000E+00  0.00000000000E+00  0.00000000000E+00  0.91188000000E+02  0.91188000000E+02 0.  0.
    9900012    2    3    3    0    0  0.22969343243E+02 -0.25866284253E+02  0.12614479105E+02  0.54367075607E+02  0.39999980460E+02 0.  0.
        -12    1    3    3    0    0 -0.22969343243E+02  0.25866284253E+02 -0.12614479105E+02  0.36820924393E+02  0.00000000000E+00 0.  1.
         11    1    4    4    0    0  0.19423365600E+02 -0.29318522249E+02  0.13756217952E+02  0.37763426893E+02  0.51100000000E-03 0. -1.
        -11    1    4    4    0    0 -0.73593954680E+00  0.25087714180E+01 -0.80263127039E+01  0.84414001757E+01  0.51100000000E-03 0.  1.
         12    1    4    4    0    0  0.42819171897E+01  0.94346657767E+00  0.68845738566E+01  0.81622485376E+01  0.00000000000E+00 0. -1.
</event>
<event>
 8    1  0.1262344E-006  0.9118800E+02  0.7816164E-02  0.1184000E+00
        -11   -1    0    0    0    0  0.00000000000E+00  0.00000000000E+00  0.45593999997E+02  0.45594000000E+02  0.51100000000E-03 0.  1.
         11   -1    0    0    0    0 -0.00000000000E+00 -0.00000000000E+00 -0.45593999997E+02  0.45594000000E+02  0.51100000000E-03 0. -1.
         23    2    1    2    0    0  0.22204460493E-14  0.35527136788E-14 -0.35527136788E-14  0.91188000000E+02  0.91188000000E+02 0.  0.
    9900012    2    3    3    0    0 -0.21809651991E+01 -0.23215016364E+02  0.28497090414E+02  0.54367112503E+02  0.40000064574E+02 0.  0.
         12    1    3    3    0    0  0.21809651991E+01  0.23215016364E+02 -0.28497090414E+02  0.36820887497E+02  0.00000000000E+00 0. -1.
         11    1    4    4    0    0  0.15276263016E+02  0.16529203425E+01  0.87835504442E+01  0.17698788548E+02  0.51100000000E-03 0. -1.
        -11    1    4    4    0    0 -0.95253999485E+01 -0.18225732827E+02  0.13504018949E+02  0.24602217569E+02  0.51100000000E-03 0.  1.
         12    1    4    4    0    0 -0.79318282666E+01 -0.66422038795E+01  0.62095210205E+01  0.12066106387E+02  0.00000000000E+00 0. -1.
</event>
<event>
 8    1  0.1262344E-006  0.9118800E+02  0.7816164E-02  0.1184000E+00
        -11   -1    0    0    0    0  0.00000000000E+00  0.00000000000E+00  0.45593999997E+02  0.45594000000E+02  0.51100000000E-03 0.  1.
         11   -1    0    0    0    0 -0.00000000000E+00 -0.00000000000E+00 -0.45593999997E+02  0.45594000000E+02  0.51100000000E-03 0. -1.
         23    2    1    2    0    0 -0.35527136788E-14  0.00000000000E+00 -0.17763568394E-14  0.91188000000E+02  0.91188000000E+02 0.  0.
    9900012    2    3    3    0    0 -0.24051457216E+02  0.23552809280E+02 -0.14918878822E+02  0.54367077083E+02  0.39999983825E+02 0.  0.
        -12    1    3    3    0    0  0.24051457216E+02 -0.23552809280E+02  0.14918878822E+02  0.36820922917E+02  0.00000000000E+00 0.  1.
         11    1    4    4    0    0  0.73575392732E+01  0.10109450066E+02  0.28878987275E+01  0.12832549400E+02  0.51100000000E-03 0. -1.
        -11    1    4    4    0    0 -0.22470310500E+02  0.16276323510E+02 -0.15855781170E+02  0.31956835853E+02  0.51100000000E-03 0.  1.
        -12    1    4    4    0    0 -0.89386859884E+01 -0.28329642958E+01 -0.19509963800E+01  0.95776918292E+01  0.00000000000E+00 0.  1.
</event>
<event>
 8    1  0.1262344E-006  0.9118800E+02  0.7816164E-02  0.1184000E+00
        -11   -1    0    0    0    0  0.00000000000E+00  0.00000000000E+00  0.45593999997E+02  0.45594000000E+02  0.51100000000E-03 0. -1.
         11   -1    0    0    0    0 -0.00000000000E+00 -0.00000000000E+00 -0.45593999997E+02  0.45594000000E+02  0.51100000000E-03 0.  1.
         23    2    1    2    0    0  0.00000000000E+00 -0.17763568394E-14 -0.88817841970E-15  0.91188000000E+02  0.91188000000E+02 0.  0.
    9900012    2    3    3    0    0  0.34584091516E+02  0.11085161102E+02  0.60695747888E+01  0.54367083108E+02  0.39999997561E+02 0.  0.
        -12    1    3    3    0    0 -0.34584091516E+02 -0.11085161102E+02 -0.60695747888E+01  0.36820916892E+02  0.00000000000E+00 0.  1.
         11    1    4    4    0    0  0.10501788851E+02  0.39984901173E+00  0.14322017244E+02  0.17764223217E+02  0.51100000000E-03 0. -1.
        -11    1    4    4    0    0 -0.21592372740E+01 -0.71691590397E+00  0.46803505163E+01  0.52040325936E+01  0.51100000000E-03 0.  1.
         12    1    4    4    0    0  0.26241539939E+02  0.11402227994E+02 -0.12932792972E+02  0.31398827297E+02  0.00000000000E+00 0. -1.
</event>
<event>
 8    1  0.1262344E-006  0.9118800E+02  0.7816164E-02  0.1184000E+00
        -11   -1    0    0    0    0  0.00000000000E+00  0.00000000000E+00  0.45593999997E+02  0.45594000000E+02  0.51100000000E-03 0.  1.
         11   -1    0    0    0    0 -0.00000000000E+00 -0.00000000000E+00 -0.45593999997E+02  0.45594000000E+02  0.51100000000E-03 0. -1.
         23    2    1    2    0    0  0.00000000000E+00  0.00000000000E+00 -0.35527136788E-14  0.91188000000E+02  0.91188000000E+02 0.  0.
    9900012    2    3    3    0    0 -0.10139223482E+02 -0.16085446074E+02 -0.31531454605E+02  0.54367108407E+02  0.40000055234E+02 0.  0.
        -12    1    3    3    0    0  0.10139223482E+02  0.16085446074E+02  0.31531454605E+02  0.36820891593E+02  0.00000000000E+00 0.  1.
         11    1    4    4    0    0  0.57425716014E+01 -0.16909686730E+02 -0.13835235767E+02  0.22590448931E+02  0.51100000000E-03 0. -1.
        -11    1    4    4    0    0 -0.15174612926E+02  0.71018207955E+01 -0.18994057005E+02  0.25327434490E+02  0.51100000000E-03 0.  1.
        -12    1    4    4    0    0 -0.70718215771E+00 -0.62775801394E+01  0.12978381671E+01  0.64492249859E+01  0.00000000000E+00 0.  1.
</event>
<event>
 8    1  0.1262344E-006  0.9118800E+02  0.7816164E-02  0.1184000E+00
        -11   -1    0    0    0    0  0.00000000000E+00  0.00000000000E+00  0.45593999997E+02  0.45594000000E+02  0.51100000000E-03 0. -1.
         11   -1    0    0    0    0 -0.00000000000E+00 -0.00000000000E+00 -0.45593999997E+02  0.45594000000E+02  0.51100000000E-03 0.  1.
         23    2    1    2    0    0  0.35527136788E-14 -0.35527136788E-14  0.00000000000E+00  0.91188000000E+02  0.91188000000E+02 0.  0.
    9900012    2    3    3    0    0 -0.23142351842E+02  0.18988130719E+02  0.21439733572E+02  0.54367085663E+02  0.40000003386E+02 0.  0.
        -12    1    3    3    0    0  0.23142351842E+02 -0.18988130719E+02 -0.21439733572E+02  0.36820914337E+02  0.00000000000E+00 0.  1.
         11    1    4    4    0    0 -0.15920219923E+02  0.67635156324E+01 -0.29389827229E+00  0.17299853252E+02  0.51100000000E-03 0. -1.
        -11    1    4    4    0    0  0.35288683716E+01  0.34975441492E+01 -0.49444551868E+01  0.70095195567E+01  0.51100000000E-03 0.  1.
        -12    1    4    4    0    0 -0.10751000291E+02  0.87270709377E+01  0.26678087031E+02  0.30057712854E+02  0.00000000000E+00 0.  1.
</event>
<event>
 8    1  0.1262344E-006  0.9118800E+02  0.7816164E-02  0.1184000E+00
        -11   -1    0    0    0    0  0.00000000000E+00  0.00000000000E+00  0.45593999997E+02  0.45594000000E+02  0.51100000000E-03 0.  1.
         11   -1    0    0    0    0 -0.00000000000E+00 -0.00000000000E+00 -0.45593999997E+02  0.45594000000E+02  0.51100000000E-03 0. -1.
         23    2    1    2    0    0  0.00000000000E+00 -0.36082248300E-15 -0.35527136788E-14  0.91188000000E+02  0.91188000000E+02 0.  0.
    9900012    2    3    3    0    0 -0.20782643241E+02  0.15351578074E+00 -0.30394712773E+02  0.54367076712E+02  0.39999982981E+02 0.  0.
        -12    1    3    3    0    0  0.20782643241E+02 -0.15351578074E+00  0.30394712773E+02  0.36820923288E+02  0.00000000000E+00 0.  1.
         11    1    4    4    0    0 -0.31047653454E+02  0.49239164489E+01 -0.16071308163E+02  0.35305646638E+02  0.51100000000E-03 0. -1.
        -11    1    4    4    0    0 -0.45072383210E+00 -0.83184292599E+00 -0.33073060433E+00  0.10022462872E+01  0.51100000000E-03 0.  1.
        -12    1    4    4    0    0  0.10715734045E+02 -0.39385577422E+01 -0.13992674006E+02  0.18059183787E+02  0.00000000000E+00 0.  1.
</event>
<event>
 8    1  0.1262344E-006  0.9118800E+02  0.7816164E-02  0.1184000E+00
        -11   -1    0    0    0    0  0.00000000000E+00  0.00000000000E+00  0.45593999997E+02  0.45594000000E+02  0.51100000000E-03 0.  1.
         11   -1    0    0    0    0 -0.00000000000E+00 -0.00000000000E+00 -0.45593999997E+02  0.45594000000E+02  0.51100000000E-03 0. -1.
         23    2    1    2    0    0  0.00000000000E+00  0.00000000000E+00 -0.17763568394E-14  0.91188000000E+02  0.91188000000E+02 0.  0.
    9900012    2    3    3    0    0  0.51340987602E+01 -0.33422302736E+02 -0.14572942653E+02  0.54367082741E+02  0.39999996724E+02 0.  0.
        -12    1    3    3    0    0 -0.51340987602E+01  0.33422302736E+02  0.14572942653E+02  0.36820917259E+02  0.00000000000E+00 0.  1.
         11    1    4    4    0    0  0.71086422649E+01 -0.10323135876E+02 -0.22931159416E+02  0.26133082512E+02  0.51100000000E-03 0. -1.
        -11    1    4    4    0    0  0.49612451554E+01 -0.57993255548E+01 -0.39584679859E+00  0.76421741233E+01  0.51100000000E-03 0.  1.
         12    1    4    4    0    0 -0.69357886601E+01 -0.17299841305E+02  0.87540635615E+01  0.20591826105E+02  0.00000000000E+00 0. -1.
</event>
<event>
 8    1  0.1262344E-006  0.9118800E+02  0.7816164E-02  0.1184000E+00
        -11   -1    0    0    0    0  0.00000000000E+00  0.00000000000E+00  0.45593999997E+02  0.45594000000E+02  0.51100000000E-03 0. -1.
         11   -1    0    0    0    0 -0.00000000000E+00 -0.00000000000E+00 -0.45593999997E+02  0.45594000000E+02  0.51100000000E-03 0.  1.
         23    2    1    2    0    0 -0.17763568394E-14  0.00000000000E+00  0.00000000000E+00  0.91188000000E+02  0.91188000000E+02 0.  0.
    9900012    2    3    3    0    0 -0.60631861248E+01  0.29488219713E+02  0.21200540233E+02  0.54367078854E+02  0.39999987864E+02 0.  0.
        -12    1    3    3    0    0  0.60631861248E+01 -0.29488219713E+02 -0.21200540233E+02  0.36820921146E+02  0.00000000000E+00 0.  1.
         11    1    4    4    0    0 -0.20556815405E+02  0.20819338600E+02  0.11102990010E+02  0.31293831769E+02  0.51100000000E-03 0. -1.
        -11    1    4    4    0    0  0.12250647464E+02  0.74205791703E+01  0.18576790912E+01  0.14442795103E+02  0.51100000000E-03 0.  1.
         12    1    4    4    0    0  0.22429818165E+01  0.12483019431E+01  0.82398711312E+01  0.86304519829E+01  0.00000000000E+00 0. -1.
</event>
<event>
 8    1  0.1262344E-006  0.9118800E+02  0.7816164E-02  0.1184000E+00
        -11   -1    0    0    0    0  0.00000000000E+00  0.00000000000E+00  0.45593999997E+02  0.45594000000E+02  0.51100000000E-03 0. -1.
         11   -1    0    0    0    0 -0.00000000000E+00 -0.00000000000E+00 -0.45593999997E+02  0.45594000000E+02  0.51100000000E-03 0.  1.
         23    2    1    2    0    0  0.71054273576E-14 -0.44408920985E-15  0.00000000000E+00  0.91188000000E+02  0.91188000000E+02 0.  0.
    9900012    2    3    3    0    0  0.17742356539E+02 -0.31209424315E+01 -0.32112985064E+02  0.54367145760E+02  0.40000140390E+02 0.  0.
         12    1    3    3    0    0 -0.17742356539E+02  0.31209424315E+01  0.32112985064E+02  0.36820854240E+02  0.00000000000E+00 0. -1.
         11    1    4    4    0    0 -0.23346660204E+01  0.46080478355E+01 -0.59186259910E-01  0.51660694493E+01  0.51100000000E-03 0. -1.
        -11    1    4    4    0    0 -0.52720988258E+01 -0.63850218290E+00 -0.19175753941E+02  0.19897543831E+02  0.51100000000E-03 0.  1.
         12    1    4    4    0    0  0.25349121386E+02 -0.70904880840E+01 -0.12878044863E+02  0.29303532480E+02  0.00000000000E+00 0. -1.
</event>
<event>
 8    1  0.1262344E-006  0.9118800E+02  0.7816164E-02  0.1184000E+00
        -11   -1    0    0    0    0  0.00000000000E+00  0.00000000000E+00  0.45593999997E+02  0.45594000000E+02  0.51100000000E-03 0.  1.
         11   -1    0    0    0    0 -0.00000000000E+00 -0.00000000000E+00 -0.45593999997E+02  0.45594000000E+02  0.51100000000E-03 0. -1.
         23    2    1    2    0    0 -0.88817841970E-15 -0.71054273576E-14 -0.17763568394E-14  0.91188000000E+02  0.91188000000E+02 0.  0.
    9900012    2    3    3    0    0 -0.36781422565E+01  0.34509832140E+02 -0.12301379010E+02  0.54367066139E+02  0.39999958878E+02 0.  0.
        -12    1    3    3    0    0  0.36781422565E+01 -0.34509832140E+02  0.12301379010E+02  0.36820933861E+02  0.00000000000E+00 0.  1.
         11    1    4    4    0    0 -0.99038813614E+01  0.11067185813E+02  0.93099893389E+01  0.17528416061E+02  0.51100000000E-03 0. -1.
        -11    1    4    4    0    0 -0.51969227280E+01  0.27293256240E+01 -0.23071085364E+01  0.63071367721E+01  0.51100000000E-03 0.  1.
         12    1    4    4    0    0  0.11422661833E+02  0.20713320703E+02 -0.19304259812E+02  0.30531513307E+02  0.00000000000E+00 0. -1.
</event>
<event>
 8    1  0.1262344E-006  0.9118800E+02  0.7816164E-02  0.1184000E+00
        -11   -1    0    0    0    0  0.00000000000E+00  0.00000000000E+00  0.45593999997E+02  0.45594000000E+02  0.51100000000E-03 0.  1.
         11   -1    0    0    0    0 -0.00000000000E+00 -0.00000000000E+00 -0.45593999997E+02  0.45594000000E+02  0.51100000000E-03 0. -1.
         23    2    1    2    0    0  0.00000000000E+00  0.00000000000E+00 -0.88817841970E-15  0.91188000000E+02  0.91188000000E+02 0.  0.
    9900012    2    3    3    0    0  0.16736429446E+02  0.32124932901E+02 -0.66076542183E+01  0.54367075531E+02  0.39999980289E+02 0.  0.
         12    1    3    3    0    0 -0.16736429446E+02 -0.32124932901E+02  0.66076542183E+01  0.36820924469E+02  0.00000000000E+00 0. -1.
         11    1    4    4    0    0  0.51743888443E+01  0.17185178442E+02 -0.84967094006E+01  0.19856956688E+02  0.51100000000E-03 0. -1.
        -11    1    4    4    0    0 -0.32021391997E+01  0.13302664981E+02  0.10583457317E+02  0.17298097008E+02  0.51100000000E-03 0.  1.
         12    1    4    4    0    0  0.14764179801E+02  0.16370894770E+01 -0.86944021350E+01  0.17212021835E+02  0.00000000000E+00 0. -1.
</event>
<event>
 8    1  0.1262344E-006  0.9118800E+02  0.7816164E-02  0.1184000E+00
        -11   -1    0    0    0    0  0.00000000000E+00  0.00000000000E+00  0.45593999997E+02  0.45594000000E+02  0.51100000000E-03 0. -1.
         11   -1    0    0    0    0 -0.00000000000E+00 -0.00000000000E+00 -0.45593999997E+02  0.45594000000E+02  0.51100000000E-03 0.  1.
         23    2    1    2    0    0  0.00000000000E+00  0.00000000000E+00  0.17763568394E-14  0.91188000000E+02  0.91188000000E+02 0.  0.
    9900012    2    3    3    0    0  0.25827731137E+02  0.21192025298E+02  0.15479216974E+02  0.54367084882E+02  0.40000001607E+02 0.  0.
        -12    1    3    3    0    0 -0.25827731137E+02 -0.21192025298E+02 -0.15479216974E+02  0.36820915118E+02  0.00000000000E+00 0.  1.
         11    1    4    4    0    0  0.15938333626E+02 -0.87945930115E+01  0.99849365015E+01  0.20762328920E+02  0.51100000000E-03 0. -1.
        -11    1    4    4    0    0  0.77397714959E+01  0.99399339318E+01 -0.38390825098E+00  0.12603719101E+02  0.51100000000E-03 0.  1.
         12    1    4    4    0    0  0.21496260159E+01  0.20046684378E+02  0.58781887240E+01  0.21001036861E+02  0.00000000000E+00 0. -1.
</event>
<event>
 8    1  0.1262344E-006  0.9118800E+02  0.7816164E-02  0.1184000E+00
        -11   -1    0    0    0    0  0.00000000000E+00  0.00000000000E+00  0.45593999997E+02  0.45594000000E+02  0.51100000000E-03 0.  1.
         11   -1    0    0    0    0 -0.00000000000E+00 -0.00000000000E+00 -0.45593999997E+02  0.45594000000E+02  0.51100000000E-03 0. -1.
         23    2    1    2    0    0 -0.44408920985E-15  0.00000000000E+00  0.71054273576E-14  0.91188000000E+02  0.91188000000E+02 0.  0.
    9900012    2    3    3    0    0 -0.19966373335E+01 -0.72844875991E+01 -0.36037885038E+02  0.54367089117E+02  0.40000011261E+02 0.  0.
        -12    1    3    3    0    0  0.19966373335E+01  0.72844875991E+01  0.36037885038E+02  0.36820910883E+02  0.00000000000E+00 0.  1.
         11    1    4    4    0    0  0.38773616663E+01 -0.43026670479E+01  0.58333799653E+01  0.82204135722E+01  0.51100000000E-03 0.  1.
        -11    1    4    4    0    0 -0.98060509898E+01 -0.79308162336E+01 -0.22805744857E+02  0.26060669233E+02  0.51100000000E-03 0. -1.
         12    1    4    4    0    0  0.39320519900E+01  0.49489956824E+01 -0.19065520146E+02  0.20086006312E+02  0.00000000000E+00 0. -1.
</event>
<event>
 8    1  0.1262344E-006  0.9118800E+02  0.7816164E-02  0.1184000E+00
        -11   -1    0    0    0    0  0.00000000000E+00  0.00000000000E+00  0.45593999997E+02  0.45594000000E+02  0.51100000000E-03 0.  1.
         11   -1    0    0    0    0 -0.00000000000E+00 -0.00000000000E+00 -0.45593999997E+02  0.45594000000E+02  0.51100000000E-03 0. -1.
         23    2    1    2    0    0 -0.17763568394E-14  0.35527136788E-14 -0.71054273576E-14  0.91188000000E+02  0.91188000000E+02 0.  0.
    9900012    2    3    3    0    0 -0.39236017717E+01  0.24762386964E+02 -0.26966820464E+02  0.54367083866E+02  0.39999999290E+02 0.  0.
        -12    1    3    3    0    0  0.39236017717E+01 -0.24762386964E+02  0.26966820464E+02  0.36820916134E+02  0.00000000000E+00 0.  1.
         11    1    4    4    0    0  0.22727253665E+01 -0.36338438924E+01  0.12945153708E+01  0.44772617002E+01  0.51100000000E-03 0. -1.
        -11    1    4    4    0    0 -0.26892069552E+01 -0.34040127065E+01  0.29086908022E+01  0.52229894694E+01  0.51100000000E-03 0.  1.
         12    1    4    4    0    0 -0.35071201830E+01  0.31800243563E+02 -0.31170026637E+02  0.44666832697E+02  0.00000000000E+00 0. -1.
</event>
<event>
 8    1  0.1262344E-006  0.9118800E+02  0.7816164E-02  0.1184000E+00
        -11   -1    0    0    0    0  0.00000000000E+00  0.00000000000E+00  0.45593999997E+02  0.45594000000E+02  0.51100000000E-03 0.  1.
         11   -1    0    0    0    0 -0.00000000000E+00 -0.00000000000E+00 -0.45593999997E+02  0.45594000000E+02  0.51100000000E-03 0. -1.
         23    2    1    2    0    0  0.00000000000E+00 -0.17763568394E-14  0.00000000000E+00  0.91188000000E+02  0.91188000000E+02 0.  0.
    9900012    2    3    3    0    0 -0.15441494901E+01 -0.12024810858E+02 -0.34767601825E+02  0.54367263852E+02  0.40000409602E+02 0.  0.
        -12    1    3    3    0    0  0.15441494901E+01  0.12024810858E+02  0.34767601825E+02  0.36820736148E+02  0.00000000000E+00 0.  1.
         11    1    4    4    0    0 -0.56948964663E+01 -0.83212200129E+01 -0.51328773303E+01  0.11314635576E+02  0.51100000000E-03 0. -1.
        -11    1    4    4    0    0  0.16402937513E+02 -0.79951136942E+01 -0.17230008040E+02  0.25096840028E+02  0.51100000000E-03 0.  1.
         12    1    4    4    0    0 -0.12252190537E+02  0.42915228491E+01 -0.12404716454E+02  0.17955788249E+02  0.00000000000E+00 0. -1.
</event>
<event>
 8    1  0.1262344E-006  0.9118800E+02  0.7816164E-02  0.1184000E+00
        -11   -1    0    0    0    0  0.00000000000E+00  0.00000000000E+00  0.45593999997E+02  0.45594000000E+02  0.51100000000E-03 0.  1.
         11   -1    0    0    0    0 -0.00000000000E+00 -0.00000000000E+00 -0.45593999997E+02  0.45594000000E+02  0.51100000000E-03 0. -1.
         23    2    1    2    0    0  0.00000000000E+00  0.11102230246E-15  0.00000000000E+00  0.91188000000E+02  0.91188000000E+02 0.  0.
    9900012    2    3    3    0    0  0.23769835273E+02  0.61327491099E+00  0.28114028117E+02  0.54367085400E+02  0.40000002787E+02 0.  0.
         12    1    3    3    0    0 -0.23769835273E+02 -0.61327491099E+00 -0.28114028117E+02  0.36820914600E+02  0.00000000000E+00 0. -1.
         11    1    4    4    0    0  0.34912487840E+01  0.70914901374E+01  0.70623063880E+00  0.79357931184E+01  0.51100000000E-03 0. -1.
        -11    1    4    4    0    0 -0.11045242770E+01  0.10041036466E+02  0.47254404782E+01  0.11152227363E+02  0.51100000000E-03 0.  1.
        -12    1    4    4    0    0  0.21383110766E+02 -0.16519251692E+02  0.22682357000E+02  0.35279064919E+02  0.00000000000E+00 0.  1.
</event>
<event>
 8    1  0.1262344E-006  0.9118800E+02  0.7816164E-02  0.1184000E+00
        -11   -1    0    0    0    0  0.00000000000E+00  0.00000000000E+00  0.45593999997E+02  0.45594000000E+02  0.51100000000E-03 0. -1.
         11   -1    0    0    0    0 -0.00000000000E+00 -0.00000000000E+00 -0.45593999997E+02  0.45594000000E+02  0.51100000000E-03 0.  1.
         23    2    1    2    0    0 -0.17763568394E-14  0.00000000000E+00  0.71054273576E-14  0.91188000000E+02  0.91188000000E+02 0.  0.
    9900012    2    3    3    0    0 -0.94073927803E+01 -0.80966052424E+01  0.34665918684E+02  0.54367082391E+02  0.39999995926E+02 0.  0.
        -12    1    3    3    0    0  0.94073927803E+01  0.80966052424E+01 -0.34665918684E+02  0.36820917609E+02  0.00000000000E+00 0.  1.
         11    1    4    4    0    0 -0.15877219269E+01 -0.99408778798E+01  0.30336022683E+02  0.31962731210E+02  0.51100000000E-03 0. -1.
        -11    1    4    4    0    0  0.17534020766E+00  0.29874635263E+01 -0.75031161363E+01  0.80778979026E+01  0.51100000000E-03 0.  1.
        -12    1    4    4    0    0 -0.79950110610E+01 -0.11431908890E+01  0.11833012137E+02  0.14326453278E+02  0.00000000000E+00 0.  1.
</event>
<event>
 8    1  0.1262344E-006  0.9118800E+02  0.7816164E-02  0.1184000E+00
        -11   -1    0    0    0    0  0.00000000000E+00  0.00000000000E+00  0.45593999997E+02  0.45594000000E+02  0.51100000000E-03 0. -1.
         11   -1    0    0    0    0 -0.00000000000E+00 -0.00000000000E+00 -0.45593999997E+02  0.45594000000E+02  0.51100000000E-03 0.  1.
         23    2    1    2    0    0  0.00000000000E+00  0.00000000000E+00  0.00000000000E+00  0.91188000000E+02  0.91188000000E+02 0.  0.
    9900012    2    3    3    0    0  0.47592137410E+01 -0.32236218039E+02 -0.17145140054E+02  0.54367086156E+02  0.40000004509E+02 0.  0.
         12    1    3    3    0    0 -0.47592137410E+01  0.32236218039E+02  0.17145140054E+02  0.36820913844E+02  0.00000000000E+00 0. -1.
         11    1    4    4    0    0  0.77431109199E+00 -0.18115222728E+02  0.11410083343E+02  0.21423138293E+02  0.51100000000E-03 0. -1.
        -11    1    4    4    0    0 -0.12697234200E+01 -0.20826405495E+01 -0.94448974357E+01  0.97547771401E+01  0.51100000000E-03 0.  1.
        -12    1    4    4    0    0  0.52546260691E+01 -0.12038354761E+02 -0.19110325961E+02  0.23189170723E+02  0.00000000000E+00 0.  1.
</event>
<event>
 8    1  0.1262344E-006  0.9118800E+02  0.7816164E-02  0.1184000E+00
        -11   -1    0    0    0    0  0.00000000000E+00  0.00000000000E+00  0.45593999997E+02  0.45594000000E+02  0.51100000000E-03 0. -1.
         11   -1    0    0    0    0 -0.00000000000E+00 -0.00000000000E+00 -0.45593999997E+02  0.45594000000E+02  0.51100000000E-03 0.  1.
         23    2    1    2    0    0 -0.35527136788E-14  0.00000000000E+00  0.00000000000E+00  0.91188000000E+02  0.91188000000E+02 0.  0.
    9900012    2    3    3    0    0 -0.29151308230E+02  0.22367493249E+02 -0.23825254175E+01  0.54367082669E+02  0.39999996559E+02 0.  0.
         12    1    3    3    0    0  0.29151308230E+02 -0.22367493249E+02  0.23825254175E+01  0.36820917331E+02  0.00000000000E+00 0. -1.
         11    1    4    4    0    0 -0.13383603000E+02  0.40146382395E+01 -0.85283493072E+00  0.13998766987E+02  0.51100000000E-03 0. -1.
        -11    1    4    4    0    0 -0.25468717030E+02  0.10702907333E+02  0.14339854553E+01  0.27663407005E+02  0.51100000000E-03 0.  1.
         12    1    4    4    0    0  0.97010118008E+01  0.76499476763E+01 -0.29636759421E+01  0.12704908677E+02  0.00000000000E+00 0. -1.
</event>
<event>
 8    1  0.1262344E-006  0.9118800E+02  0.7816164E-02  0.1184000E+00
        -11   -1    0    0    0    0  0.00000000000E+00  0.00000000000E+00  0.45593999997E+02  0.45594000000E+02  0.51100000000E-03 0.  1.
         11   -1    0    0    0    0 -0.00000000000E+00 -0.00000000000E+00 -0.45593999997E+02  0.45594000000E+02  0.51100000000E-03 0. -1.
         23    2    1    2    0    0  0.35527136788E-14 -0.26645352591E-14  0.00000000000E+00  0.91188000000E+02  0.91188000000E+02 0.  0.
    9900012    2    3    3    0    0  0.12275440705E+02 -0.55894941957E+01  0.34261530073E+02  0.54367063934E+02  0.39999953850E+02 0.  0.
         12    1    3    3    0    0 -0.12275440705E+02  0.55894941957E+01 -0.34261530073E+02  0.36820936066E+02  0.00000000000E+00 0. -1.
         11    1    4    4    0    0  0.16465583989E+02  0.10660905283E+02  0.25284003674E+02  0.32000799984E+02  0.51100000000E-03 0. -1.
        -11    1    4    4    0    0  0.20285014423E+01  0.73095869734E+00  0.21249309447E+01  0.30272843440E+01  0.51100000000E-03 0.  1.
        -12    1    4    4    0    0 -0.62186447262E+01 -0.16981358176E+02  0.68525954539E+01  0.19338979606E+02  0.00000000000E+00 0.  1.
</event>
<event>
 8    1  0.1262344E-006  0.9118800E+02  0.7816164E-02  0.1184000E+00
        -11   -1    0    0    0    0  0.00000000000E+00  0.00000000000E+00  0.45593999997E+02  0.45594000000E+02  0.51100000000E-03 0.  1.
         11   -1    0    0    0    0 -0.00000000000E+00 -0.00000000000E+00 -0.45593999997E+02  0.45594000000E+02  0.51100000000E-03 0. -1.
         23    2    1    2    0    0 -0.17763568394E-14  0.00000000000E+00 -0.35527136788E-14  0.91188000000E+02  0.91188000000E+02 0.  0.
    9900012    2    3    3    0    0  0.14179899937E+02  0.25175001592E+02  0.22823934350E+02  0.54367051525E+02  0.39999925561E+02 0.  0.
         12    1    3    3    0    0 -0.14179899937E+02 -0.25175001592E+02 -0.22823934350E+02  0.36820948475E+02  0.00000000000E+00 0. -1.
         11    1    4    4    0    0 -0.16072677065E+01 -0.59118848393E+01  0.12282434689E+02  0.13725592664E+02  0.51100000000E-03 0. -1.
        -11    1    4    4    0    0  0.60775698014E+01  0.96756587968E+00 -0.21879988266E+01  0.65314912194E+01  0.51100000000E-03 0.  1.
        -12    1    4    4    0    0  0.97095978424E+01  0.30119320552E+02  0.12729498487E+02  0.34109967642E+02  0.00000000000E+00 0.  1.
</event>
<event>
 8    1  0.1262344E-006  0.9118800E+02  0.7816164E-02  0.1184000E+00
        -11   -1    0    0    0    0  0.00000000000E+00  0.00000000000E+00  0.45593999997E+02  0.45594000000E+02  0.51100000000E-03 0. -1.
         11   -1    0    0    0    0 -0.00000000000E+00 -0.00000000000E+00 -0.45593999997E+02  0.45594000000E+02  0.51100000000E-03 0.  1.
         23    2    1    2    0    0  0.00000000000E+00 -0.35527136788E-14  0.00000000000E+00  0.91188000000E+02  0.91188000000E+02 0.  0.
    9900012    2    3    3    0    0  0.21322566672E+02 -0.22588710461E+02  0.19770626200E+02  0.54367090857E+02  0.40000015226E+02 0.  0.
        -12    1    3    3    0    0 -0.21322566672E+02  0.22588710461E+02 -0.19770626200E+02  0.36820909143E+02  0.00000000000E+00 0.  1.
         11    1    4    4    0    0 -0.47164201366E+01 -0.35597032875E+01  0.13995701057E+02  0.15191963492E+02  0.51100000000E-03 0. -1.
        -11    1    4    4    0    0  0.39678638750E+01  0.48133980433E+01  0.13857685796E+01  0.63900781897E+01  0.51100000000E-03 0.  1.
        -12    1    4    4    0    0  0.22071122933E+02 -0.23842405217E+02  0.43891565634E+01  0.32785049175E+02  0.00000000000E+00 0.  1.
</event>
<event>
 8    1  0.1262344E-006  0.9118800E+02  0.7816164E-02  0.1184000E+00
        -11   -1    0    0    0    0  0.00000000000E+00  0.00000000000E+00  0.45593999997E+02  0.45594000000E+02  0.51100000000E-03 0.  1.
         11   -1    0    0    0    0 -0.00000000000E+00 -0.00000000000E+00 -0.45593999997E+02  0.45594000000E+02  0.51100000000E-03 0. -1.
         23    2    1    2    0    0  0.00000000000E+00  0.17763568394E-14 -0.71054273576E-14  0.91188000000E+02  0.91188000000E+02 0.  0.
    9900012    2    3    3    0    0  0.12791024359E+02  0.10308579584E+02 -0.32953049488E+02  0.54367074051E+02  0.39999976914E+02 0.  0.
        -12    1    3    3    0    0 -0.12791024359E+02 -0.10308579584E+02  0.32953049488E+02  0.36820925949E+02  0.00000000000E+00 0.  1.
         11    1    4    4    0    0  0.10743131723E+02 -0.60784424547E+01 -0.26593715324E+02  0.29318731843E+02  0.51100000000E-03 0. -1.
        -11    1    4    4    0    0 -0.34953566839E+01 -0.26545721491E+01 -0.13767104434E+01  0.45999569073E+01  0.51100000000E-03 0.  1.
        -12    1    4    4    0    0  0.55432493200E+01  0.19041594188E+02 -0.49826237199E+01  0.20448385300E+02  0.00000000000E+00 0.  1.
</event>
<event>
 8    1  0.1262344E-006  0.9118800E+02  0.7816164E-02  0.1184000E+00
        -11   -1    0    0    0    0  0.00000000000E+00  0.00000000000E+00  0.45593999997E+02  0.45594000000E+02  0.51100000000E-03 0. -1.
         11   -1    0    0    0    0 -0.00000000000E+00 -0.00000000000E+00 -0.45593999997E+02  0.45594000000E+02  0.51100000000E-03 0.  1.
         23    2    1    2    0    0  0.00000000000E+00  0.00000000000E+00 -0.35527136788E-14  0.91188000000E+02  0.91188000000E+02 0.  0.
    9900012    2    3    3    0    0 -0.26194857626E+02  0.18061169876E+02  0.18531170168E+02  0.54367072647E+02  0.39999973714E+02 0.  0.
        -12    1    3    3    0    0  0.26194857626E+02 -0.18061169876E+02 -0.18531170168E+02  0.36820927353E+02  0.00000000000E+00 0.  1.
         11    1    4    4    0    0 -0.17112719003E+02  0.19537026596E+02  0.22652895647E+02  0.34462940114E+02  0.51100000000E-03 0. -1.
        -11    1    4    4    0    0  0.35194791189E+01  0.43363765193E+01 -0.88954505948E+00  0.56552794148E+01  0.51100000000E-03 0.  1.
         12    1    4    4    0    0 -0.12601617742E+02 -0.58122332386E+01 -0.32321804194E+01  0.14248853119E+02  0.00000000000E+00 0. -1.
</event>
<event>
 8    1  0.1262344E-006  0.9118800E+02  0.7816164E-02  0.1184000E+00
        -11   -1    0    0    0    0  0.00000000000E+00  0.00000000000E+00  0.45593999997E+02  0.45594000000E+02  0.51100000000E-03 0. -1.
         11   -1    0    0    0    0 -0.00000000000E+00 -0.00000000000E+00 -0.45593999997E+02  0.45594000000E+02  0.51100000000E-03 0.  1.
         23    2    1    2    0    0 -0.35527136788E-14  0.88817841970E-15 -0.35527136788E-14  0.91188000000E+02  0.91188000000E+02 0.  0.
    9900012    2    3    3    0    0  0.30816718535E+02 -0.42057988188E+01  0.19708376855E+02  0.54367095568E+02  0.40000025965E+02 0.  0.
        -12    1    3    3    0    0 -0.30816718535E+02  0.42057988188E+01 -0.19708376855E+02  0.36820904432E+02  0.00000000000E+00 0.  1.
         11    1    4    4    0    0  0.26746274896E+01 -0.45434794625E+01  0.32976464258E+01  0.62186260576E+01  0.51100000000E-03 0. -1.
        -11    1    4    4    0    0 -0.49239313342E+01 -0.34176562260E+01 -0.56377183366E+01  0.82285686585E+01  0.51100000000E-03 0.  1.
         12    1    4    4    0    0  0.33066022379E+02  0.37553368697E+01  0.22048448766E+02  0.39919900851E+02  0.00000000000E+00 0. -1.
</event>
<event>
 8    1  0.1262344E-006  0.9118800E+02  0.7816164E-02  0.1184000E+00
        -11   -1    0    0    0    0  0.00000000000E+00  0.00000000000E+00  0.45593999997E+02  0.45594000000E+02  0.51100000000E-03 0.  1.
         11   -1    0    0    0    0 -0.00000000000E+00 -0.00000000000E+00 -0.45593999997E+02  0.45594000000E+02  0.51100000000E-03 0. -1.
         23    2    1    2    0    0  0.00000000000E+00  0.71054273576E-14  0.17763568394E-14  0.91188000000E+02  0.91188000000E+02 0.  0.
    9900012    2    3    3    0    0  0.15114592370E+02 -0.30371342824E+02 -0.14314700427E+02  0.54367081818E+02  0.39999994620E+02 0.  0.
        -12    1    3    3    0    0 -0.15114592370E+02  0.30371342824E+02  0.14314700427E+02  0.36820918182E+02  0.00000000000E+00 0.  1.
         11    1    4    4    0    0  0.23700713573E+01 -0.25541409282E+01 -0.76569690198E+01  0.84124936227E+01  0.51100000000E-03 0. -1.
        -11    1    4    4    0    0  0.55990037578E+01 -0.67058917013E+01 -0.18686683059E+02  0.20627892539E+02  0.51100000000E-03 0.  1.
        -12    1    4    4    0    0  0.71455172554E+01 -0.21111310195E+02  0.12028951652E+02  0.25326695656E+02  0.00000000000E+00 0.  1.
</event>
<event>
 8    1  0.1262344E-006  0.9118800E+02  0.7816164E-02  0.1184000E+00
        -11   -1    0    0    0    0  0.00000000000E+00  0.00000000000E+00  0.45593999997E+02  0.45594000000E+02  0.51100000000E-03 0. -1.
         11   -1    0    0    0    0 -0.00000000000E+00 -0.00000000000E+00 -0.45593999997E+02  0.45594000000E+02  0.51100000000E-03 0.  1.
         23    2    1    2    0    0  0.00000000000E+00  0.00000000000E+00  0.44408920985E-15  0.91188000000E+02  0.91188000000E+02 0.  0.
    9900012    2    3    3    0    0  0.35257073531E+02  0.98985280746E+01 -0.38388983954E+01  0.54367092449E+02  0.40000018855E+02 0.  0.
         12    1    3    3    0    0 -0.35257073531E+02 -0.98985280746E+01  0.38388983954E+01  0.36820907551E+02  0.00000000000E+00 0. -1.
         11    1    4    4    0    0  0.27470253587E+02  0.65391355276E+01  0.20932199990E+01  0.28315308506E+02  0.51100000000E-03 0.  1.
        -11    1    4    4    0    0  0.10953553811E+02  0.78946229333E+01  0.45097704859E+01  0.14235288632E+02  0.51100000000E-03 0. -1.
         12    1    4    4    0    0 -0.31667338665E+01 -0.45352303863E+01 -0.10441888880E+02  0.11816495311E+02  0.00000000000E+00 0. -1.
</event>
<event>
 8    1  0.1262344E-006  0.9118800E+02  0.7816164E-02  0.1184000E+00
        -11   -1    0    0    0    0  0.00000000000E+00  0.00000000000E+00  0.45593999997E+02  0.45594000000E+02  0.51100000000E-03 0. -1.
         11   -1    0    0    0    0 -0.00000000000E+00 -0.00000000000E+00 -0.45593999997E+02  0.45594000000E+02  0.51100000000E-03 0.  1.
         23    2    1    2    0    0  0.00000000000E+00  0.17763568394E-14  0.88817841970E-15  0.91188000000E+02  0.91188000000E+02 0.  0.
    9900012    2    3    3    0    0 -0.34940140814E+02  0.10023094308E+02 -0.58743211388E+01  0.54367034390E+02  0.39999886499E+02 0.  0.
         12    1    3    3    0    0  0.34940140814E+02 -0.10023094308E+02  0.58743211388E+01  0.36820965610E+02  0.00000000000E+00 0. -1.
         11    1    4    4    0    0 -0.29297439982E+02  0.85826037597E+01 -0.13438666483E+02  0.33355641710E+02  0.51100000000E-03 0.  1.
        -11    1    4    4    0    0  0.35125186541E+01  0.38549880434E+00 -0.45683408452E+01  0.57754770334E+01  0.51100000000E-03 0. -1.
        -12    1    4    4    0    0 -0.91552194863E+01  0.10549917441E+01  0.12132686189E+02  0.15235915647E+02  0.00000000000E+00 0.  1.
</event>
<event>
 8    1  0.1262344E-006  0.9118800E+02  0.7816164E-02  0.1184000E+00
        -11   -1    0    0    0    0  0.00000000000E+00  0.00000000000E+00  0.45593999997E+02  0.45594000000E+02  0.51100000000E-03 0. -1.
         11   -1    0    0    0    0 -0.00000000000E+00 -0.00000000000E+00 -0.45593999997E+02  0.45594000000E+02  0.51100000000E-03 0.  1.
         23    2    1    2    0    0 -0.71054273576E-14  0.35527136788E-14  0.00000000000E+00  0.91188000000E+02  0.91188000000E+02 0.  0.
    9900012    2    3    3    0    0 -0.26733198992E+02 -0.18110476044E+02  0.17695395432E+02  0.54367078089E+02  0.39999986120E+02 0.  0.
        -12    1    3    3    0    0  0.26733198992E+02  0.18110476044E+02 -0.17695395432E+02  0.36820921911E+02  0.00000000000E+00 0.  1.
         11    1    4    4    0    0  0.30993880235E+01 -0.25455354575E+01  0.22591887043E+01  0.46032478478E+01  0.51100000000E-03 0. -1.
        -11    1    4    4    0    0 -0.38480086282E+01 -0.20005142901E+02  0.10593096704E+02  0.22961415700E+02  0.51100000000E-03 0.  1.
        -12    1    4    4    0    0 -0.25984578387E+02  0.44402023152E+01  0.48431100231E+01  0.26802414542E+02  0.00000000000E+00 0.  1.
</event>
<event>
 8    1  0.1262344E-006  0.9118800E+02  0.7816164E-02  0.1184000E+00
        -11   -1    0    0    0    0  0.00000000000E+00  0.00000000000E+00  0.45593999997E+02  0.45594000000E+02  0.51100000000E-03 0. -1.
         11   -1    0    0    0    0 -0.00000000000E+00 -0.00000000000E+00 -0.45593999997E+02  0.45594000000E+02  0.51100000000E-03 0.  1.
         23    2    1    2    0    0  0.00000000000E+00 -0.88817841970E-15 -0.71054273576E-14  0.91188000000E+02  0.91188000000E+02 0.  0.
    9900012    2    3    3    0    0  0.14874479797E+02  0.27014195097E+01  0.33574268970E+02  0.54367090811E+02  0.40000015123E+02 0.  0.
        -12    1    3    3    0    0 -0.14874479797E+02 -0.27014195097E+01 -0.33574268970E+02  0.36820909189E+02  0.00000000000E+00 0.  1.
         11    1    4    4    0    0  0.54739179229E+01  0.69175186379E+01  0.65976966334E+01  0.11015690748E+02  0.51100000000E-03 0. -1.
        -11    1    4    4    0    0 -0.50954802775E+01  0.55211990669E+01 -0.34517736513E+01  0.82681497323E+01  0.51100000000E-03 0.  1.
         12    1    4    4    0    0  0.14496042152E+02 -0.97372981951E+01  0.30428345988E+02  0.35083250331E+02  0.00000000000E+00 0. -1.
</event>
<event>
 8    1  0.1262344E-006  0.9118800E+02  0.7816164E-02  0.1184000E+00
        -11   -1    0    0    0    0  0.00000000000E+00  0.00000000000E+00  0.45593999997E+02  0.45594000000E+02  0.51100000000E-03 0.  1.
         11   -1    0    0    0    0 -0.00000000000E+00 -0.00000000000E+00 -0.45593999997E+02  0.45594000000E+02  0.51100000000E-03 0. -1.
         23    2    1    2    0    0  0.00000000000E+00  0.71054273576E-14  0.17763568394E-14  0.91188000000E+02  0.91188000000E+02 0.  0.
    9900012    2    3    3    0    0  0.66882244465E+01  0.33284531598E+02  0.14254327910E+02  0.54367105740E+02  0.40000049156E+02 0.  0.
         12    1    3    3    0    0 -0.66882244465E+01 -0.33284531598E+02 -0.14254327910E+02  0.36820894260E+02  0.00000000000E+00 0. -1.
         11    1    4    4    0    0 -0.40656183892E+01 -0.14735374239E+01 -0.43024972584E+01  0.61001678949E+01  0.51100000000E-03 0. -1.
        -11    1    4    4    0    0  0.11598012462E+02  0.41378645309E+01  0.11464626018E+02  0.16824787248E+02  0.51100000000E-03 0.  1.
        -12    1    4    4    0    0 -0.84416962673E+00  0.30620204491E+02  0.70921991503E+01  0.31442150597E+02  0.00000000000E+00 0.  1.
</event>
<event>
 8    1  0.1262344E-006  0.9118800E+02  0.7816164E-02  0.1184000E+00
        -11   -1    0    0    0    0  0.00000000000E+00  0.00000000000E+00  0.45593999997E+02  0.45594000000E+02  0.51100000000E-03 0.  1.
         11   -1    0    0    0    0 -0.00000000000E+00 -0.00000000000E+00 -0.45593999997E+02  0.45594000000E+02  0.51100000000E-03 0. -1.
         23    2    1    2    0    0 -0.17763568394E-14 -0.35527136788E-14  0.35527136788E-14  0.91188000000E+02  0.91188000000E+02 0.  0.
    9900012    2    3    3    0    0  0.91444886336E+01 -0.17958680423E+02  0.30816285174E+02  0.54367091445E+02  0.40000016567E+02 0.  0.
         12    1    3    3    0    0 -0.91444886336E+01  0.17958680423E+02 -0.30816285174E+02  0.36820908555E+02  0.00000000000E+00 0. -1.
         11    1    4    4    0    0 -0.10717990374E+02 -0.55822944312E+01  0.36521461310E+01  0.12624400991E+02  0.51100000000E-03 0. -1.
        -11    1    4    4    0    0  0.20080654512E+02 -0.83575902687E+00  0.16068372435E+02  0.25731765811E+02  0.51100000000E-03 0.  1.
        -12    1    4    4    0    0 -0.21817550519E+00 -0.11540626965E+02  0.11095766608E+02  0.16010924643E+02  0.00000000000E+00 0.  1.
</event>
<event>
 8    1  0.1262344E-006  0.9118800E+02  0.7816164E-02  0.1184000E+00
        -11   -1    0    0    0    0  0.00000000000E+00  0.00000000000E+00  0.45593999997E+02  0.45594000000E+02  0.51100000000E-03 0.  1.
         11   -1    0    0    0    0 -0.00000000000E+00 -0.00000000000E+00 -0.45593999997E+02  0.45594000000E+02  0.51100000000E-03 0. -1.
         23    2    1    2    0    0  0.00000000000E+00  0.11102230246E-15  0.00000000000E+00  0.91188000000E+02  0.91188000000E+02 0.  0.
    9900012    2    3    3    0    0  0.15470886792E+02 -0.69663988961E+00 -0.33405836018E+02  0.54367034161E+02  0.39999885976E+02 0.  0.
        -12    1    3    3    0    0 -0.15470886792E+02  0.69663988961E+00  0.33405836018E+02  0.36820965839E+02  0.00000000000E+00 0.  1.
         11    1    4    4    0    0  0.65192831023E+00 -0.10574979656E+02 -0.27852174463E+02  0.29799309184E+02  0.51100000000E-03 0. -1.
        -11    1    4    4    0    0  0.40971915059E+01 -0.25123137172E+01 -0.65820630888E+01  0.81499848599E+01  0.51100000000E-03 0.  1.
        -12    1    4    4    0    0  0.10721766976E+02  0.12390653484E+02  0.10284015338E+01  0.16417740117E+02  0.00000000000E+00 0.  1.
</event>
<event>
 8    1  0.1262344E-006  0.9118800E+02  0.7816164E-02  0.1184000E+00
        -11   -1    0    0    0    0  0.00000000000E+00  0.00000000000E+00  0.45593999997E+02  0.45594000000E+02  0.51100000000E-03 0.  1.
         11   -1    0    0    0    0 -0.00000000000E+00 -0.00000000000E+00 -0.45593999997E+02  0.45594000000E+02  0.51100000000E-03 0. -1.
         23    2    1    2    0    0  0.35527136788E-14  0.00000000000E+00  0.00000000000E+00  0.91188000000E+02  0.91188000000E+02 0.  0.
    9900012    2    3    3    0    0  0.30339505793E+02  0.20662404127E+02 -0.28911987954E+01  0.54367087647E+02  0.40000007908E+02 0.  0.
        -12    1    3    3    0    0 -0.30339505793E+02 -0.20662404127E+02  0.28911987954E+01  0.36820912353E+02  0.00000000000E+00 0.  1.
         11    1    4    4    0    0  0.63610928670E+01  0.56739403025E+01 -0.79891190963E+01  0.11682599249E+02  0.51100000000E-03 0. -1.
        -11    1    4    4    0    0  0.29384115544E+02  0.13587777456E+02  0.11346296745E+02  0.34304407772E+02  0.51100000000E-03 0.  1.
        -12    1    4    4    0    0 -0.54057026184E+01  0.14006863684E+01 -0.62483764444E+01  0.83800806256E+01  0.00000000000E+00 0.  1.
</event>
<event>
 8    1  0.1262344E-006  0.9118800E+02  0.7816164E-02  0.1184000E+00
        -11   -1    0    0    0    0  0.00000000000E+00  0.00000000000E+00  0.45593999997E+02  0.45594000000E+02  0.51100000000E-03 0. -1.
         11   -1    0    0    0    0 -0.00000000000E+00 -0.00000000000E+00 -0.45593999997E+02  0.45594000000E+02  0.51100000000E-03 0.  1.
         23    2    1    2    0    0  0.00000000000E+00  0.00000000000E+00  0.00000000000E+00  0.91188000000E+02  0.91188000000E+02 0.  0.
    9900012    2    3    3    0    0 -0.15424486080E+02 -0.33112755506E+02  0.46271756893E+01  0.54367080635E+02  0.39999991924E+02 0.  0.
        -12    1    3    3    0    0  0.15424486080E+02  0.33112755506E+02 -0.46271756893E+01  0.36820919365E+02  0.00000000000E+00 0.  1.
         11    1    4    4    0    0  0.74908715840E+01 -0.27104918636E+02  0.24258443941E+00  0.28122030844E+02  0.51100000000E-03 0. -1.
        -11    1    4    4    0    0 -0.97675235261E+01 -0.19770689339E+01 -0.32925168964E+01  0.10495426870E+02  0.51100000000E-03 0.  1.
         12    1    4    4    0    0 -0.13147834138E+02 -0.40307679364E+01  0.76771081463E+01  0.15749622921E+02  0.00000000000E+00 0. -1.
</event>
<event>
 8    1  0.1262344E-006  0.9118800E+02  0.7816164E-02  0.1184000E+00
        -11   -1    0    0    0    0  0.00000000000E+00  0.00000000000E+00  0.45593999997E+02  0.45594000000E+02  0.51100000000E-03 0. -1.
         11   -1    0    0    0    0 -0.00000000000E+00 -0.00000000000E+00 -0.45593999997E+02  0.45594000000E+02  0.51100000000E-03 0.  1.
         23    2    1    2    0    0  0.00000000000E+00  0.00000000000E+00  0.00000000000E+00  0.91188000000E+02  0.91188000000E+02 0.  0.
    9900012    2    3    3    0    0  0.19520965226E+02  0.13433522100E+02 -0.28182467696E+02  0.54367094460E+02  0.40000023440E+02 0.  0.
         12    1    3    3    0    0 -0.19520965226E+02 -0.13433522100E+02  0.28182467696E+02  0.36820905540E+02  0.00000000000E+00 0. -1.
         11    1    4    4    0    0  0.20243473126E+02  0.24078866069E+02 -0.96399379689E+01  0.32901647371E+02  0.51100000000E-03 0. -1.
        -11    1    4    4    0    0  0.45409667219E-01 -0.48604711092E+01 -0.68725340836E+01  0.84177174123E+01  0.51100000000E-03 0.  1.
         12    1    4    4    0    0 -0.76791756807E+00 -0.57848728602E+01 -0.11669995644E+02  0.13047729677E+02  0.00000000000E+00 0. -1.
</event>
<event>
 8    1  0.1262344E-006  0.9118800E+02  0.7816164E-02  0.1184000E+00
        -11   -1    0    0    0    0  0.00000000000E+00  0.00000000000E+00  0.45593999997E+02  0.45594000000E+02  0.51100000000E-03 0.  1.
         11   -1    0    0    0    0 -0.00000000000E+00 -0.00000000000E+00 -0.45593999997E+02  0.45594000000E+02  0.51100000000E-03 0. -1.
         23    2    1    2    0    0  0.00000000000E+00  0.00000000000E+00  0.88817841970E-15  0.91188000000E+02  0.91188000000E+02 0.  0.
    9900012    2    3    3    0    0  0.24510227947E+02  0.27036439043E+02  0.49052054065E+01  0.54367063697E+02  0.39999953311E+02 0.  0.
         12    1    3    3    0    0 -0.24510227947E+02 -0.27036439043E+02 -0.49052054065E+01  0.36820936303E+02  0.00000000000E+00 0. -1.
         11    1    4    4    0    0  0.11611547438E+02  0.19133613453E+01 -0.10919047186E+02  0.16053491124E+02  0.51100000000E-03 0. -1.
        -11    1    4    4    0    0  0.57771845027E+01 -0.96484258339E+00 -0.16884653273E+01  0.60957113951E+01  0.51100000000E-03 0.  1.
        -12    1    4    4    0    0  0.71214960054E+01  0.26087920281E+02  0.17512717920E+02  0.32217861178E+02  0.00000000000E+00 0.  1.
</event>
<event>
 8    1  0.1262344E-006  0.9118800E+02  0.7816164E-02  0.1184000E+00
        -11   -1    0    0    0    0  0.00000000000E+00  0.00000000000E+00  0.45593999997E+02  0.45594000000E+02  0.51100000000E-03 0.  1.
         11   -1    0    0    0    0 -0.00000000000E+00 -0.00000000000E+00 -0.45593999997E+02  0.45594000000E+02  0.51100000000E-03 0. -1.
         23    2    1    2    0    0  0.00000000000E+00  0.00000000000E+00  0.00000000000E+00  0.91188000000E+02  0.91188000000E+02 0.  0.
    9900012    2    3    3    0    0 -0.17770222750E+02 -0.24324573327E+02  0.21173412547E+02  0.54367094484E+02  0.40000023494E+02 0.  0.
        -12    1    3    3    0    0  0.17770222750E+02  0.24324573327E+02 -0.21173412547E+02  0.36820905516E+02  0.00000000000E+00 0.  1.
         11    1    4    4    0    0 -0.68312266212E+01  0.32839560236E+00 -0.82835999515E+01  0.10742044928E+02  0.51100000000E-03 0. -1.
        -11    1    4    4    0    0 -0.36705034523E+00 -0.18333152604E-01  0.11166175516E+02  0.11172221712E+02  0.51100000000E-03 0.  1.
         12    1    4    4    0    0 -0.10571945784E+02 -0.24634635777E+02  0.18290836982E+02  0.32452827843E+02  0.00000000000E+00 0. -1.
</event>
<event>
 8    1  0.1262344E-006  0.9118800E+02  0.7816164E-02  0.1184000E+00
        -11   -1    0    0    0    0  0.00000000000E+00  0.00000000000E+00  0.45593999997E+02  0.45594000000E+02  0.51100000000E-03 0. -1.
         11   -1    0    0    0    0 -0.00000000000E+00 -0.00000000000E+00 -0.45593999997E+02  0.45594000000E+02  0.51100000000E-03 0.  1.
         23    2    1    2    0    0  0.00000000000E+00 -0.88817841970E-15  0.71054273576E-14  0.91188000000E+02  0.91188000000E+02 0.  0.
    9900012    2    3    3    0    0  0.69190093444E+01  0.48525583786E+01  0.35837954909E+02  0.54367095269E+02  0.40000025284E+02 0.  0.
        -12    1    3    3    0    0 -0.69190093444E+01 -0.48525583786E+01 -0.35837954909E+02  0.36820904731E+02  0.00000000000E+00 0.  1.
         11    1    4    4    0    0  0.13343975128E+02  0.66544702941E+01  0.42188056899E+02  0.44745679034E+02  0.51100000000E-03 0. -1.
        -11    1    4    4    0    0 -0.77152337914E+00 -0.11162318109E+01 -0.47098137989E+00  0.14363305683E+01  0.51100000000E-03 0.  1.
         12    1    4    4    0    0 -0.56534424039E+01 -0.68568010463E+00 -0.58791206094E+01  0.81850856661E+01  0.00000000000E+00 0. -1.
</event>
<event>
 8    1  0.1262344E-006  0.9118800E+02  0.7816164E-02  0.1184000E+00
        -11   -1    0    0    0    0  0.00000000000E+00  0.00000000000E+00  0.45593999997E+02  0.45594000000E+02  0.51100000000E-03 0.  1.
         11   -1    0    0    0    0 -0.00000000000E+00 -0.00000000000E+00 -0.45593999997E+02  0.45594000000E+02  0.51100000000E-03 0. -1.
         23    2    1    2    0    0  0.00000000000E+00  0.00000000000E+00 -0.17763568394E-14  0.91188000000E+02  0.91188000000E+02 0.  0.
    9900012    2    3    3    0    0 -0.31385281054E+02 -0.16086721345E+02  0.10581212746E+02  0.54367074786E+02  0.39999978589E+02 0.  0.
         12    1    3    3    0    0  0.31385281054E+02  0.16086721345E+02 -0.10581212746E+02  0.36820925214E+02  0.00000000000E+00 0. -1.
         11    1    4    4    0    0  0.46479124371E+01  0.14917303169E+01  0.69404491931E+01  0.84851744016E+01  0.51100000000E-03 0. -1.
        -11    1    4    4    0    0 -0.66434198056E+01  0.43598877755E+01 -0.32143917220E+01  0.85718120915E+01  0.51100000000E-03 0.  1.
        -12    1    4    4    0    0 -0.29389773685E+02 -0.21938339438E+02  0.68551552752E+01  0.37310088293E+02  0.00000000000E+00 0.  1.
</event>
<event>
 8    1  0.1262344E-006  0.9118800E+02  0.7816164E-02  0.1184000E+00
        -11   -1    0    0    0    0  0.00000000000E+00  0.00000000000E+00  0.45593999997E+02  0.45594000000E+02  0.51100000000E-03 0.  1.
         11   -1    0    0    0    0 -0.00000000000E+00 -0.00000000000E+00 -0.45593999997E+02  0.45594000000E+02  0.51100000000E-03 0. -1.
         23    2    1    2    0    0  0.00000000000E+00 -0.35527136788E-14 -0.35527136788E-14  0.91188000000E+02  0.91188000000E+02 0.  0.
    9900012    2    3    3    0    0 -0.92503713226E+01 -0.26303269386E+02  0.24048874384E+02  0.54367085982E+02  0.40000004113E+02 0.  0.
         12    1    3    3    0    0  0.92503713226E+01  0.26303269386E+02 -0.24048874384E+02  0.36820914018E+02  0.00000000000E+00 0. -1.
         11    1    4    4    0    0 -0.13277983300E+02  0.89086045802E-01  0.23948961372E+02  0.27383672652E+02  0.51100000000E-03 0. -1.
        -11    1    4    4    0    0  0.14306494123E+01 -0.20409291023E+02 -0.45596817490E-01  0.20459423187E+02  0.51100000000E-03 0.  1.
         12    1    4    4    0    0  0.25969625653E+01 -0.59830644081E+01  0.14550982998E+00  0.65239901431E+01  0.00000000000E+00 0. -1.
</event>
<event>
 8    1  0.1262344E-006  0.9118800E+02  0.7816164E-02  0.1184000E+00
        -11   -1    0    0    0    0  0.00000000000E+00  0.00000000000E+00  0.45593999997E+02  0.45594000000E+02  0.51100000000E-03 0.  1.
         11   -1    0    0    0    0 -0.00000000000E+00 -0.00000000000E+00 -0.45593999997E+02  0.45594000000E+02  0.51100000000E-03 0. -1.
         23    2    1    2    0    0  0.00000000000E+00  0.00000000000E+00  0.00000000000E+00  0.91188000000E+02  0.91188000000E+02 0.  0.
    9900012    2    3    3    0    0 -0.12892983544E+01 -0.25625966083E+02  0.26408784516E+02  0.54367131901E+02  0.40000108795E+02 0.  0.
         12    1    3    3    0    0  0.12892983544E+01  0.25625966083E+02 -0.26408784516E+02  0.36820868099E+02  0.00000000000E+00 0. -1.
         11    1    4    4    0    0 -0.27572922538E+01 -0.13371075509E+01  0.78313632960E+01  0.84095641094E+01  0.51100000000E-03 0. -1.
        -11    1    4    4    0    0 -0.80487106411E+00 -0.32500552084E+02  0.10362884988E+02  0.34122178840E+02  0.51100000000E-03 0.  1.
         12    1    4    4    0    0  0.22728649635E+01  0.82116935523E+01  0.82145362320E+01  0.11835388952E+02  0.00000000000E+00 0. -1.
</event>
<event>
 8    1  0.1262344E-006  0.9118800E+02  0.7816164E-02  0.1184000E+00
        -11   -1    0    0    0    0  0.00000000000E+00  0.00000000000E+00  0.45593999997E+02  0.45594000000E+02  0.51100000000E-03 0.  1.
         11   -1    0    0    0    0 -0.00000000000E+00 -0.00000000000E+00 -0.45593999997E+02  0.45594000000E+02  0.51100000000E-03 0. -1.
         23    2    1    2    0    0 -0.71054273576E-14 -0.35527136788E-14  0.35527136788E-14  0.91188000000E+02  0.91188000000E+02 0.  0.
    9900012    2    3    3    0    0  0.24978207522E+02  0.16401942935E+02 -0.21513850192E+02  0.54367077508E+02  0.39999984796E+02 0.  0.
        -12    1    3    3    0    0 -0.24978207522E+02 -0.16401942935E+02  0.21513850192E+02  0.36820922492E+02  0.00000000000E+00 0.  1.
         11    1    4    4    0    0  0.34668200269E+01  0.11937142074E+02 -0.13065818782E+02  0.18034129386E+02  0.51100000000E-03 0. -1.
        -11    1    4    4    0    0 -0.18566076426E+01  0.47628463864E+01 -0.11671409889E+02  0.12741801548E+02  0.51100000000E-03 0.  1.
         12    1    4    4    0    0  0.23367995138E+02 -0.29804552530E+00  0.32233784790E+01  0.23591146575E+02  0.00000000000E+00 0. -1.
</event>
<event>
 8    1  0.1262344E-006  0.9118800E+02  0.7816164E-02  0.1184000E+00
        -11   -1    0    0    0    0  0.00000000000E+00  0.00000000000E+00  0.45593999997E+02  0.45594000000E+02  0.51100000000E-03 0.  1.
         11   -1    0    0    0    0 -0.00000000000E+00 -0.00000000000E+00 -0.45593999997E+02  0.45594000000E+02  0.51100000000E-03 0. -1.
         23    2    1    2    0    0 -0.35527136788E-14 -0.35527136788E-14  0.17763568394E-14  0.91188000000E+02  0.91188000000E+02 0.  0.
    9900012    2    3    3    0    0 -0.18686268888E+02 -0.28469400436E+02 -0.14003652397E+02  0.54367004813E+02  0.39999819071E+02 0.  0.
        -12    1    3    3    0    0  0.18686268888E+02  0.28469400436E+02  0.14003652397E+02  0.36820995187E+02  0.00000000000E+00 0.  1.
         11    1    4    4    0    0 -0.76856684022E+01  0.32937194490E+01 -0.58795381665E+01  0.10221891014E+02  0.51100000000E-03 0. -1.
        -11    1    4    4    0    0 -0.10648115873E+02 -0.28603665598E+02  0.47460463844E+01  0.30888137105E+02  0.51100000000E-03 0.  1.
        -12    1    4    4    0    0 -0.35248461299E+00 -0.31594542870E+01 -0.12870160615E+02  0.13256976693E+02  0.00000000000E+00 0.  1.
</event>
<event>
 8    1  0.1262344E-006  0.9118800E+02  0.7816164E-02  0.1184000E+00
        -11   -1    0    0    0    0  0.00000000000E+00  0.00000000000E+00  0.45593999997E+02  0.45594000000E+02  0.51100000000E-03 0. -1.
         11   -1    0    0    0    0 -0.00000000000E+00 -0.00000000000E+00 -0.45593999997E+02  0.45594000000E+02  0.51100000000E-03 0.  1.
         23    2    1    2    0    0  0.00000000000E+00 -0.88817841970E-15  0.71054273576E-14  0.91188000000E+02  0.91188000000E+02 0.  0.
    9900012    2    3    3    0    0 -0.51164369740E+01  0.37744142310E+01  0.36267817745E+02  0.54367099222E+02  0.40000034297E+02 0.  0.
        -12    1    3    3    0    0  0.51164369740E+01 -0.37744142310E+01 -0.36267817745E+02  0.36820900778E+02  0.00000000000E+00 0.  1.
         11    1    4    4    0    0  0.20067671486E+01  0.16274317468E+02  0.11000569256E+02  0.19745709601E+02  0.51100000000E-03 0. -1.
        -11    1    4    4    0    0 -0.99459297967E+01 -0.51832125490E+01  0.39226275372E+01  0.11881675762E+02  0.51100000000E-03 0.  1.
        -12    1    4    4    0    0  0.28227256741E+01 -0.73166906878E+01  0.21344620952E+02  0.22739713860E+02  0.00000000000E+00 0.  1.
</event>
<event>
 8    1  0.1262344E-006  0.9118800E+02  0.7816164E-02  0.1184000E+00
        -11   -1    0    0    0    0  0.00000000000E+00  0.00000000000E+00  0.45593999997E+02  0.45594000000E+02  0.51100000000E-03 0.  1.
         11   -1    0    0    0    0 -0.00000000000E+00 -0.00000000000E+00 -0.45593999997E+02  0.45594000000E+02  0.51100000000E-03 0. -1.
         23    2    1    2    0    0  0.00000000000E+00  0.44408920985E-15 -0.35527136788E-14  0.91188000000E+02  0.91188000000E+02 0.  0.
    9900012    2    3    3    0    0  0.26113517274E+02  0.23466919305E+01  0.25852611554E+02  0.54367078343E+02  0.39999986700E+02 0.  0.
         12    1    3    3    0    0 -0.26113517274E+02 -0.23466919305E+01 -0.25852611554E+02  0.36820921657E+02  0.00000000000E+00 0. -1.
         11    1    4    4    0    0  0.12885433054E+02  0.30625882865E+01  0.30682718377E+01  0.13595150765E+02  0.51100000000E-03 0. -1.
        -11    1    4    4    0    0  0.21375738279E+02 -0.80491972703E+01  0.14959134317E+02  0.27303616307E+02  0.51100000000E-03 0.  1.
         12    1    4    4    0    0 -0.81476540583E+01  0.73333009143E+01  0.78252053993E+01  0.13468311271E+02  0.00000000000E+00 0. -1.
</event>
<event>
 8    1  0.1262344E-006  0.9118800E+02  0.7816164E-02  0.1184000E+00
        -11   -1    0    0    0    0  0.00000000000E+00  0.00000000000E+00  0.45593999997E+02  0.45594000000E+02  0.51100000000E-03 0. -1.
         11   -1    0    0    0    0 -0.00000000000E+00 -0.00000000000E+00 -0.45593999997E+02  0.45594000000E+02  0.51100000000E-03 0.  1.
         23    2    1    2    0    0  0.00000000000E+00  0.00000000000E+00  0.00000000000E+00  0.91188000000E+02  0.91188000000E+02 0.  0.
    9900012    2    3    3    0    0 -0.51429749385E+01  0.33327258170E+02  0.14785925878E+02  0.54367082950E+02  0.39999997201E+02 0.  0.
        -12    1    3    3    0    0  0.51429749385E+01 -0.33327258170E+02 -0.14785925878E+02  0.36820917050E+02  0.00000000000E+00 0.  1.
         11    1    4    4    0    0 -0.37043632308E+01  0.27577601230E+02  0.10803337388E+02  0.29848927880E+02  0.51100000000E-03 0. -1.
        -11    1    4    4    0    0 -0.45027738700E+01 -0.42099764115E+01  0.10537125421E+02  0.12207779746E+02  0.51100000000E-03 0.  1.
        -12    1    4    4    0    0  0.30641621623E+01  0.99596333510E+01 -0.65545369317E+01  0.12310375325E+02  0.00000000000E+00 0.  1.
</event>
<event>
 8    1  0.1262344E-006  0.9118800E+02  0.7816164E-02  0.1184000E+00
        -11   -1    0    0    0    0  0.00000000000E+00  0.00000000000E+00  0.45593999997E+02  0.45594000000E+02  0.51100000000E-03 0. -1.
         11   -1    0    0    0    0 -0.00000000000E+00 -0.00000000000E+00 -0.45593999997E+02  0.45594000000E+02  0.51100000000E-03 0.  1.
         23    2    1    2    0    0  0.17763568394E-14 -0.35527136788E-14  0.35527136788E-14  0.91188000000E+02  0.91188000000E+02 0.  0.
    9900012    2    3    3    0    0  0.10911516583E+02  0.24822018163E+02  0.24911569954E+02  0.54367080710E+02  0.39999992094E+02 0.  0.
        -12    1    3    3    0    0 -0.10911516583E+02 -0.24822018163E+02 -0.24911569954E+02  0.36820919290E+02  0.00000000000E+00 0.  1.
         11    1    4    4    0    0 -0.11731045343E+01  0.47647610509E+01  0.18543340404E+01  0.52457294169E+01  0.51100000000E-03 0. -1.
        -11    1    4    4    0    0  0.23154329206E+02  0.22154961119E+02  0.15904751914E+02  0.35776058991E+02  0.51100000000E-03 0.  1.
         12    1    4    4    0    0 -0.11069708089E+02 -0.20977040073E+01  0.71524839991E+01  0.13345292302E+02  0.00000000000E+00 0. -1.
</event>
<event>
 8    1  0.1262344E-006  0.9118800E+02  0.7816164E-02  0.1184000E+00
        -11   -1    0    0    0    0  0.00000000000E+00  0.00000000000E+00  0.45593999997E+02  0.45594000000E+02  0.51100000000E-03 0.  1.
         11   -1    0    0    0    0 -0.00000000000E+00 -0.00000000000E+00 -0.45593999997E+02  0.45594000000E+02  0.51100000000E-03 0. -1.
         23    2    1    2    0    0  0.00000000000E+00  0.00000000000E+00  0.71054273576E-14  0.91188000000E+02  0.91188000000E+02 0.  0.
    9900012    2    3    3    0    0 -0.43751839557E+01  0.16927660164E+02  0.32405131873E+02  0.54367075447E+02  0.39999980096E+02 0.  0.
         12    1    3    3    0    0  0.43751839557E+01 -0.16927660164E+02 -0.32405131873E+02  0.36820924553E+02  0.00000000000E+00 0. -1.
         11    1    4    4    0    0  0.24419241330E+01  0.29934616799E+01 -0.49245489101E+01  0.62589926130E+01  0.51100000000E-03 0. -1.
        -11    1    4    4    0    0  0.23979318291E+01  0.14564538621E+02  0.35828999413E+02  0.38750394340E+02  0.51100000000E-03 0.  1.
         12    1    4    4    0    0 -0.92150399178E+01 -0.63034013711E+00  0.15006813702E+01  0.93576884940E+01  0.00000000000E+00 0. -1.
</event>
<event>
 8    1  0.1262344E-006  0.9118800E+02  0.7816164E-02  0.1184000E+00
        -11   -1    0    0    0    0  0.00000000000E+00  0.00000000000E+00  0.45593999997E+02  0.45594000000E+02  0.51100000000E-03 0.  1.
         11   -1    0    0    0    0 -0.00000000000E+00 -0.00000000000E+00 -0.45593999997E+02  0.45594000000E+02  0.51100000000E-03 0. -1.
         23    2    1    2    0    0  0.00000000000E+00  0.35527136788E-14  0.17763568394E-14  0.91188000000E+02  0.91188000000E+02 0.  0.
    9900012    2    3    3    0    0 -0.11440246300E+02 -0.31963387997E+02 -0.14256296138E+02  0.54367090353E+02  0.40000014078E+02 0.  0.
        -12    1    3    3    0    0  0.11440246300E+02  0.31963387997E+02  0.14256296138E+02  0.36820909647E+02  0.00000000000E+00 0.  1.
         11    1    4    4    0    0 -0.72453999828E+01 -0.17400828625E+02  0.55079702474E+01  0.19637270539E+02  0.51100000000E-03 0. -1.
        -11    1    4    4    0    0  0.79935926382E+01 -0.11272155576E+02 -0.37137012565E+01  0.14309108703E+02  0.51100000000E-03 0.  1.
         12    1    4    4    0    0 -0.12188438955E+02 -0.32904037971E+01 -0.16050565129E+02  0.20420711111E+02  0.00000000000E+00 0. -1.
</event>
<event>
 8    1  0.1262344E-006  0.9118800E+02  0.7816164E-02  0.1184000E+00
        -11   -1    0    0    0    0  0.00000000000E+00  0.00000000000E+00  0.45593999997E+02  0.45594000000E+02  0.51100000000E-03 0.  1.
         11   -1    0    0    0    0 -0.00000000000E+00 -0.00000000000E+00 -0.45593999997E+02  0.45594000000E+02  0.51100000000E-03 0. -1.
         23    2    1    2    0    0  0.71054273576E-14  0.00000000000E+00  0.00000000000E+00  0.91188000000E+02  0.91188000000E+02 0.  0.
    9900012    2    3    3    0    0  0.34275301963E+02 -0.11076996999E+02  0.76343063140E+01  0.54367098054E+02  0.40000031634E+02 0.  0.
        -12    1    3    3    0    0 -0.34275301963E+02  0.11076996999E+02 -0.76343063140E+01  0.36820901946E+02  0.00000000000E+00 0.  1.
         11    1    4    4    0    0  0.23202619209E+02 -0.53337121310E+01  0.16772295353E+01  0.23866778635E+02  0.51100000000E-03 0. -1.
        -11    1    4    4    0    0  0.48187654937E+01 -0.13380373230E+02 -0.56151526127E+01  0.15290023799E+02  0.51100000000E-03 0.  1.
        -12    1    4    4    0    0  0.62539172610E+01  0.76370883621E+01  0.11572229391E+02  0.15210295620E+02  0.00000000000E+00 0.  1.
</event>
<event>
 8    1  0.1262344E-006  0.9118800E+02  0.7816164E-02  0.1184000E+00
        -11   -1    0    0    0    0  0.00000000000E+00  0.00000000000E+00  0.45593999997E+02  0.45594000000E+02  0.51100000000E-03 0.  1.
         11   -1    0    0    0    0 -0.00000000000E+00 -0.00000000000E+00 -0.45593999997E+02  0.45594000000E+02  0.51100000000E-03 0. -1.
         23    2    1    2    0    0  0.00000000000E+00  0.00000000000E+00  0.00000000000E+00  0.91188000000E+02  0.91188000000E+02 0.  0.
    9900012    2    3    3    0    0 -0.11678625975E+02  0.33940282140E+02  0.82125871465E+01  0.54367086865E+02  0.40000006127E+02 0.  0.
         12    1    3    3    0    0  0.11678625975E+02 -0.33940282140E+02 -0.82125871465E+01  0.36820913135E+02  0.00000000000E+00 0. -1.
         11    1    4    4    0    0  0.78767715433E+01  0.45953965345E+01  0.11512453602E+02  0.14686653378E+02  0.51100000000E-03 0. -1.
        -11    1    4    4    0    0 -0.15067519206E+02  0.89415632747E+01  0.31807636609E+01  0.17807272294E+02  0.51100000000E-03 0.  1.
        -12    1    4    4    0    0 -0.44878783120E+01  0.20403322331E+02 -0.64806301160E+01  0.21873161193E+02  0.00000000000E+00 0.  1.
</event>
<event>
 8    1  0.1262344E-006  0.9118800E+02  0.7816164E-02  0.1184000E+00
        -11   -1    0    0    0    0  0.00000000000E+00  0.00000000000E+00  0.45593999997E+02  0.45594000000E+02  0.51100000000E-03 0. -1.
         11   -1    0    0    0    0 -0.00000000000E+00 -0.00000000000E+00 -0.45593999997E+02  0.45594000000E+02  0.51100000000E-03 0.  1.
         23    2    1    2    0    0  0.35527136788E-14  0.00000000000E+00  0.00000000000E+00  0.91188000000E+02  0.91188000000E+02 0.  0.
    9900012    2    3    3    0    0  0.23043860923E+02 -0.27372027952E+02 -0.86909687330E+01  0.54367076900E+02  0.39999983409E+02 0.  0.
         12    1    3    3    0    0 -0.23043860923E+02  0.27372027952E+02  0.86909687330E+01  0.36820923100E+02  0.00000000000E+00 0. -1.
         11    1    4    4    0    0  0.20613393749E+01 -0.13592469014E+02 -0.35821752906E+01  0.14206910783E+02  0.51100000000E-03 0. -1.
        -11    1    4    4    0    0  0.28423806252E+02 -0.14454158826E+02 -0.65423685857E+01  0.32552082210E+02  0.51100000000E-03 0.  1.
         12    1    4    4    0    0 -0.74412847037E+01  0.67459988899E+00  0.14335751432E+01  0.76080839074E+01  0.00000000000E+00 0. -1.
</event>
<event>
 8    1  0.1262344E-006  0.9118800E+02  0.7816164E-02  0.1184000E+00
        -11   -1    0    0    0    0  0.00000000000E+00  0.00000000000E+00  0.45593999997E+02  0.45594000000E+02  0.51100000000E-03 0.  1.
         11   -1    0    0    0    0 -0.00000000000E+00 -0.00000000000E+00 -0.45593999997E+02  0.45594000000E+02  0.51100000000E-03 0. -1.
         23    2    1    2    0    0  0.17763568394E-14  0.35527136788E-14  0.35527136788E-14  0.91188000000E+02  0.91188000000E+02 0.  0.
    9900012    2    3    3    0    0  0.84953561232E+01  0.25074393040E+02  0.25590799181E+02  0.54367010542E+02  0.39999832132E+02 0.  0.
         12    1    3    3    0    0 -0.84953561232E+01 -0.25074393040E+02 -0.25590799181E+02  0.36820989458E+02  0.00000000000E+00 0. -1.
         11    1    4    4    0    0  0.41502006436E+01 -0.41453478032E+01  0.45222292981E+01  0.74066613178E+01  0.51100000000E-03 0. -1.
        -11    1    4    4    0    0 -0.37824441225E+01 -0.36315538126E+01  0.10109319140E+02  0.11388301031E+02  0.51100000000E-03 0.  1.
        -12    1    4    4    0    0  0.81275996021E+01  0.32851294655E+02  0.10959250742E+02  0.35572048193E+02  0.00000000000E+00 0.  1.
</event>
<event>
 8    1  0.1262344E-006  0.9118800E+02  0.7816164E-02  0.1184000E+00
        -11   -1    0    0    0    0  0.00000000000E+00  0.00000000000E+00  0.45593999997E+02  0.45594000000E+02  0.51100000000E-03 0. -1.
         11   -1    0    0    0    0 -0.00000000000E+00 -0.00000000000E+00 -0.45593999997E+02  0.45594000000E+02  0.51100000000E-03 0.  1.
         23    2    1    2    0    0  0.44408920985E-15  0.35527136788E-14 -0.71054273576E-14  0.91188000000E+02  0.91188000000E+02 0.  0.
    9900012    2    3    3    0    0  0.25740065401E+01 -0.15847879039E+02  0.33136080266E+02  0.54367073951E+02  0.39999976686E+02 0.  0.
        -12    1    3    3    0    0 -0.25740065401E+01  0.15847879039E+02 -0.33136080266E+02  0.36820926049E+02  0.00000000000E+00 0.  1.
         11    1    4    4    0    0  0.90723463069E+01  0.14767571567E+01  0.77410170603E+01  0.12017138786E+02  0.51100000000E-03 0. -1.
        -11    1    4    4    0    0 -0.42026556942E+01 -0.24405098701E+01 -0.58855698497E+01  0.76327148529E+01  0.51100000000E-03 0.  1.
         12    1    4    4    0    0 -0.22956840726E+01 -0.14884126326E+02  0.31280633055E+02  0.34717220312E+02  0.00000000000E+00 0. -1.
</event>
<event>
 8    1  0.1262344E-006  0.9118800E+02  0.7816164E-02  0.1184000E+00
        -11   -1    0    0    0    0  0.00000000000E+00  0.00000000000E+00  0.45593999997E+02  0.45594000000E+02  0.51100000000E-03 0. -1.
         11   -1    0    0    0    0 -0.00000000000E+00 -0.00000000000E+00 -0.45593999997E+02  0.45594000000E+02  0.51100000000E-03 0.  1.
         23    2    1    2    0    0  0.00000000000E+00  0.00000000000E+00  0.88817841970E-15  0.91188000000E+02  0.91188000000E+02 0.  0.
    9900012    2    3    3    0    0  0.27035725115E+02 -0.24349407337E+02  0.56529576084E+01  0.54367082034E+02  0.39999995113E+02 0.  0.
        -12    1    3    3    0    0 -0.27035725115E+02  0.24349407337E+02 -0.56529576084E+01  0.36820917966E+02  0.00000000000E+00 0.  1.
         11    1    4    4    0    0  0.31803008555E+02 -0.19358144646E+02  0.43500824365E+01  0.37484561285E+02  0.51100000000E-03 0. -1.
        -11    1    4    4    0    0 -0.42567621398E+00 -0.59858919563E+00  0.78486521969E+01  0.78829468369E+01  0.51100000000E-03 0.  1.
         12    1    4    4    0    0 -0.43416072259E+01 -0.43926734951E+01 -0.65457770249E+01  0.89995739120E+01  0.00000000000E+00 0. -1.
</event>
<event>
 8    1  0.1262344E-006  0.9118800E+02  0.7816164E-02  0.1184000E+00
        -11   -1    0    0    0    0  0.00000000000E+00  0.00000000000E+00  0.45593999997E+02  0.45594000000E+02  0.51100000000E-03 0. -1.
         11   -1    0    0    0    0 -0.00000000000E+00 -0.00000000000E+00 -0.45593999997E+02  0.45594000000E+02  0.51100000000E-03 0.  1.
         23    2    1    2    0    0  0.00000000000E+00  0.00000000000E+00  0.00000000000E+00  0.91188000000E+02  0.91188000000E+02 0.  0.
    9900012    2    3    3    0    0  0.16837618189E+02  0.12831261003E+02 -0.30126999716E+02  0.54367044593E+02  0.39999909758E+02 0.  0.
         12    1    3    3    0    0 -0.16837618189E+02 -0.12831261003E+02  0.30126999716E+02  0.36820955407E+02  0.00000000000E+00 0. -1.
         11    1    4    4    0    0 -0.33092058608E+01 -0.82922631613E+01 -0.68068679415E+01  0.11227017556E+02  0.51100000000E-03 0. -1.
        -11    1    4    4    0    0  0.88416429644E+01  0.22486581205E+02 -0.19747954287E+02  0.31205811693E+02  0.51100000000E-03 0.  1.
        -12    1    4    4    0    0  0.11305181086E+02 -0.13630570406E+01 -0.35721774871E+01  0.11934215344E+02  0.00000000000E+00 0.  1.
</event>
<event>
 8    1  0.1262344E-006  0.9118800E+02  0.7816164E-02  0.1184000E+00
        -11   -1    0    0    0    0  0.00000000000E+00  0.00000000000E+00  0.45593999997E+02  0.45594000000E+02  0.51100000000E-03 0. -1.
         11   -1    0    0    0    0 -0.00000000000E+00 -0.00000000000E+00 -0.45593999997E+02  0.45594000000E+02  0.51100000000E-03 0.  1.
         23    2    1    2    0    0 -0.35527136788E-14  0.00000000000E+00  0.00000000000E+00  0.91188000000E+02  0.91188000000E+02 0.  0.
    9900012    2    3    3    0    0  0.19498525647E+02 -0.11821734932E+02  0.28910779990E+02  0.54367093998E+02  0.40000022387E+02 0.  0.
        -12    1    3    3    0    0 -0.19498525647E+02  0.11821734932E+02 -0.28910779990E+02  0.36820906002E+02  0.00000000000E+00 0.  1.
         11    1    4    4    0    0 -0.27074973389E+01  0.50539616837E+01  0.32360140730E+01  0.65836811802E+01  0.51100000000E-03 0. -1.
        -11    1    4    4    0    0  0.11243201891E+02 -0.24479955264E+02  0.17861706826E+02  0.32322103419E+02  0.51100000000E-03 0.  1.
        -12    1    4    4    0    0  0.10962821095E+02  0.76042586477E+01  0.78130590912E+01  0.15461309398E+02  0.00000000000E+00 0.  1.
</event>
<event>
 8    1  0.1262344E-006  0.9118800E+02  0.7816164E-02  0.1184000E+00
        -11   -1    0    0    0    0  0.00000000000E+00  0.00000000000E+00  0.45593999997E+02  0.45594000000E+02  0.51100000000E-03 0. -1.
         11   -1    0    0    0    0 -0.00000000000E+00 -0.00000000000E+00 -0.45593999997E+02  0.45594000000E+02  0.51100000000E-03 0.  1.
         23    2    1    2    0    0 -0.17763568394E-14 -0.35527136788E-14  0.00000000000E+00  0.91188000000E+02  0.91188000000E+02 0.  0.
    9900012    2    3    3    0    0 -0.12851263397E+02 -0.30400122829E+02 -0.16323110290E+02  0.54367267139E+02  0.40000417094E+02 0.  0.
        -12    1    3    3    0    0  0.12851263397E+02  0.30400122829E+02  0.16323110290E+02  0.36820732861E+02  0.00000000000E+00 0.  1.
         11    1    4    4    0    0 -0.13852539722E+01 -0.10178297781E+02 -0.13542353980E+02  0.16997412328E+02  0.51100000000E-03 0. -1.
        -11    1    4    4    0    0  0.11672568187E+01 -0.81739358503E+01 -0.14259103354E+02  0.16477188610E+02  0.51100000000E-03 0.  1.
         12    1    4    4    0    0 -0.12633266243E+02 -0.12047889198E+02  0.11478347044E+02  0.20892666201E+02  0.00000000000E+00 0. -1.
</event>
<event>
 8    1  0.1262344E-006  0.9118800E+02  0.7816164E-02  0.1184000E+00
        -11   -1    0    0    0    0  0.00000000000E+00  0.00000000000E+00  0.45593999997E+02  0.45594000000E+02  0.51100000000E-03 0. -1.
         11   -1    0    0    0    0 -0.00000000000E+00 -0.00000000000E+00 -0.45593999997E+02  0.45594000000E+02  0.51100000000E-03 0.  1.
         23    2    1    2    0    0  0.00000000000E+00 -0.25535129566E-14  0.00000000000E+00  0.91188000000E+02  0.91188000000E+02 0.  0.
    9900012    2    3    3    0    0  0.34422971685E+02 -0.56313393097E+00 -0.13058413001E+02  0.54367078644E+02  0.39999987384E+02 0.  0.
        -12    1    3    3    0    0 -0.34422971685E+02  0.56313393097E+00  0.13058413001E+02  0.36820921356E+02  0.00000000000E+00 0.  1.
         11    1    4    4    0    0  0.23335363053E+02  0.43519067543E+00 -0.20943810602E+01  0.23433202769E+02  0.51100000000E-03 0. -1.
        -11    1    4    4    0    0  0.57817230655E+00 -0.11971900104E+02  0.34827416628E+00  0.11990911995E+02  0.51100000000E-03 0.  1.
        -12    1    4    4    0    0  0.10509436325E+02  0.10973575498E+02 -0.11312306107E+02  0.18942963879E+02  0.00000000000E+00 0.  1.
</event>
<event>
 8    1  0.1262344E-006  0.9118800E+02  0.7816164E-02  0.1184000E+00
        -11   -1    0    0    0    0  0.00000000000E+00  0.00000000000E+00  0.45593999997E+02  0.45594000000E+02  0.51100000000E-03 0. -1.
         11   -1    0    0    0    0 -0.00000000000E+00 -0.00000000000E+00 -0.45593999997E+02  0.45594000000E+02  0.51100000000E-03 0.  1.
         23    2    1    2    0    0 -0.17763568394E-14  0.00000000000E+00  0.00000000000E+00  0.91188000000E+02  0.91188000000E+02 0.  0.
    9900012    2    3    3    0    0 -0.14559417536E+02  0.27507309210E+02 -0.19676128879E+02  0.54367099052E+02  0.40000033908E+02 0.  0.
         12    1    3    3    0    0  0.14559417536E+02 -0.27507309210E+02  0.19676128879E+02  0.36820900948E+02  0.00000000000E+00 0. -1.
         11    1    4    4    0    0 -0.10648902840E+02  0.64218359258E+01 -0.55142089202E+01  0.13603147012E+02  0.51100000000E-03 0. -1.
        -11    1    4    4    0    0 -0.68642693586E+01  0.28986162100E+02 -0.11218881774E+02  0.31830474323E+02  0.51100000000E-03 0.  1.
        -12    1    4    4    0    0  0.29537546626E+01 -0.79006888151E+01 -0.29430381845E+01  0.89334777167E+01  0.00000000000E+00 0.  1.
</event>
<event>
 8    1  0.1262344E-006  0.9118800E+02  0.7816164E-02  0.1184000E+00
        -11   -1    0    0    0    0  0.00000000000E+00  0.00000000000E+00  0.45593999997E+02  0.45594000000E+02  0.51100000000E-03 0.  1.
         11   -1    0    0    0    0 -0.00000000000E+00 -0.00000000000E+00 -0.45593999997E+02  0.45594000000E+02  0.51100000000E-03 0. -1.
         23    2    1    2    0    0  0.17763568394E-14 -0.17763568394E-14  0.00000000000E+00  0.91188000000E+02  0.91188000000E+02 0.  0.
    9900012    2    3    3    0    0 -0.62011974695E+01  0.15215284896E+02  0.32951777168E+02  0.54367090682E+02  0.40000014827E+02 0.  0.
         12    1    3    3    0    0  0.62011974695E+01 -0.15215284896E+02 -0.32951777168E+02  0.36820909318E+02  0.00000000000E+00 0. -1.
         11    1    4    4    0    0 -0.15485316353E+01 -0.43591686508E+01  0.11439575895E+02  0.12339538017E+02  0.51100000000E-03 0. -1.
        -11    1    4    4    0    0  0.85288356103E+01  0.20807169449E+02  0.10549887640E+02  0.24839071377E+02  0.51100000000E-03 0.  1.
        -12    1    4    4    0    0 -0.13181501444E+02 -0.12327159024E+01  0.10962313633E+02  0.17188481288E+02  0.00000000000E+00 0.  1.
</event>
<event>
 8    1  0.1262344E-006  0.9118800E+02  0.7816164E-02  0.1184000E+00
        -11   -1    0    0    0    0  0.00000000000E+00  0.00000000000E+00  0.45593999997E+02  0.45594000000E+02  0.51100000000E-03 0. -1.
         11   -1    0    0    0    0 -0.00000000000E+00 -0.00000000000E+00 -0.45593999997E+02  0.45594000000E+02  0.51100000000E-03 0.  1.
         23    2    1    2    0    0  0.88817841970E-15  0.00000000000E+00  0.35527136788E-14  0.91188000000E+02  0.91188000000E+02 0.  0.
    9900012    2    3    3    0    0 -0.78075415084E+01  0.32139512090E+02 -0.16182510892E+02  0.54367087456E+02  0.40000007474E+02 0.  0.
        -12    1    3    3    0    0  0.78075415084E+01 -0.32139512090E+02  0.16182510892E+02  0.36820912544E+02  0.00000000000E+00 0.  1.
         11    1    4    4    0    0 -0.10729035683E+02  0.10946060086E+01 -0.21945561805E+00  0.10786961112E+02  0.51100000000E-03 0. -1.
        -11    1    4    4    0    0 -0.90647431996E+01  0.14841304304E+02  0.73571093977E+00  0.17406181476E+02  0.51100000000E-03 0.  1.
        -12    1    4    4    0    0  0.11986237374E+02  0.16203601777E+02 -0.16698766213E+02  0.26173944869E+02  0.00000000000E+00 0.  1.
</event>
<event>
 8    1  0.1262344E-006  0.9118800E+02  0.7816164E-02  0.1184000E+00
        -11   -1    0    0    0    0  0.00000000000E+00  0.00000000000E+00  0.45593999997E+02  0.45594000000E+02  0.51100000000E-03 0. -1.
         11   -1    0    0    0    0 -0.00000000000E+00 -0.00000000000E+00 -0.45593999997E+02  0.45594000000E+02  0.51100000000E-03 0.  1.
         23    2    1    2    0    0 -0.17763568394E-14  0.00000000000E+00 -0.35527136788E-14  0.91188000000E+02  0.91188000000E+02 0.  0.
    9900012    2    3    3    0    0 -0.15680969449E+02 -0.26579180973E+02  0.20085559746E+02  0.54367144845E+02  0.40000138303E+02 0.  0.
        -12    1    3    3    0    0  0.15680969449E+02  0.26579180973E+02 -0.20085559746E+02  0.36820855155E+02  0.00000000000E+00 0.  1.
         11    1    4    4    0    0 -0.12998872116E+02 -0.57785026563E+00  0.16696453632E+02  0.21167809319E+02  0.51100000000E-03 0. -1.
        -11    1    4    4    0    0 -0.67383769277E+01 -0.22023822806E+01 -0.37551279576E+01  0.80222937848E+01  0.51100000000E-03 0.  1.
         12    1    4    4    0    0  0.40562795947E+01 -0.23798948426E+02  0.71442340713E+01  0.25177041741E+02  0.00000000000E+00 0. -1.
</event>
<event>
 8    1  0.1262344E-006  0.9118800E+02  0.7816164E-02  0.1184000E+00
        -11   -1    0    0    0    0  0.00000000000E+00  0.00000000000E+00  0.45593999997E+02  0.45594000000E+02  0.51100000000E-03 0.  1.
         11   -1    0    0    0    0 -0.00000000000E+00 -0.00000000000E+00 -0.45593999997E+02  0.45594000000E+02  0.51100000000E-03 0. -1.
         23    2    1    2    0    0  0.00000000000E+00  0.35527136788E-14  0.88817841970E-15  0.91188000000E+02  0.91188000000E+02 0.  0.
    9900012    2    3    3    0    0 -0.22546635503E+02 -0.28135968894E+02  0.74696062802E+01  0.54367101911E+02  0.40000040426E+02 0.  0.
        -12    1    3    3    0    0  0.22546635503E+02  0.28135968894E+02 -0.74696062802E+01  0.36820898089E+02  0.00000000000E+00 0.  1.
         11    1    4    4    0    0 -0.20407909411E+02 -0.25501189322E+02  0.11789432464E+02  0.34724402680E+02  0.51100000000E-03 0. -1.
        -11    1    4    4    0    0 -0.20926200348E+01 -0.31600470424E+01  0.71862867836E+01  0.81245106879E+01  0.51100000000E-03 0.  1.
        -12    1    4    4    0    0 -0.46106057297E-01  0.52526747065E+00 -0.11506112968E+02  0.11518188543E+02  0.00000000000E+00 0.  1.
</event>
<event>
 8    1  0.1262344E-006  0.9118800E+02  0.7816164E-02  0.1184000E+00
        -11   -1    0    0    0    0  0.00000000000E+00  0.00000000000E+00  0.45593999997E+02  0.45594000000E+02  0.51100000000E-03 0.  1.
         11   -1    0    0    0    0 -0.00000000000E+00 -0.00000000000E+00 -0.45593999997E+02  0.45594000000E+02  0.51100000000E-03 0. -1.
         23    2    1    2    0    0  0.35527136788E-14  0.00000000000E+00  0.00000000000E+00  0.91188000000E+02  0.91188000000E+02 0.  0.
    9900012    2    3    3    0    0  0.16046679474E+02 -0.18366514177E+02  0.27585417441E+02  0.54367081753E+02  0.39999994473E+02 0.  0.
         12    1    3    3    0    0 -0.16046679474E+02  0.18366514177E+02 -0.27585417441E+02  0.36820918247E+02  0.00000000000E+00 0. -1.
         11    1    4    4    0    0  0.14985406129E+02 -0.86146408876E+01  0.21919128022E+02  0.27914559069E+02  0.51100000000E-03 0. -1.
        -11    1    4    4    0    0  0.11802836140E+02 -0.81391766146E+00  0.32725703192E+01  0.12275142348E+02  0.51100000000E-03 0.  1.
         12    1    4    4    0    0 -0.10741562795E+02 -0.89379556276E+01  0.23937190995E+01  0.14177380337E+02  0.00000000000E+00 0. -1.
</event>
<event>
 8    1  0.1262344E-006  0.9118800E+02  0.7816164E-02  0.1184000E+00
        -11   -1    0    0    0    0  0.00000000000E+00  0.00000000000E+00  0.45593999997E+02  0.45594000000E+02  0.51100000000E-03 0.  1.
         11   -1    0    0    0    0 -0.00000000000E+00 -0.00000000000E+00 -0.45593999997E+02  0.45594000000E+02  0.51100000000E-03 0. -1.
         23    2    1    2    0    0 -0.35527136788E-14  0.00000000000E+00 -0.35527136788E-14  0.91188000000E+02  0.91188000000E+02 0.  0.
    9900012    2    3    3    0    0 -0.12381423506E+02 -0.13431575418E+02 -0.31969896371E+02  0.54367066549E+02  0.39999959812E+02 0.  0.
        -12    1    3    3    0    0  0.12381423506E+02  0.13431575418E+02  0.31969896371E+02  0.36820933451E+02  0.00000000000E+00 0.  1.
         11    1    4    4    0    0  0.83996281925E+00 -0.14441776619E+02  0.23512733098E+00  0.14468093674E+02  0.51100000000E-03 0. -1.
        -11    1    4    4    0    0 -0.73336625019E+01  0.15465098497E+01 -0.35336448116E+00  0.75032769591E+01  0.51100000000E-03 0.  1.
         12    1    4    4    0    0 -0.58877238233E+01 -0.53630864886E+00 -0.31851659220E+02  0.32395695916E+02  0.00000000000E+00 0. -1.
</event>
<event>
 8    1  0.1262344E-006  0.9118800E+02  0.7816164E-02  0.1184000E+00
        -11   -1    0    0    0    0  0.00000000000E+00  0.00000000000E+00  0.45593999997E+02  0.45594000000E+02  0.51100000000E-03 0.  1.
         11   -1    0    0    0    0 -0.00000000000E+00 -0.00000000000E+00 -0.45593999997E+02  0.45594000000E+02  0.51100000000E-03 0. -1.
         23    2    1    2    0    0  0.44408920985E-15  0.00000000000E+00  0.00000000000E+00  0.91188000000E+02  0.91188000000E+02 0.  0.
    9900012    2    3    3    0    0 -0.16812385144E+01 -0.13539327735E+02  0.34199816360E+02  0.54367253164E+02  0.40000385236E+02 0.  0.
         12    1    3    3    0    0  0.16812385144E+01  0.13539327735E+02 -0.34199816360E+02  0.36820746836E+02  0.00000000000E+00 0. -1.
         11    1    4    4    0    0 -0.10297541579E+02  0.39574255193E+01  0.90999627343E+01  0.14300695834E+02  0.51100000000E-03 0. -1.
        -11    1    4    4    0    0 -0.21380422785E+01 -0.18203086954E+01  0.20254329465E+02  0.20448046627E+02  0.51100000000E-03 0.  1.
        -12    1    4    4    0    0  0.10754345343E+02 -0.15676444559E+02  0.48455241611E+01  0.19618510702E+02  0.00000000000E+00 0.  1.
</event>
<event>
 8    1  0.1262344E-006  0.9118800E+02  0.7816164E-02  0.1184000E+00
        -11   -1    0    0    0    0  0.00000000000E+00  0.00000000000E+00  0.45593999997E+02  0.45594000000E+02  0.51100000000E-03 0.  1.
         11   -1    0    0    0    0 -0.00000000000E+00 -0.00000000000E+00 -0.45593999997E+02  0.45594000000E+02  0.51100000000E-03 0. -1.
         23    2    1    2    0    0 -0.71054273576E-14  0.00000000000E+00 -0.71054273576E-14  0.91188000000E+02  0.91188000000E+02 0.  0.
    9900012    2    3    3    0    0 -0.15767329939E+02 -0.14621872708E+02 -0.29889326010E+02  0.54367086592E+02  0.40000005503E+02 0.  0.
        -12    1    3    3    0    0  0.15767329939E+02  0.14621872708E+02  0.29889326010E+02  0.36820913408E+02  0.00000000000E+00 0.  1.
         11    1    4    4    0    0 -0.18797186169E+02 -0.72476120226E+01 -0.41285239282E+01  0.20564697858E+02  0.51100000000E-03 0. -1.
        -11    1    4    4    0    0  0.32097777475E+01 -0.82838384947E+01 -0.90570470741E+00  0.89300030611E+01  0.51100000000E-03 0.  1.
        -12    1    4    4    0    0 -0.17992151693E+00  0.90957780965E+00 -0.24855097374E+02  0.24872385672E+02  0.00000000000E+00 0.  1.
</event>
<event>
 8    1  0.1262344E-006  0.9118800E+02  0.7816164E-02  0.1184000E+00
        -11   -1    0    0    0    0  0.00000000000E+00  0.00000000000E+00  0.45593999997E+02  0.45594000000E+02  0.51100000000E-03 0.  1.
         11   -1    0    0    0    0 -0.00000000000E+00 -0.00000000000E+00 -0.45593999997E+02  0.45594000000E+02  0.51100000000E-03 0. -1.
         23    2    1    2    0    0  0.00000000000E+00  0.75633943553E-15  0.00000000000E+00  0.91188000000E+02  0.91188000000E+02 0.  0.
    9900012    2    3    3    0    0  0.17750282440E+02  0.26963056385E-01  0.32259982437E+02  0.54367085827E+02  0.40000003760E+02 0.  0.
         12    1    3    3    0    0 -0.17750282440E+02 -0.26963056385E-01 -0.32259982437E+02  0.36820914173E+02  0.00000000000E+00 0. -1.
         11    1    4    4    0    0  0.42385771102E+01 -0.25941326809E+01 -0.31745313892E+01  0.58968389912E+01  0.51100000000E-03 0. -1.
        -11    1    4    4    0    0 -0.45760683891E+01  0.91267271754E+01  0.24055754790E+02  0.26132678577E+02  0.51100000000E-03 0.  1.
        -12    1    4    4    0    0  0.18087773719E+02 -0.65056314381E+01  0.11378759036E+02  0.22337568259E+02  0.00000000000E+00 0.  1.
</event>
<event>
 8    1  0.1262344E-006  0.9118800E+02  0.7816164E-02  0.1184000E+00
        -11   -1    0    0    0    0  0.00000000000E+00  0.00000000000E+00  0.45593999997E+02  0.45594000000E+02  0.51100000000E-03 0. -1.
         11   -1    0    0    0    0 -0.00000000000E+00 -0.00000000000E+00 -0.45593999997E+02  0.45594000000E+02  0.51100000000E-03 0.  1.
         23    2    1    2    0    0 -0.88817841970E-15  0.00000000000E+00  0.35527136788E-14  0.91188000000E+02  0.91188000000E+02 0.  0.
    9900012    2    3    3    0    0 -0.58193713239E+01 -0.28617167632E+02 -0.22427129967E+02  0.54367034173E+02  0.39999886003E+02 0.  0.
         12    1    3    3    0    0  0.58193713239E+01  0.28617167632E+02  0.22427129967E+02  0.36820965827E+02  0.00000000000E+00 0. -1.
         11    1    4    4    0    0 -0.15689577680E+02 -0.71849128698E+01 -0.24196527671E+02  0.29719652964E+02  0.51100000000E-03 0. -1.
        -11    1    4    4    0    0  0.25934680692E+01 -0.13772659257E+02  0.78812556237E+00  0.14036857262E+02  0.51100000000E-03 0.  1.
         12    1    4    4    0    0  0.72767382865E+01 -0.76595955056E+01  0.98127214182E+00  0.10610523946E+02  0.00000000000E+00 0. -1.
</event>
<event>
 8    1  0.1262344E-006  0.9118800E+02  0.7816164E-02  0.1184000E+00
        -11   -1    0    0    0    0  0.00000000000E+00  0.00000000000E+00  0.45593999997E+02  0.45594000000E+02  0.51100000000E-03 0.  1.
         11   -1    0    0    0    0 -0.00000000000E+00 -0.00000000000E+00 -0.45593999997E+02  0.45594000000E+02  0.51100000000E-03 0. -1.
         23    2    1    2    0    0 -0.88817841970E-15  0.00000000000E+00  0.00000000000E+00  0.91188000000E+02  0.91188000000E+02 0.  0.
    9900012    2    3    3    0    0 -0.40152367955E+01 -0.19675286184E+02  0.30863206749E+02  0.54367128965E+02  0.40000102102E+02 0.  0.
         12    1    3    3    0    0  0.40152367955E+01  0.19675286184E+02 -0.30863206749E+02  0.36820871035E+02  0.00000000000E+00 0. -1.
         11    1    4    4    0    0  0.16042126375E+01 -0.23564638009E+02  0.20482269606E+02  0.31263221702E+02  0.51100000000E-03 0. -1.
        -11    1    4    4    0    0  0.54255268706E+01 -0.20512814422E+01  0.86917376694E+01  0.10449421101E+02  0.51100000000E-03 0.  1.
         12    1    4    4    0    0 -0.11044976304E+02  0.59406332673E+01  0.16891994728E+01  0.12654486162E+02  0.00000000000E+00 0. -1.
</event>
<event>
 8    1  0.1262344E-006  0.9118800E+02  0.7816164E-02  0.1184000E+00
        -11   -1    0    0    0    0  0.00000000000E+00  0.00000000000E+00  0.45593999997E+02  0.45594000000E+02  0.51100000000E-03 0.  1.
         11   -1    0    0    0    0 -0.00000000000E+00 -0.00000000000E+00 -0.45593999997E+02  0.45594000000E+02  0.51100000000E-03 0. -1.
         23    2    1    2    0    0  0.00000000000E+00  0.00000000000E+00  0.35527136788E-14  0.91188000000E+02  0.91188000000E+02 0.  0.
    9900012    2    3    3    0    0  0.32024115671E+02  0.44446856835E+01  0.17620440759E+02  0.54367093603E+02  0.40000021487E+02 0.  0.
         12    1    3    3    0    0 -0.32024115671E+02 -0.44446856835E+01 -0.17620440759E+02  0.36820906397E+02  0.00000000000E+00 0. -1.
         11    1    4    4    0    0 -0.82876481800E+00  0.38592762966E+01  0.99887731275E+01  0.10740412167E+02  0.51100000000E-03 0. -1.
        -11    1    4    4    0    0  0.15493684495E+01 -0.18961118913E+01 -0.81303676577E+01  0.84910930631E+01  0.51100000000E-03 0.  1.
        -12    1    4    4    0    0  0.31303512040E+02  0.24815212781E+01  0.15762035289E+02  0.35135588373E+02  0.00000000000E+00 0.  1.
</event>
<event>
 8    1  0.1262344E-006  0.9118800E+02  0.7816164E-02  0.1184000E+00
        -11   -1    0    0    0    0  0.00000000000E+00  0.00000000000E+00  0.45593999997E+02  0.45594000000E+02  0.51100000000E-03 0.  1.
         11   -1    0    0    0    0 -0.00000000000E+00 -0.00000000000E+00 -0.45593999997E+02  0.45594000000E+02  0.51100000000E-03 0. -1.
         23    2    1    2    0    0  0.00000000000E+00 -0.22204460493E-15  0.00000000000E+00  0.91188000000E+02  0.91188000000E+02 0.  0.
    9900012    2    3    3    0    0 -0.11228413377E+02 -0.10175374312E+01 -0.35052364380E+02  0.54367069838E+02  0.39999967310E+02 0.  0.
        -12    1    3    3    0    0  0.11228413377E+02  0.10175374312E+01  0.35052364380E+02  0.36820930162E+02  0.00000000000E+00 0.  1.
         11    1    4    4    0    0 -0.74223337021E+01 -0.52249534812E+01 -0.10309163208E+02  0.13735720687E+02  0.51100000000E-03 0. -1.
        -11    1    4    4    0    0  0.89149739471E+01 -0.22047502252E+01 -0.24735857278E+02  0.26385608190E+02  0.51100000000E-03 0.  1.
        -12    1    4    4    0    0 -0.12721053622E+02  0.64121662751E+01 -0.73438934178E-02  0.14245740961E+02  0.00000000000E+00 0.  1.
</event>
<event>
 8    1  0.1262344E-006  0.9118800E+02  0.7816164E-02  0.1184000E+00
        -11   -1    0    0    0    0  0.00000000000E+00  0.00000000000E+00  0.45593999997E+02  0.45594000000E+02  0.51100000000E-03 0.  1.
         11   -1    0    0    0    0 -0.00000000000E+00 -0.00000000000E+00 -0.45593999997E+02  0.45594000000E+02  0.51100000000E-03 0. -1.
         23    2    1    2    0    0  0.00000000000E+00 -0.35527136788E-14  0.00000000000E+00  0.91188000000E+02  0.91188000000E+02 0.  0.
    9900012    2    3    3    0    0 -0.19665833230E+02  0.18035547698E+02 -0.25372554275E+02  0.54366912457E+02  0.39999608526E+02 0.  0.
        -12    1    3    3    0    0  0.19665833230E+02 -0.18035547698E+02  0.25372554275E+02  0.36821087543E+02  0.00000000000E+00 0.  1.
         11    1    4    4    0    0 -0.14766418665E+02 -0.20435073467E+01  0.12136842964E+00  0.14907641430E+02  0.51100000000E-03 0. -1.
        -11    1    4    4    0    0  0.87294995572E+01  0.80492371134E+01 -0.88153700245E+01  0.14788682482E+02  0.51100000000E-03 0.  1.
        -12    1    4    4    0    0 -0.13628914122E+02  0.12029817932E+02 -0.16678552680E+02  0.24670588544E+02  0.00000000000E+00 0.  1.
</event>
<event>
 8    1  0.1262344E-006  0.9118800E+02  0.7816164E-02  0.1184000E+00
        -11   -1    0    0    0    0  0.00000000000E+00  0.00000000000E+00  0.45593999997E+02  0.45594000000E+02  0.51100000000E-03 0.  1.
         11   -1    0    0    0    0 -0.00000000000E+00 -0.00000000000E+00 -0.45593999997E+02  0.45594000000E+02  0.51100000000E-03 0. -1.
         23    2    1    2    0    0  0.00000000000E+00 -0.35527136788E-14  0.00000000000E+00  0.91188000000E+02  0.91188000000E+02 0.  0.
    9900012    2    3    3    0    0  0.12536782896E+02 -0.26119959073E+02 -0.22723496275E+02  0.54367075645E+02  0.39999980548E+02 0.  0.
        -12    1    3    3    0    0 -0.12536782896E+02  0.26119959073E+02  0.22723496275E+02  0.36820924355E+02  0.00000000000E+00 0.  1.
         11    1    4    4    0    0  0.37435309214E+01  0.95900586228E+01 -0.87109049949E+01  0.13485663285E+02  0.51100000000E-03 0. -1.
        -11    1    4    4    0    0 -0.15414763219E+01 -0.15523279857E+02 -0.73507519141E+01  0.17244765024E+02  0.51100000000E-03 0.  1.
         12    1    4    4    0    0  0.10334728297E+02 -0.20186737839E+02 -0.66618393660E+01  0.23636647336E+02  0.00000000000E+00 0. -1.
</event>
<event>
 8    1  0.1262344E-006  0.9118800E+02  0.7816164E-02  0.1184000E+00
        -11   -1    0    0    0    0  0.00000000000E+00  0.00000000000E+00  0.45593999997E+02  0.45594000000E+02  0.51100000000E-03 0.  1.
         11   -1    0    0    0    0 -0.00000000000E+00 -0.00000000000E+00 -0.45593999997E+02  0.45594000000E+02  0.51100000000E-03 0. -1.
         23    2    1    2    0    0  0.00000000000E+00  0.00000000000E+00  0.17763568394E-14  0.91188000000E+02  0.91188000000E+02 0.  0.
    9900012    2    3    3    0    0 -0.27945726035E+02  0.18471284036E+02  0.15284968652E+02  0.54367052100E+02  0.39999926872E+02 0.  0.
        -12    1    3    3    0    0  0.27945726035E+02 -0.18471284036E+02 -0.15284968652E+02  0.36820947900E+02  0.00000000000E+00 0.  1.
         11    1    4    4    0    0 -0.14096329811E+02  0.27270117337E+02  0.21980749231E+01  0.30776571403E+02  0.51100000000E-03 0. -1.
        -11    1    4    4    0    0 -0.14568243662E+02 -0.47906768815E+01  0.88148478326E+01  0.17688579676E+02  0.51100000000E-03 0.  1.
         12    1    4    4    0    0  0.71884743705E+00 -0.40081564196E+01  0.42720458960E+01  0.59019010208E+01  0.00000000000E+00 0. -1.
</event>
<event>
 8    1  0.1262344E-006  0.9118800E+02  0.7816164E-02  0.1184000E+00
        -11   -1    0    0    0    0  0.00000000000E+00  0.00000000000E+00  0.45593999997E+02  0.45594000000E+02  0.51100000000E-03 0.  1.
         11   -1    0    0    0    0 -0.00000000000E+00 -0.00000000000E+00 -0.45593999997E+02  0.45594000000E+02  0.51100000000E-03 0. -1.
         23    2    1    2    0    0  0.17763568394E-14  0.88817841970E-15  0.00000000000E+00  0.91188000000E+02  0.91188000000E+02 0.  0.
    9900012    2    3    3    0    0 -0.50109103136E+01  0.65848914807E+01 -0.35879098806E+02  0.54367085439E+02  0.40000002875E+02 0.  0.
        -12    1    3    3    0    0  0.50109103136E+01 -0.65848914807E+01  0.35879098806E+02  0.36820914561E+02  0.00000000000E+00 0.  1.
         11    1    4    4    0    0  0.75442594555E+01  0.35666300073E+01 -0.23583341769E+02  0.25016208938E+02  0.51100000000E-03 0. -1.
        -11    1    4    4    0    0  0.17927882683E+01 -0.86346678699E+00  0.56842667247E+01  0.60225038917E+01  0.51100000000E-03 0.  1.
         12    1    4    4    0    0 -0.14347958037E+02  0.38817282604E+01 -0.17980023762E+02  0.23328372609E+02  0.00000000000E+00 0. -1.
</event>
<event>
 8    1  0.1262344E-006  0.9118800E+02  0.7816164E-02  0.1184000E+00
        -11   -1    0    0    0    0  0.00000000000E+00  0.00000000000E+00  0.45593999997E+02  0.45594000000E+02  0.51100000000E-03 0.  1.
         11   -1    0    0    0    0 -0.00000000000E+00 -0.00000000000E+00 -0.45593999997E+02  0.45594000000E+02  0.51100000000E-03 0. -1.
         23    2    1    2    0    0 -0.88817841970E-15  0.71054273576E-14 -0.17763568394E-14  0.91188000000E+02  0.91188000000E+02 0.  0.
    9900012    2    3    3    0    0 -0.45299001174E+01 -0.35110568239E+02 -0.10124591484E+02  0.54367090861E+02  0.40000015236E+02 0.  0.
        -12    1    3    3    0    0  0.45299001174E+01  0.35110568239E+02  0.10124591484E+02  0.36820909139E+02  0.00000000000E+00 0.  1.
         11    1    4    4    0    0 -0.63239600652E+00 -0.23450480510E+02 -0.13941046530E+02  0.27288784133E+02  0.51100000000E-03 0. -1.
        -11    1    4    4    0    0  0.33823633777E+01  0.51558521916E+01 -0.37903058162E+01  0.72380668885E+01  0.51100000000E-03 0.  1.
        -12    1    4    4    0    0 -0.72798674886E+01 -0.16815939920E+02  0.76067608622E+01  0.19840239839E+02  0.00000000000E+00 0.  1.
</event>
<event>
 8    1  0.1262344E-006  0.9118800E+02  0.7816164E-02  0.1184000E+00
        -11   -1    0    0    0    0  0.00000000000E+00  0.00000000000E+00  0.45593999997E+02  0.45594000000E+02  0.51100000000E-03 0.  1.
         11   -1    0    0    0    0 -0.00000000000E+00 -0.00000000000E+00 -0.45593999997E+02  0.45594000000E+02  0.51100000000E-03 0. -1.
         23    2    1    2    0    0  0.00000000000E+00  0.00000000000E+00  0.00000000000E+00  0.91188000000E+02  0.91188000000E+02 0.  0.
    9900012    2    3    3    0    0  0.10201428910E+02 -0.99176957672E+01  0.33961015006E+02  0.54367076853E+02  0.39999983302E+02 0.  0.
         12    1    3    3    0    0 -0.10201428910E+02  0.99176957672E+01 -0.33961015006E+02  0.36820923147E+02  0.00000000000E+00 0. -1.
         11    1    4    4    0    0  0.44322692071E+00  0.58672200433E+01 -0.24310641165E+01  0.63663799870E+01  0.51100000000E-03 0. -1.
        -11    1    4    4    0    0 -0.45902577342E+01 -0.82115993762E+01  0.28394158575E+02  0.29912022195E+02  0.51100000000E-03 0.  1.
        -12    1    4    4    0    0  0.14348459723E+02 -0.75733164343E+01  0.79979205480E+01  0.18088674671E+02  0.00000000000E+00 0.  1.
</event>
<event>
 8    1  0.1262344E-006  0.9118800E+02  0.7816164E-02  0.1184000E+00
        -11   -1    0    0    0    0  0.00000000000E+00  0.00000000000E+00  0.45593999997E+02  0.45594000000E+02  0.51100000000E-03 0.  1.
         11   -1    0    0    0    0 -0.00000000000E+00 -0.00000000000E+00 -0.45593999997E+02  0.45594000000E+02  0.51100000000E-03 0. -1.
         23    2    1    2    0    0 -0.17763568394E-14  0.00000000000E+00  0.00000000000E+00  0.91188000000E+02  0.91188000000E+02 0.  0.
    9900012    2    3    3    0    0 -0.10506860291E+02  0.27106454433E+02  0.22597021428E+02  0.54367090689E+02  0.40000014843E+02 0.  0.
         12    1    3    3    0    0  0.10506860291E+02 -0.27106454433E+02 -0.22597021428E+02  0.36820909311E+02  0.00000000000E+00 0. -1.
         11    1    4    4    0    0 -0.67062380755E+01  0.28623513057E+01  0.13173721765E+02  0.15057012636E+02  0.51100000000E-03 0. -1.
        -11    1    4    4    0    0  0.55579159109E+01  0.10539091426E+02  0.17247386301E+02  0.20962710031E+02  0.51100000000E-03 0.  1.
         12    1    4    4    0    0 -0.93585381259E+01  0.13705011701E+02 -0.78240866384E+01  0.18347368021E+02  0.00000000000E+00 0. -1.
</event>
<event>
 8    1  0.1262344E-006  0.9118800E+02  0.7816164E-02  0.1184000E+00
        -11   -1    0    0    0    0  0.00000000000E+00  0.00000000000E+00  0.45593999997E+02  0.45594000000E+02  0.51100000000E-03 0. -1.
         11   -1    0    0    0    0 -0.00000000000E+00 -0.00000000000E+00 -0.45593999997E+02  0.45594000000E+02  0.51100000000E-03 0.  1.
         23    2    1    2    0    0  0.00000000000E+00 -0.88817841970E-15  0.00000000000E+00  0.91188000000E+02  0.91188000000E+02 0.  0.
    9900012    2    3    3    0    0 -0.95069902949E+01  0.73718611795E+01 -0.34800155819E+02  0.54367108556E+02  0.40000055575E+02 0.  0.
         12    1    3    3    0    0  0.95069902949E+01 -0.73718611795E+01  0.34800155819E+02  0.36820891444E+02  0.00000000000E+00 0. -1.
         11    1    4    4    0    0 -0.38676599240E+01  0.23533407137E+01 -0.12518368290E+02  0.13311895083E+02  0.51100000000E-03 0.  1.
        -11    1    4    4    0    0 -0.10836769810E+02  0.95800542885E+01 -0.28368271894E+02  0.31842924970E+02  0.51100000000E-03 0. -1.
         12    1    4    4    0    0  0.51974394395E+01 -0.45615338227E+01  0.60864843648E+01  0.92122885032E+01  0.00000000000E+00 0. -1.
</event>
<event>
 8    1  0.1262344E-006  0.9118800E+02  0.7816164E-02  0.1184000E+00
        -11   -1    0    0    0    0  0.00000000000E+00  0.00000000000E+00  0.45593999997E+02  0.45594000000E+02  0.51100000000E-03 0. -1.
         11   -1    0    0    0    0 -0.00000000000E+00 -0.00000000000E+00 -0.45593999997E+02  0.45594000000E+02  0.51100000000E-03 0.  1.
         23    2    1    2    0    0  0.00000000000E+00  0.88817841970E-15  0.00000000000E+00  0.91188000000E+02  0.91188000000E+02 0.  0.
    9900012    2    3    3    0    0  0.47911515464E+01  0.68330499036E+01 -0.35862756370E+02  0.54367041314E+02  0.39999902283E+02 0.  0.
         12    1    3    3    0    0 -0.47911515464E+01 -0.68330499036E+01  0.35862756370E+02  0.36820958686E+02  0.00000000000E+00 0. -1.
         11    1    4    4    0    0  0.46408810535E+01 -0.35768339549E+01  0.53353437668E+01  0.79244817790E+01  0.51100000000E-03 0. -1.
        -11    1    4    4    0    0 -0.19923367662E+00 -0.16555173531E+01 -0.29781885302E+02  0.29828528696E+02  0.51100000000E-03 0.  1.
         12    1    4    4    0    0  0.34950416957E+00  0.12065401212E+02 -0.11416214835E+02  0.16614030839E+02  0.00000000000E+00 0. -1.
</event>
<event>
 8    1  0.1262344E-006  0.9118800E+02  0.7816164E-02  0.1184000E+00
        -11   -1    0    0    0    0  0.00000000000E+00  0.00000000000E+00  0.45593999997E+02  0.45594000000E+02  0.51100000000E-03 0. -1.
         11   -1    0    0    0    0 -0.00000000000E+00 -0.00000000000E+00 -0.45593999997E+02  0.45594000000E+02  0.51100000000E-03 0.  1.
         23    2    1    2    0    0  0.00000000000E+00  0.26645352591E-14  0.35527136788E-14  0.91188000000E+02  0.91188000000E+02 0.  0.
    9900012    2    3    3    0    0  0.19896323775E+02  0.62460007598E+01  0.30346404057E+02  0.54367075725E+02  0.39999980731E+02 0.  0.
        -12    1    3    3    0    0 -0.19896323775E+02 -0.62460007598E+01 -0.30346404057E+02  0.36820924275E+02  0.00000000000E+00 0.  1.
         11    1    4    4    0    0  0.85954332280E+01  0.75903646318E+01  0.20128723854E+02  0.23165936887E+02  0.51100000000E-03 0. -1.
        -11    1    4    4    0    0  0.11404642373E+02 -0.13240161398E+02  0.47519965387E+01  0.18109368097E+02  0.51100000000E-03 0.  1.
        -12    1    4    4    0    0 -0.10375182573E+00  0.11895797526E+02  0.54656836644E+01  0.13091770741E+02  0.00000000000E+00 0.  1.
</event>
<event>
 8    1  0.1262344E-006  0.9118800E+02  0.7816164E-02  0.1184000E+00
        -11   -1    0    0    0    0  0.00000000000E+00  0.00000000000E+00  0.45593999997E+02  0.45594000000E+02  0.51100000000E-03 0.  1.
         11   -1    0    0    0    0 -0.00000000000E+00 -0.00000000000E+00 -0.45593999997E+02  0.45594000000E+02  0.51100000000E-03 0. -1.
         23    2    1    2    0    0  0.00000000000E+00  0.00000000000E+00  0.00000000000E+00  0.91188000000E+02  0.91188000000E+02 0.  0.
    9900012    2    3    3    0    0  0.27735034002E+02 -0.20499351142E+02  0.12896523660E+02  0.54367138647E+02  0.40000124172E+02 0.  0.
         12    1    3    3    0    0 -0.27735034002E+02  0.20499351142E+02 -0.12896523660E+02  0.36820861353E+02  0.00000000000E+00 0. -1.
         11    1    4    4    0    0 -0.37230050186E+00 -0.10205849604E+02 -0.37937741232E+00  0.10219682054E+02  0.51100000000E-03 0. -1.
        -11    1    4    4    0    0  0.15153894858E+02 -0.16699656467E+02 -0.25762169407E+01  0.22697047153E+02  0.51100000000E-03 0.  1.
        -12    1    4    4    0    0  0.12953439645E+02  0.64061549292E+01  0.15852118013E+02  0.21450409439E+02  0.00000000000E+00 0.  1.
</event>
<event>
 8    1  0.1262344E-006  0.9118800E+02  0.7816164E-02  0.1184000E+00
        -11   -1    0    0    0    0  0.00000000000E+00  0.00000000000E+00  0.45593999997E+02  0.45594000000E+02  0.51100000000E-03 0.  1.
         11   -1    0    0    0    0 -0.00000000000E+00 -0.00000000000E+00 -0.45593999997E+02  0.45594000000E+02  0.51100000000E-03 0. -1.
         23    2    1    2    0    0 -0.35527136788E-14 -0.35527136788E-14 -0.35527136788E-14  0.91188000000E+02  0.91188000000E+02 0.  0.
    9900012    2    3    3    0    0 -0.21777044403E+02  0.24085888910E+02 -0.17361440019E+02  0.54366955650E+02  0.39999706993E+02 0.  0.
         12    1    3    3    0    0  0.21777044403E+02 -0.24085888910E+02  0.17361440019E+02  0.36821044350E+02  0.00000000000E+00 0. -1.
         11    1    4    4    0    0  0.95663079505E+00 -0.17291111242E+01 -0.50251653352E+01  0.53997457964E+01  0.51100000000E-03 0. -1.
        -11    1    4    4    0    0 -0.52083084950E+01  0.17444630116E+02 -0.20920685226E+02  0.27732952743E+02  0.51100000000E-03 0.  1.
         12    1    4    4    0    0 -0.17525366703E+02  0.83703699184E+01  0.85844105428E+01  0.21234257110E+02  0.00000000000E+00 0. -1.
</event>
<event>
 8    1  0.1262344E-006  0.9118800E+02  0.7816164E-02  0.1184000E+00
        -11   -1    0    0    0    0  0.00000000000E+00  0.00000000000E+00  0.45593999997E+02  0.45594000000E+02  0.51100000000E-03 0.  1.
         11   -1    0    0    0    0 -0.00000000000E+00 -0.00000000000E+00 -0.45593999997E+02  0.45594000000E+02  0.51100000000E-03 0. -1.
         23    2    1    2    0    0  0.71054273576E-14  0.00000000000E+00  0.44408920985E-15  0.91188000000E+02  0.91188000000E+02 0.  0.
    9900012    2    3    3    0    0 -0.35357097296E+02  0.10012533696E+02 -0.23246651665E+01  0.54367092510E+02  0.40000018996E+02 0.  0.
        -12    1    3    3    0    0  0.35357097296E+02 -0.10012533696E+02  0.23246651665E+01  0.36820907490E+02  0.00000000000E+00 0.  1.
         11    1    4    4    0    0 -0.17005692894E+02 -0.67536528252E+01 -0.58065566938E+01  0.19196914289E+02  0.51100000000E-03 0. -1.
        -11    1    4    4    0    0  0.55594836570E+01  0.57983762155E+01  0.37437327528E+01  0.88625369085E+01  0.51100000000E-03 0.  1.
        -12    1    4    4    0    0 -0.23910888058E+02  0.10967810306E+02 -0.26184122550E+00  0.26307641313E+02  0.00000000000E+00 0.  1.
</event>
<event>
 8    1  0.1262344E-006  0.9118800E+02  0.7816164E-02  0.1184000E+00
        -11   -1    0    0    0    0  0.00000000000E+00  0.00000000000E+00  0.45593999997E+02  0.45594000000E+02  0.51100000000E-03 0. -1.
         11   -1    0    0    0    0 -0.00000000000E+00 -0.00000000000E+00 -0.45593999997E+02  0.45594000000E+02  0.51100000000E-03 0.  1.
         23    2    1    2    0    0 -0.35527136788E-14  0.35527136788E-14  0.17763568394E-14  0.91188000000E+02  0.91188000000E+02 0.  0.
    9900012    2    3    3    0    0  0.23637979457E+02 -0.26256443436E+02 -0.10374045157E+02  0.54367140319E+02  0.40000127984E+02 0.  0.
         12    1    3    3    0    0 -0.23637979457E+02  0.26256443436E+02  0.10374045157E+02  0.36820859681E+02  0.00000000000E+00 0. -1.
         11    1    4    4    0    0  0.53315695283E+01  0.92635906776E+01 -0.61684663612E+01  0.12340572247E+02  0.51100000000E-03 0. -1.
        -11    1    4    4    0    0  0.70182626777E+01 -0.89026094177E+01 -0.64231360353E+01  0.13029548812E+02  0.51100000000E-03 0.  1.
        -12    1    4    4    0    0  0.11288147251E+02 -0.26617424696E+02  0.22175572392E+01  0.28997019259E+02  0.00000000000E+00 0.  1.
</event>
<event>
 8    1  0.1262344E-006  0.9118800E+02  0.7816164E-02  0.1184000E+00
        -11   -1    0    0    0    0  0.00000000000E+00  0.00000000000E+00  0.45593999997E+02  0.45594000000E+02  0.51100000000E-03 0. -1.
         11   -1    0    0    0    0 -0.00000000000E+00 -0.00000000000E+00 -0.45593999997E+02  0.45594000000E+02  0.51100000000E-03 0.  1.
         23    2    1    2    0    0  0.35527136788E-14  0.00000000000E+00  0.00000000000E+00  0.91188000000E+02  0.91188000000E+02 0.  0.
    9900012    2    3    3    0    0  0.25922405436E+02  0.17155464479E+02  0.19735632836E+02  0.54367132703E+02  0.40000110623E+02 0.  0.
        -12    1    3    3    0    0 -0.25922405436E+02 -0.17155464479E+02 -0.19735632836E+02  0.36820867297E+02  0.00000000000E+00 0.  1.
         11    1    4    4    0    0  0.29795534167E+02  0.19574781751E+02  0.11913722784E+02  0.37588332335E+02  0.51100000000E-03 0. -1.
        -11    1    4    4    0    0  0.41836194712E+01  0.14275490744E+01  0.63395579402E+01  0.77285550641E+01  0.51100000000E-03 0.  1.
         12    1    4    4    0    0 -0.80567482020E+01 -0.38468663464E+01  0.14823521115E+01  0.90502453039E+01  0.00000000000E+00 0. -1.
</event>
<event>
 8    1  0.1262344E-006  0.9118800E+02  0.7816164E-02  0.1184000E+00
        -11   -1    0    0    0    0  0.00000000000E+00  0.00000000000E+00  0.45593999997E+02  0.45594000000E+02  0.51100000000E-03 0.  1.
         11   -1    0    0    0    0 -0.00000000000E+00 -0.00000000000E+00 -0.45593999997E+02  0.45594000000E+02  0.51100000000E-03 0. -1.
         23    2    1    2    0    0  0.00000000000E+00  0.00000000000E+00 -0.16653345369E-14  0.91188000000E+02  0.91188000000E+02 0.  0.
    9900012    2    3    3    0    0 -0.30686787997E+02  0.20340057690E+02 -0.61986828166E+00  0.54367066537E+02  0.39999959785E+02 0.  0.
        -12    1    3    3    0    0  0.30686787997E+02 -0.20340057690E+02  0.61986828166E+00  0.36820933463E+02  0.00000000000E+00 0.  1.
         11    1    4    4    0    0 -0.24143985495E+02  0.25562319049E+02 -0.13747837903E+02  0.37754036049E+02  0.51100000000E-03 0. -1.
        -11    1    4    4    0    0 -0.30982149977E+01  0.72683722822E+00  0.54177079631E+01  0.62832148112E+01  0.51100000000E-03 0.  1.
         12    1    4    4    0    0 -0.34445875039E+01 -0.59490985877E+01  0.77102616583E+01  0.10329815677E+02  0.00000000000E+00 0. -1.
</event>
<event>
 8    1  0.1262344E-006  0.9118800E+02  0.7816164E-02  0.1184000E+00
        -11   -1    0    0    0    0  0.00000000000E+00  0.00000000000E+00  0.45593999997E+02  0.45594000000E+02  0.51100000000E-03 0.  1.
         11   -1    0    0    0    0 -0.00000000000E+00 -0.00000000000E+00 -0.45593999997E+02  0.45594000000E+02  0.51100000000E-03 0. -1.
         23    2    1    2    0    0  0.88817841970E-15 -0.35527136788E-14  0.35527136788E-14  0.91188000000E+02  0.91188000000E+02 0.  0.
    9900012    2    3    3    0    0  0.70023044831E+01 -0.20176100787E+02  0.29994517233E+02  0.54367104097E+02  0.40000045410E+02 0.  0.
         12    1    3    3    0    0 -0.70023044831E+01  0.20176100787E+02 -0.29994517233E+02  0.36820895903E+02  0.00000000000E+00 0. -1.
         11    1    4    4    0    0 -0.50959751655E+01  0.25778834061E+01 -0.27330724166E+00  0.57174419851E+01  0.51100000000E-03 0. -1.
        -11    1    4    4    0    0 -0.30748096173E+00 -0.84634507978E+01  0.28397353351E+02  0.29633329572E+02  0.51100000000E-03 0.  1.
        -12    1    4    4    0    0  0.12405760610E+02 -0.14290533395E+02  0.18704711244E+01  0.19016332540E+02  0.00000000000E+00 0.  1.
</event>
<event>
 8    1  0.1262344E-006  0.9118800E+02  0.7816164E-02  0.1184000E+00
        -11   -1    0    0    0    0  0.00000000000E+00  0.00000000000E+00  0.45593999997E+02  0.45594000000E+02  0.51100000000E-03 0.  1.
         11   -1    0    0    0    0 -0.00000000000E+00 -0.00000000000E+00 -0.45593999997E+02  0.45594000000E+02  0.51100000000E-03 0. -1.
         23    2    1    2    0    0  0.26645352591E-14 -0.71054273576E-14 -0.88817841970E-15  0.91188000000E+02  0.91188000000E+02 0.  0.
    9900012    2    3    3    0    0 -0.33375016517E+01  0.35959106416E+02 -0.71821440006E+01  0.54367089583E+02  0.40000012323E+02 0.  0.
        -12    1    3    3    0    0  0.33375016517E+01 -0.35959106416E+02  0.71821440006E+01  0.36820910417E+02  0.00000000000E+00 0.  1.
         11    1    4    4    0    0  0.52082323634E+01  0.58303014150E+00 -0.49651767451E+01  0.72193205268E+01  0.51100000000E-03 0. -1.
        -11    1    4    4    0    0 -0.42194622577E+01  0.29117485171E+00  0.90958471383E+01  0.10031105620E+02  0.51100000000E-03 0.  1.
         12    1    4    4    0    0 -0.43262717574E+01  0.35084901422E+02 -0.11312814394E+02  0.37116663436E+02  0.00000000000E+00 0. -1.
</event>
<event>
 8    1  0.1262344E-006  0.9118800E+02  0.7816164E-02  0.1184000E+00
        -11   -1    0    0    0    0  0.00000000000E+00  0.00000000000E+00  0.45593999997E+02  0.45594000000E+02  0.51100000000E-03 0.  1.
         11   -1    0    0    0    0 -0.00000000000E+00 -0.00000000000E+00 -0.45593999997E+02  0.45594000000E+02  0.51100000000E-03 0. -1.
         23    2    1    2    0    0 -0.17763568394E-14  0.00000000000E+00  0.00000000000E+00  0.91188000000E+02  0.91188000000E+02 0.  0.
    9900012    2    3    3    0    0 -0.13828090252E+02  0.41580143171E+01 -0.33871451791E+02  0.54367076472E+02  0.39999982432E+02 0.  0.
        -12    1    3    3    0    0  0.13828090252E+02 -0.41580143171E+01  0.33871451791E+02  0.36820923528E+02  0.00000000000E+00 0.  1.
         11    1    4    4    0    0 -0.13349564549E+02  0.30372673232E+01 -0.30091519900E+02  0.33059574053E+02  0.51100000000E-03 0. -1.
        -11    1    4    4    0    0 -0.43180196697E+00  0.79399772472E+00 -0.12524318646E+02  0.12556888274E+02  0.51100000000E-03 0.  1.
        -12    1    4    4    0    0 -0.46723735856E-01  0.32674926918E+00  0.87443867545E+01  0.87506141445E+01  0.00000000000E+00 0.  1.
</event>
<event>
 8    1  0.1262344E-006  0.9118800E+02  0.7816164E-02  0.1184000E+00
        -11   -1    0    0    0    0  0.00000000000E+00  0.00000000000E+00  0.45593999997E+02  0.45594000000E+02  0.51100000000E-03 0.  1.
         11   -1    0    0    0    0 -0.00000000000E+00 -0.00000000000E+00 -0.45593999997E+02  0.45594000000E+02  0.51100000000E-03 0. -1.
         23    2    1    2    0    0  0.88817841970E-15 -0.35527136788E-14  0.35527136788E-14  0.91188000000E+02  0.91188000000E+02 0.  0.
    9900012    2    3    3    0    0 -0.58688200684E+01 -0.25598283282E+02 -0.25808217446E+02  0.54367092302E+02  0.40000018520E+02 0.  0.
        -12    1    3    3    0    0  0.58688200684E+01  0.25598283282E+02  0.25808217446E+02  0.36820907698E+02  0.00000000000E+00 0.  1.
         11    1    4    4    0    0 -0.13878982633E+01 -0.20787418977E+02 -0.19971974340E+02  0.28860402087E+02  0.51100000000E-03 0. -1.
        -11    1    4    4    0    0  0.27888074689E+01 -0.69797313214E+01  0.72098521602E+01  0.10415184341E+02  0.51100000000E-03 0.  1.
        -12    1    4    4    0    0 -0.72697292739E+01  0.21688670161E+01 -0.13046095267E+02  0.15091505874E+02  0.00000000000E+00 0.  1.
</event>
<event>
 8    1  0.1262344E-006  0.9118800E+02  0.7816164E-02  0.1184000E+00
        -11   -1    0    0    0    0  0.00000000000E+00  0.00000000000E+00  0.45593999997E+02  0.45594000000E+02  0.51100000000E-03 0. -1.
         11   -1    0    0    0    0 -0.00000000000E+00 -0.00000000000E+00 -0.45593999997E+02  0.45594000000E+02  0.51100000000E-03 0.  1.
         23    2    1    2    0    0 -0.35527136788E-14 -0.35527136788E-14 -0.44408920985E-15  0.91188000000E+02  0.91188000000E+02 0.  0.
    9900012    2    3    3    0    0 -0.31098633194E+02 -0.19605232129E+02  0.20708084089E+01  0.54367104290E+02  0.40000045851E+02 0.  0.
        -12    1    3    3    0    0  0.31098633194E+02  0.19605232129E+02 -0.20708084089E+01  0.36820895710E+02  0.00000000000E+00 0.  1.
         11    1    4    4    0    0 -0.19875114197E+02 -0.24236930769E+02 -0.34967960797E+01  0.31538493314E+02  0.51100000000E-03 0. -1.
        -11    1    4    4    0    0 -0.13092081682E+02  0.16995984701E+01 -0.30381636009E+01  0.13547017238E+02  0.51100000000E-03 0.  1.
        -12    1    4    4    0    0  0.18685626849E+01  0.29321001691E+01  0.86057680895E+01  0.92815937381E+01  0.00000000000E+00 0.  1.
</event>
<event>
 8    1  0.1262344E-006  0.9118800E+02  0.7816164E-02  0.1184000E+00
        -11   -1    0    0    0    0  0.00000000000E+00  0.00000000000E+00  0.45593999997E+02  0.45594000000E+02  0.51100000000E-03 0. -1.
         11   -1    0    0    0    0 -0.00000000000E+00 -0.00000000000E+00 -0.45593999997E+02  0.45594000000E+02  0.51100000000E-03 0.  1.
         23    2    1    2    0    0  0.00000000000E+00 -0.77715611724E-15  0.35527136788E-14  0.91188000000E+02  0.91188000000E+02 0.  0.
    9900012    2    3    3    0    0 -0.32512373707E+02 -0.36614838206E+00  0.17279830762E+02  0.54367067640E+02  0.39999962298E+02 0.  0.
        -12    1    3    3    0    0  0.32512373707E+02  0.36614838206E+00 -0.17279830762E+02  0.36820932360E+02  0.00000000000E+00 0.  1.
         11    1    4    4    0    0  0.56614560899E+01  0.22575484272E+01  0.50032743610E+01  0.78855161246E+01  0.51100000000E-03 0. -1.
        -11    1    4    4    0    0 -0.34914698563E+01  0.32515731395E+01 -0.53227831059E+01  0.71480843512E+01  0.51100000000E-03 0.  1.
         12    1    4    4    0    0 -0.34682359941E+02 -0.58752699487E+01  0.17599339507E+02  0.39333467164E+02  0.00000000000E+00 0. -1.
</event>
<event>
 8    1  0.1262344E-006  0.9118800E+02  0.7816164E-02  0.1184000E+00
        -11   -1    0    0    0    0  0.00000000000E+00  0.00000000000E+00  0.45593999997E+02  0.45594000000E+02  0.51100000000E-03 0.  1.
         11   -1    0    0    0    0 -0.00000000000E+00 -0.00000000000E+00 -0.45593999997E+02  0.45594000000E+02  0.51100000000E-03 0. -1.
         23    2    1    2    0    0 -0.35527136788E-14  0.71054273576E-14 -0.17763568394E-14  0.91188000000E+02  0.91188000000E+02 0.  0.
    9900012    2    3    3    0    0  0.23674554088E+02 -0.26149252903E+02  0.10559938053E+02  0.54367078904E+02  0.39999987978E+02 0.  0.
         12    1    3    3    0    0 -0.23674554088E+02  0.26149252903E+02 -0.10559938053E+02  0.36820921096E+02  0.00000000000E+00 0. -1.
         11    1    4    4    0    0  0.32807127439E+01 -0.70636151414E+01 -0.10062300025E+02  0.12724292398E+02  0.51100000000E-03 0. -1.
        -11    1    4    4    0    0  0.58062729540E+01  0.43041091242E+01  0.18202876914E-01  0.72276201183E+01  0.51100000000E-03 0.  1.
        -12    1    4    4    0    0  0.14587568390E+02 -0.23389746885E+02  0.20604035202E+02  0.34415166388E+02  0.00000000000E+00 0.  1.
</event>
<event>
 8    1  0.1262344E-006  0.9118800E+02  0.7816164E-02  0.1184000E+00
        -11   -1    0    0    0    0  0.00000000000E+00  0.00000000000E+00  0.45593999997E+02  0.45594000000E+02  0.51100000000E-03 0. -1.
         11   -1    0    0    0    0 -0.00000000000E+00 -0.00000000000E+00 -0.45593999997E+02  0.45594000000E+02  0.51100000000E-03 0.  1.
         23    2    1    2    0    0  0.00000000000E+00  0.00000000000E+00  0.00000000000E+00  0.91188000000E+02  0.91188000000E+02 0.  0.
    9900012    2    3    3    0    0 -0.13574297054E+02 -0.16461219503E+02 -0.30009103328E+02  0.54367087863E+02  0.40000008401E+02 0.  0.
         12    1    3    3    0    0  0.13574297054E+02  0.16461219503E+02  0.30009103328E+02  0.36820912137E+02  0.00000000000E+00 0. -1.
         11    1    4    4    0    0 -0.28714973596E+01  0.53863995339E+01  0.45073521728E+01  0.75878205630E+01  0.51100000000E-03 0. -1.
        -11    1    4    4    0    0 -0.15350619503E+02 -0.98839141190E+01 -0.24186625059E+02  0.30303895945E+02  0.51100000000E-03 0.  1.
        -12    1    4    4    0    0  0.46478198081E+01 -0.11963704918E+02 -0.10329830442E+02  0.16475371355E+02  0.00000000000E+00 0.  1.
</event>
<event>
 8    1  0.1262344E-006  0.9118800E+02  0.7816164E-02  0.1184000E+00
        -11   -1    0    0    0    0  0.00000000000E+00  0.00000000000E+00  0.45593999997E+02  0.45594000000E+02  0.51100000000E-03 0. -1.
         11   -1    0    0    0    0 -0.00000000000E+00 -0.00000000000E+00 -0.45593999997E+02  0.45594000000E+02  0.51100000000E-03 0.  1.
         23    2    1    2    0    0 -0.17763568394E-14  0.00000000000E+00  0.00000000000E+00  0.91188000000E+02  0.91188000000E+02 0.  0.
    9900012    2    3    3    0    0 -0.15196713204E+02  0.52011011088E+01  0.33132900573E+02  0.54367073269E+02  0.39999975131E+02 0.  0.
        -12    1    3    3    0    0  0.15196713204E+02 -0.52011011088E+01 -0.33132900573E+02  0.36820926731E+02  0.00000000000E+00 0.  1.
         11    1    4    4    0    0 -0.18908310831E+02 -0.37459898317E+01  0.20862522115E+02  0.28404251223E+02  0.51100000000E-03 0. -1.
        -11    1    4    4    0    0 -0.86392588669E+01  0.31388642816E+01  0.41893603561E+01  0.10101485198E+02  0.51100000000E-03 0.  1.
        -12    1    4    4    0    0  0.12350856493E+02  0.58082266589E+01  0.80810181024E+01  0.15861336848E+02  0.00000000000E+00 0.  1.
</event>
<event>
 8    1  0.1262344E-006  0.9118800E+02  0.7816164E-02  0.1184000E+00
        -11   -1    0    0    0    0  0.00000000000E+00  0.00000000000E+00  0.45593999997E+02  0.45594000000E+02  0.51100000000E-03 0. -1.
         11   -1    0    0    0    0 -0.00000000000E+00 -0.00000000000E+00 -0.45593999997E+02  0.45594000000E+02  0.51100000000E-03 0.  1.
         23    2    1    2    0    0  0.00000000000E+00  0.00000000000E+00 -0.26645352591E-14  0.91188000000E+02  0.91188000000E+02 0.  0.
    9900012    2    3    3    0    0 -0.17669982721E+02  0.31317048379E+02 -0.79242156193E+01  0.54367095588E+02  0.40000026013E+02 0.  0.
        -12    1    3    3    0    0  0.17669982721E+02 -0.31317048379E+02  0.79242156193E+01  0.36820904412E+02  0.00000000000E+00 0.  1.
         11    1    4    4    0    0 -0.11034989086E+02  0.34957781448E+02 -0.14575174209E+02  0.39449374791E+02  0.51100000000E-03 0. -1.
        -11    1    4    4    0    0 -0.71845531581E+01 -0.30502443509E+01 -0.40505801476E+00  0.78157448102E+01  0.51100000000E-03 0.  1.
         12    1    4    4    0    0  0.54955952327E+00 -0.59048871853E+00  0.70560166049E+01  0.71019759874E+01  0.00000000000E+00 0. -1.
</event>
<event>
 8    1  0.1262344E-006  0.9118800E+02  0.7816164E-02  0.1184000E+00
        -11   -1    0    0    0    0  0.00000000000E+00  0.00000000000E+00  0.45593999997E+02  0.45594000000E+02  0.51100000000E-03 0. -1.
         11   -1    0    0    0    0 -0.00000000000E+00 -0.00000000000E+00 -0.45593999997E+02  0.45594000000E+02  0.51100000000E-03 0.  1.
         23    2    1    2    0    0  0.35527136788E-14  0.00000000000E+00 -0.72164496601E-15  0.91188000000E+02  0.91188000000E+02 0.  0.
    9900012    2    3    3    0    0 -0.26030987914E+02 -0.26040867532E+02 -0.20132228821E+00  0.54367086863E+02  0.40000006122E+02 0.  0.
        -12    1    3    3    0    0  0.26030987914E+02  0.26040867532E+02  0.20132228821E+00  0.36820913137E+02  0.00000000000E+00 0.  1.
         11    1    4    4    0    0 -0.29044052584E+02 -0.68966756258E+01 -0.68931021959E+01  0.30637166699E+02  0.51100000000E-03 0. -1.
        -11    1    4    4    0    0 -0.15506363504E+01 -0.13675811872E+02 -0.27565525135E+00  0.13766200984E+02  0.51100000000E-03 0.  1.
         12    1    4    4    0    0  0.45637010207E+01 -0.54683800333E+01  0.69674351591E+01  0.99637191797E+01  0.00000000000E+00 0. -1.
</event>
<event>
 8    1  0.1262344E-006  0.9118800E+02  0.7816164E-02  0.1184000E+00
        -11   -1    0    0    0    0  0.00000000000E+00  0.00000000000E+00  0.45593999997E+02  0.45594000000E+02  0.51100000000E-03 0. -1.
         11   -1    0    0    0    0 -0.00000000000E+00 -0.00000000000E+00 -0.45593999997E+02  0.45594000000E+02  0.51100000000E-03 0.  1.
         23    2    1    2    0    0  0.44408920985E-15  0.88817841970E-15  0.00000000000E+00  0.91188000000E+02  0.91188000000E+02 0.  0.
    9900012    2    3    3    0    0  0.92330073656E+00 -0.29675229625E+01  0.36689515088E+02  0.54367092975E+02  0.40000020054E+02 0.  0.
        -12    1    3    3    0    0 -0.92330073656E+00  0.29675229625E+01 -0.36689515088E+02  0.36820907025E+02  0.00000000000E+00 0.  1.
         11    1    4    4    0    0 -0.97349147019E+01 -0.18198720316E+02  0.16938250956E+02  0.26699556759E+02  0.51100000000E-03 0. -1.
        -11    1    4    4    0    0  0.60858450127E+01  0.11281315467E+02  0.10271310673E+02  0.16425754515E+02  0.51100000000E-03 0.  1.
         12    1    4    4    0    0  0.45723704258E+01  0.39498818869E+01  0.94799534585E+01  0.11241781701E+02  0.00000000000E+00 0. -1.
</event>
<event>
 8    1  0.1262344E-006  0.9118800E+02  0.7816164E-02  0.1184000E+00
        -11   -1    0    0    0    0  0.00000000000E+00  0.00000000000E+00  0.45593999997E+02  0.45594000000E+02  0.51100000000E-03 0.  1.
         11   -1    0    0    0    0 -0.00000000000E+00 -0.00000000000E+00 -0.45593999997E+02  0.45594000000E+02  0.51100000000E-03 0. -1.
         23    2    1    2    0    0 -0.35527136788E-14  0.35527136788E-14  0.17763568394E-14  0.91188000000E+02  0.91188000000E+02 0.  0.
    9900012    2    3    3    0    0  0.23816224257E+02 -0.26597097877E+02  0.90089921171E+01  0.54367080778E+02  0.39999992250E+02 0.  0.
         12    1    3    3    0    0 -0.23816224257E+02  0.26597097877E+02 -0.90089921171E+01  0.36820919222E+02  0.00000000000E+00 0. -1.
         11    1    4    4    0    0  0.16974308331E+02 -0.23995669107E+02  0.12184067609E+01  0.29417746251E+02  0.51100000000E-03 0. -1.
        -11    1    4    4    0    0  0.38913478234E+01  0.64735878103E+01  0.12269396353E+02  0.14407914983E+02  0.51100000000E-03 0.  1.
        -12    1    4    4    0    0  0.29505681027E+01 -0.90750165804E+01 -0.44788109968E+01  0.10541419544E+02  0.00000000000E+00 0.  1.
</event>
<event>
 8    1  0.1262344E-006  0.9118800E+02  0.7816164E-02  0.1184000E+00
        -11   -1    0    0    0    0  0.00000000000E+00  0.00000000000E+00  0.45593999997E+02  0.45594000000E+02  0.51100000000E-03 0.  1.
         11   -1    0    0    0    0 -0.00000000000E+00 -0.00000000000E+00 -0.45593999997E+02  0.45594000000E+02  0.51100000000E-03 0. -1.
         23    2    1    2    0    0 -0.13322676296E-14  0.71054273576E-14 -0.35527136788E-14  0.91188000000E+02  0.91188000000E+02 0.  0.
    9900012    2    3    3    0    0  0.32768672586E+01 -0.28839347901E+02  0.22656848922E+02  0.54367100371E+02  0.40000036916E+02 0.  0.
         12    1    3    3    0    0 -0.32768672586E+01  0.28839347901E+02 -0.22656848922E+02  0.36820899629E+02  0.00000000000E+00 0. -1.
         11    1    4    4    0    0 -0.43282618668E+01 -0.63730537666E+01 -0.58163776402E+01  0.96529743713E+01  0.51100000000E-03 0. -1.
        -11    1    4    4    0    0  0.11371811172E+02 -0.14630988006E+02  0.42970056826E+01  0.19022306839E+02  0.51100000000E-03 0.  1.
         12    1    4    4    0    0 -0.37666820467E+01 -0.78353061288E+01  0.24176220880E+02  0.25691819161E+02  0.00000000000E+00 0. -1.
</event>
<event>
 8    1  0.1262344E-006  0.9118800E+02  0.7816164E-02  0.1184000E+00
        -11   -1    0    0    0    0  0.00000000000E+00  0.00000000000E+00  0.45593999997E+02  0.45594000000E+02  0.51100000000E-03 0.  1.
         11   -1    0    0    0    0 -0.00000000000E+00 -0.00000000000E+00 -0.45593999997E+02  0.45594000000E+02  0.51100000000E-03 0. -1.
         23    2    1    2    0    0  0.00000000000E+00  0.00000000000E+00  0.00000000000E+00  0.91188000000E+02  0.91188000000E+02 0.  0.
    9900012    2    3    3    0    0  0.26817133200E+02 -0.96909181651E+01  0.23296049150E+02  0.54367103298E+02  0.40000043588E+02 0.  0.
         12    1    3    3    0    0 -0.26817133200E+02  0.96909181651E+01 -0.23296049150E+02  0.36820896702E+02  0.00000000000E+00 0. -1.
         11    1    4    4    0    0 -0.23970692551E+01  0.38091844232E+01  0.67204132567E+01  0.80882495997E+01  0.51100000000E-03 0. -1.
        -11    1    4    4    0    0  0.32317074137E+02 -0.32827456727E+01  0.11533442372E+02  0.34470131899E+02  0.51100000000E-03 0.  1.
        -12    1    4    4    0    0 -0.31028716818E+01 -0.10217356916E+02  0.50421935211E+01  0.11808721799E+02  0.00000000000E+00 0.  1.
</event>
<event>
 8    1  0.1262344E-006  0.9118800E+02  0.7816164E-02  0.1184000E+00
        -11   -1    0    0    0    0  0.00000000000E+00  0.00000000000E+00  0.45593999997E+02  0.45594000000E+02  0.51100000000E-03 0.  1.
         11   -1    0    0    0    0 -0.00000000000E+00 -0.00000000000E+00 -0.45593999997E+02  0.45594000000E+02  0.51100000000E-03 0. -1.
         23    2    1    2    0    0  0.00000000000E+00  0.35527136788E-14  0.00000000000E+00  0.91188000000E+02  0.91188000000E+02 0.  0.
    9900012    2    3    3    0    0  0.17785917641E+02  0.27553046961E+02 -0.16741289740E+02  0.54367081417E+02  0.39999993705E+02 0.  0.
        -12    1    3    3    0    0 -0.17785917641E+02 -0.27553046961E+02  0.16741289740E+02  0.36820918583E+02  0.00000000000E+00 0.  1.
         11    1    4    4    0    0  0.12095423300E+02  0.16873410269E+02 -0.17927190052E+01  0.20838068063E+02  0.51100000000E-03 0. -1.
        -11    1    4    4    0    0 -0.68892502151E+01 -0.49460202367E+01  0.51143694933E-01  0.84810082329E+01  0.51100000000E-03 0.  1.
        -12    1    4    4    0    0  0.12579744556E+02  0.15625656929E+02 -0.14999714429E+02  0.25048005120E+02  0.00000000000E+00 0.  1.
</event>
<event>
 8    1  0.1262344E-006  0.9118800E+02  0.7816164E-02  0.1184000E+00
        -11   -1    0    0    0    0  0.00000000000E+00  0.00000000000E+00  0.45593999997E+02  0.45594000000E+02  0.51100000000E-03 0.  1.
         11   -1    0    0    0    0 -0.00000000000E+00 -0.00000000000E+00 -0.45593999997E+02  0.45594000000E+02  0.51100000000E-03 0. -1.
         23    2    1    2    0    0  0.00000000000E+00  0.00000000000E+00  0.00000000000E+00  0.91188000000E+02  0.91188000000E+02 0.  0.
    9900012    2    3    3    0    0 -0.16914415323E+02  0.21646030203E+02  0.24517984261E+02  0.54367087172E+02  0.40000006826E+02 0.  0.
         12    1    3    3    0    0  0.16914415323E+02 -0.21646030203E+02 -0.24517984261E+02  0.36820912828E+02  0.00000000000E+00 0. -1.
         11    1    4    4    0    0  0.39183620472E+01 -0.25251417685E+01  0.68560943131E+01  0.82907135745E+01  0.51100000000E-03 0. -1.
        -11    1    4    4    0    0 -0.27483184645E+02  0.22203886489E+02  0.12684258573E+02  0.37539691385E+02  0.51100000000E-03 0.  1.
        -12    1    4    4    0    0  0.66504072753E+01  0.19672854823E+01  0.49776313746E+01  0.85366822125E+01  0.00000000000E+00 0.  1.
</event>
<event>
 8    1  0.1262344E-006  0.9118800E+02  0.7816164E-02  0.1184000E+00
        -11   -1    0    0    0    0  0.00000000000E+00  0.00000000000E+00  0.45593999997E+02  0.45594000000E+02  0.51100000000E-03 0. -1.
         11   -1    0    0    0    0 -0.00000000000E+00 -0.00000000000E+00 -0.45593999997E+02  0.45594000000E+02  0.51100000000E-03 0.  1.
         23    2    1    2    0    0  0.00000000000E+00 -0.88817841970E-15  0.35527136788E-14  0.91188000000E+02  0.91188000000E+02 0.  0.
    9900012    2    3    3    0    0 -0.19257348484E+02  0.57144051074E+01 -0.30859030715E+02  0.54367086472E+02  0.40000005229E+02 0.  0.
         12    1    3    3    0    0  0.19257348484E+02 -0.57144051074E+01  0.30859030715E+02  0.36820913528E+02  0.00000000000E+00 0. -1.
         11    1    4    4    0    0 -0.56476969607E+00 -0.48577296491E+01 -0.17677890243E+01  0.52001519640E+01  0.51100000000E-03 0. -1.
        -11    1    4    4    0    0  0.45483196141E+01  0.68054351152E+01 -0.23616261241E+02  0.24994578485E+02  0.51100000000E-03 0.  1.
        -12    1    4    4    0    0 -0.23240898402E+02  0.37666996413E+01 -0.54749804506E+01  0.24172356022E+02  0.00000000000E+00 0.  1.
</event>
<event>
 8    1  0.1262344E-006  0.9118800E+02  0.7816164E-02  0.1184000E+00
        -11   -1    0    0    0    0  0.00000000000E+00  0.00000000000E+00  0.45593999997E+02  0.45594000000E+02  0.51100000000E-03 0.  1.
         11   -1    0    0    0    0 -0.00000000000E+00 -0.00000000000E+00 -0.45593999997E+02  0.45594000000E+02  0.51100000000E-03 0. -1.
         23    2    1    2    0    0  0.88817841970E-15  0.71054273576E-14  0.00000000000E+00  0.91188000000E+02  0.91188000000E+02 0.  0.
    9900012    2    3    3    0    0 -0.68450569566E+01 -0.30647091071E+02 -0.19227117875E+02  0.54367067670E+02  0.39999962367E+02 0.  0.
        -12    1    3    3    0    0  0.68450569566E+01  0.30647091071E+02  0.19227117875E+02  0.36820932330E+02  0.00000000000E+00 0.  1.
         11    1    4    4    0    0 -0.14731281639E+02 -0.25739455349E+02 -0.74843030048E+01  0.30586680306E+02  0.51100000000E-03 0. -1.
        -11    1    4    4    0    0 -0.92333097242E+00 -0.46938382951E+01  0.36678833127E+01  0.60281030418E+01  0.51100000000E-03 0.  1.
        -12    1    4    4    0    0  0.88095556544E+01 -0.21379742678E+00 -0.15410698183E+02  0.17752284322E+02  0.00000000000E+00 0.  1.
</event>
<event>
 8    1  0.1262344E-006  0.9118800E+02  0.7816164E-02  0.1184000E+00
        -11   -1    0    0    0    0  0.00000000000E+00  0.00000000000E+00  0.45593999997E+02  0.45594000000E+02  0.51100000000E-03 0.  1.
         11   -1    0    0    0    0 -0.00000000000E+00 -0.00000000000E+00 -0.45593999997E+02  0.45594000000E+02  0.51100000000E-03 0. -1.
         23    2    1    2    0    0  0.00000000000E+00  0.00000000000E+00  0.00000000000E+00  0.91188000000E+02  0.91188000000E+02 0.  0.
    9900012    2    3    3    0    0 -0.10471194291E+02 -0.85268478630E+01  0.34255340152E+02  0.54367063384E+02  0.39999952597E+02 0.  0.
         12    1    3    3    0    0  0.10471194291E+02  0.85268478630E+01 -0.34255340152E+02  0.36820936616E+02  0.00000000000E+00 0. -1.
         11    1    4    4    0    0  0.53623955018E+01 -0.12577048476E+02  0.16383224757E+02  0.21338872688E+02  0.51100000000E-03 0. -1.
        -11    1    4    4    0    0 -0.15347955590E+02 -0.35037028796E+01  0.25631596080E+01  0.15950092856E+02  0.51100000000E-03 0.  1.
         12    1    4    4    0    0 -0.48563420215E+00  0.75539034929E+01  0.15308955787E+02  0.17078097840E+02  0.00000000000E+00 0. -1.
</event>
<event>
 8    1  0.1262344E-006  0.9118800E+02  0.7816164E-02  0.1184000E+00
        -11   -1    0    0    0    0  0.00000000000E+00  0.00000000000E+00  0.45593999997E+02  0.45594000000E+02  0.51100000000E-03 0.  1.
         11   -1    0    0    0    0 -0.00000000000E+00 -0.00000000000E+00 -0.45593999997E+02  0.45594000000E+02  0.51100000000E-03 0. -1.
         23    2    1    2    0    0 -0.17763568394E-14  0.71054273576E-14 -0.35527136788E-14  0.91188000000E+02  0.91188000000E+02 0.  0.
    9900012    2    3    3    0    0  0.14586778206E+02  0.31411886426E+02 -0.12501967169E+02  0.54367083521E+02  0.39999998502E+02 0.  0.
        -12    1    3    3    0    0 -0.14586778206E+02 -0.31411886426E+02  0.12501967169E+02  0.36820916479E+02  0.00000000000E+00 0.  1.
         11    1    4    4    0    0  0.87146500620E+00  0.81246599733E+01 -0.64060441926E+01  0.10383012732E+02  0.51100000000E-03 0. -1.
        -11    1    4    4    0    0 -0.79069732068E+01 -0.65770050610E-01  0.60115948320E+01  0.99329665094E+01  0.51100000000E-03 0.  1.
        -12    1    4    4    0    0  0.21622286407E+02  0.23352996504E+02 -0.12107517808E+02  0.34051104279E+02  0.00000000000E+00 0.  1.
</event>
<event>
 8    1  0.1262344E-006  0.9118800E+02  0.7816164E-02  0.1184000E+00
        -11   -1    0    0    0    0  0.00000000000E+00  0.00000000000E+00  0.45593999997E+02  0.45594000000E+02  0.51100000000E-03 0.  1.
         11   -1    0    0    0    0 -0.00000000000E+00 -0.00000000000E+00 -0.45593999997E+02  0.45594000000E+02  0.51100000000E-03 0. -1.
         23    2    1    2    0    0 -0.35527136788E-14  0.00000000000E+00  0.00000000000E+00  0.91188000000E+02  0.91188000000E+02 0.  0.
    9900012    2    3    3    0    0 -0.25601155291E+02 -0.25004727463E+02 -0.86674533766E+01  0.54367078015E+02  0.39999985952E+02 0.  0.
        -12    1    3    3    0    0  0.25601155291E+02  0.25004727463E+02  0.86674533766E+01  0.36820921985E+02  0.00000000000E+00 0.  1.
         11    1    4    4    0    0 -0.23911625070E+01  0.16314214981E+01  0.37671109551E+01  0.47508230286E+01  0.51100000000E-03 0. -1.
        -11    1    4    4    0    0 -0.15426944811E+02  0.85979206838E+00  0.48806264658E+01  0.16203406542E+02  0.51100000000E-03 0.  1.
         12    1    4    4    0    0 -0.77830479734E+01 -0.27495941030E+02 -0.17315190798E+02  0.33412848445E+02  0.00000000000E+00 0. -1.
</event>
<event>
 8    1  0.1262344E-006  0.9118800E+02  0.7816164E-02  0.1184000E+00
        -11   -1    0    0    0    0  0.00000000000E+00  0.00000000000E+00  0.45593999997E+02  0.45594000000E+02  0.51100000000E-03 0. -1.
         11   -1    0    0    0    0 -0.00000000000E+00 -0.00000000000E+00 -0.45593999997E+02  0.45594000000E+02  0.51100000000E-03 0.  1.
         23    2    1    2    0    0  0.00000000000E+00  0.00000000000E+00 -0.35527136788E-14  0.91188000000E+02  0.91188000000E+02 0.  0.
    9900012    2    3    3    0    0 -0.12183296383E+02  0.29769042824E+02  0.17920781052E+02  0.54367041092E+02  0.39999901777E+02 0.  0.
        -12    1    3    3    0    0  0.12183296383E+02 -0.29769042824E+02 -0.17920781052E+02  0.36820958908E+02  0.00000000000E+00 0.  1.
         11    1    4    4    0    0 -0.56184332510E+01  0.60788847843E+01 -0.10504840081E+02  0.13374277468E+02  0.51100000000E-03 0. -1.
        -11    1    4    4    0    0  0.40085769280E+01  0.10706826198E+02  0.57278924857E+01  0.12787242424E+02  0.51100000000E-03 0.  1.
         12    1    4    4    0    0 -0.10573440060E+02  0.12983331841E+02  0.22697728647E+02  0.28205521200E+02  0.00000000000E+00 0. -1.
</event>
<event>
 8    1  0.1262344E-006  0.9118800E+02  0.7816164E-02  0.1184000E+00
        -11   -1    0    0    0    0  0.00000000000E+00  0.00000000000E+00  0.45593999997E+02  0.45594000000E+02  0.51100000000E-03 0. -1.
         11   -1    0    0    0    0 -0.00000000000E+00 -0.00000000000E+00 -0.45593999997E+02  0.45594000000E+02  0.51100000000E-03 0.  1.
         23    2    1    2    0    0  0.35527136788E-14  0.00000000000E+00  0.44408920985E-14  0.91188000000E+02  0.91188000000E+02 0.  0.
    9900012    2    3    3    0    0 -0.25562134682E+02 -0.25395006590E+02 -0.75796930644E+01  0.54367070677E+02  0.39999969222E+02 0.  0.
        -12    1    3    3    0    0  0.25562134682E+02  0.25395006590E+02  0.75796930644E+01  0.36820929323E+02  0.00000000000E+00 0.  1.
         11    1    4    4    0    0 -0.85599472654E+01 -0.19592576546E+02  0.11078911430E+02  0.24080781375E+02  0.51100000000E-03 0. -1.
        -11    1    4    4    0    0 -0.14990108092E+02  0.22845140143E+01 -0.94506460549E+01  0.17867206161E+02  0.51100000000E-03 0.  1.
         12    1    4    4    0    0 -0.20120793248E+01 -0.80869440591E+01 -0.92079584399E+01  0.12419083141E+02  0.00000000000E+00 0. -1.
</event>
<event>
 8    1  0.1262344E-006  0.9118800E+02  0.7816164E-02  0.1184000E+00
        -11   -1    0    0    0    0  0.00000000000E+00  0.00000000000E+00  0.45593999997E+02  0.45594000000E+02  0.51100000000E-03 0. -1.
         11   -1    0    0    0    0 -0.00000000000E+00 -0.00000000000E+00 -0.45593999997E+02  0.45594000000E+02  0.51100000000E-03 0.  1.
         23    2    1    2    0    0 -0.77715611724E-15 -0.71054273576E-14 -0.35527136788E-14  0.91188000000E+02  0.91188000000E+02 0.  0.
    9900012    2    3    3    0    0 -0.79139486705E+00 -0.28922479632E+02 -0.22773744861E+02  0.54367087615E+02  0.40000007835E+02 0.  0.
         12    1    3    3    0    0  0.79139486705E+00  0.28922479632E+02  0.22773744861E+02  0.36820912385E+02  0.00000000000E+00 0. -1.
         11    1    4    4    0    0 -0.79834872461E+01 -0.29691181686E+00 -0.21182983735E+02  0.22639413098E+02  0.51100000000E-03 0. -1.
        -11    1    4    4    0    0  0.76346620950E+01 -0.83807495940E+01  0.64347871518E+00  0.11355135146E+02  0.51100000000E-03 0.  1.
         12    1    4    4    0    0 -0.44256971598E+00 -0.20244818221E+02 -0.22342398413E+01  0.20372539371E+02  0.00000000000E+00 0. -1.
</event>
<event>
 8    1  0.1262344E-006  0.9118800E+02  0.7816164E-02  0.1184000E+00
        -11   -1    0    0    0    0  0.00000000000E+00  0.00000000000E+00  0.45593999997E+02  0.45594000000E+02  0.51100000000E-03 0. -1.
         11   -1    0    0    0    0 -0.00000000000E+00 -0.00000000000E+00 -0.45593999997E+02  0.45594000000E+02  0.51100000000E-03 0.  1.
         23    2    1    2    0    0  0.00000000000E+00  0.33306690739E-15  0.00000000000E+00  0.91188000000E+02  0.91188000000E+02 0.  0.
    9900012    2    3    3    0    0  0.26765404397E+02  0.47964454465E+00 -0.25281711153E+02  0.54367056907E+02  0.39999937831E+02 0.  0.
         12    1    3    3    0    0 -0.26765404397E+02 -0.47964454465E+00  0.25281711153E+02  0.36820943093E+02  0.00000000000E+00 0. -1.
         11    1    4    4    0    0 -0.53441684109E+01 -0.53813078415E+01  0.13596437494E+01  0.77050140478E+01  0.51100000000E-03 0. -1.
        -11    1    4    4    0    0  0.27556535977E+02 -0.76693739311E+00 -0.12228256250E+02  0.30157604666E+02  0.51100000000E-03 0.  1.
         12    1    4    4    0    0  0.45530368313E+01  0.66278897793E+01 -0.14413098653E+02  0.16504438194E+02  0.00000000000E+00 0. -1.
</event>
<event>
 8    1  0.1262344E-006  0.9118800E+02  0.7816164E-02  0.1184000E+00
        -11   -1    0    0    0    0  0.00000000000E+00  0.00000000000E+00  0.45593999997E+02  0.45594000000E+02  0.51100000000E-03 0. -1.
         11   -1    0    0    0    0 -0.00000000000E+00 -0.00000000000E+00 -0.45593999997E+02  0.45594000000E+02  0.51100000000E-03 0.  1.
         23    2    1    2    0    0  0.35527136788E-14 -0.13322676296E-14  0.35527136788E-14  0.91188000000E+02  0.91188000000E+02 0.  0.
    9900012    2    3    3    0    0  0.22058937709E+02  0.21577067533E+01  0.29402850049E+02  0.54367081730E+02  0.39999994419E+02 0.  0.
        -12    1    3    3    0    0 -0.22058937709E+02 -0.21577067533E+01 -0.29402850049E+02  0.36820918270E+02  0.00000000000E+00 0.  1.
         11    1    4    4    0    0  0.37472315347E+01 -0.30336008270E+00  0.19153328434E+01  0.42192738328E+01  0.51100000000E-03 0. -1.
        -11    1    4    4    0    0  0.20306808362E+02 -0.13836314831E+02  0.21564515679E+02  0.32693094235E+02  0.51100000000E-03 0.  1.
         12    1    4    4    0    0 -0.19951021869E+01  0.16297381667E+02  0.59230015261E+01  0.17454713661E+02  0.00000000000E+00 0. -1.
</event>
<event>
 8    1  0.1262344E-006  0.9118800E+02  0.7816164E-02  0.1184000E+00
        -11   -1    0    0    0    0  0.00000000000E+00  0.00000000000E+00  0.45593999997E+02  0.45594000000E+02  0.51100000000E-03 0. -1.
         11   -1    0    0    0    0 -0.00000000000E+00 -0.00000000000E+00 -0.45593999997E+02  0.45594000000E+02  0.51100000000E-03 0.  1.
         23    2    1    2    0    0  0.44408920985E-15  0.00000000000E+00  0.17763568394E-14  0.91188000000E+02  0.91188000000E+02 0.  0.
    9900012    2    3    3    0    0 -0.14875733842E+01  0.34571482925E+02 -0.12585026431E+02  0.54367038627E+02  0.39999896158E+02 0.  0.
         12    1    3    3    0    0  0.14875733842E+01 -0.34571482925E+02  0.12585026431E+02  0.36820961373E+02  0.00000000000E+00 0. -1.
         11    1    4    4    0    0 -0.69288342110E+01  0.30214920551E+01 -0.69131083300E+01  0.10243496708E+02  0.51100000000E-03 0. -1.
        -11    1    4    4    0    0  0.61584427032E+01  0.20946217815E+02  0.10926337180E+02  0.24414243829E+02  0.51100000000E-03 0.  1.
        -12    1    4    4    0    0 -0.71718187639E+00  0.10603773054E+02 -0.16598255281E+02  0.19709298090E+02  0.00000000000E+00 0.  1.
</event>
<event>
 8    1  0.1262344E-006  0.9118800E+02  0.7816164E-02  0.1184000E+00
        -11   -1    0    0    0    0  0.00000000000E+00  0.00000000000E+00  0.45593999997E+02  0.45594000000E+02  0.51100000000E-03 0.  1.
         11   -1    0    0    0    0 -0.00000000000E+00 -0.00000000000E+00 -0.45593999997E+02  0.45594000000E+02  0.51100000000E-03 0. -1.
         23    2    1    2    0    0  0.17763568394E-14  0.00000000000E+00  0.00000000000E+00  0.91188000000E+02  0.91188000000E+02 0.  0.
    9900012    2    3    3    0    0 -0.98936153180E+01  0.11851098128E+02 -0.33428261700E+02  0.54367070745E+02  0.39999969378E+02 0.  0.
        -12    1    3    3    0    0  0.98936153180E+01 -0.11851098128E+02  0.33428261700E+02  0.36820929255E+02  0.00000000000E+00 0.  1.
         11    1    4    4    0    0 -0.15915929284E+02  0.16562490810E+02 -0.17614642317E+02  0.28946649737E+02  0.51100000000E-03 0. -1.
        -11    1    4    4    0    0  0.52311095979E+01  0.65690914104E+01 -0.49959852082E+01  0.97712505875E+01  0.51100000000E-03 0.  1.
         12    1    4    4    0    0  0.79120436840E+00 -0.11280484092E+02 -0.10817634175E+02  0.15649170420E+02  0.00000000000E+00 0. -1.
</event>
<event>
 8    1  0.1262344E-006  0.9118800E+02  0.7816164E-02  0.1184000E+00
        -11   -1    0    0    0    0  0.00000000000E+00  0.00000000000E+00  0.45593999997E+02  0.45594000000E+02  0.51100000000E-03 0.  1.
         11   -1    0    0    0    0 -0.00000000000E+00 -0.00000000000E+00 -0.45593999997E+02  0.45594000000E+02  0.51100000000E-03 0. -1.
         23    2    1    2    0    0  0.00000000000E+00  0.00000000000E+00  0.00000000000E+00  0.91188000000E+02  0.91188000000E+02 0.  0.
    9900012    2    3    3    0    0 -0.31344822193E+02  0.14023574998E+02  0.13289912866E+02  0.54367077713E+02  0.39999985263E+02 0.  0.
         12    1    3    3    0    0  0.31344822193E+02 -0.14023574998E+02 -0.13289912866E+02  0.36820922287E+02  0.00000000000E+00 0. -1.
         11    1    4    4    0    0 -0.49692978735E+01  0.95802545143E+01 -0.74068334458E+01  0.13089552317E+02  0.51100000000E-03 0. -1.
        -11    1    4    4    0    0 -0.16276458464E+02  0.14133213906E+02  0.10611695621E+02  0.24026629386E+02  0.51100000000E-03 0.  1.
        -12    1    4    4    0    0 -0.10099065856E+02 -0.96898934226E+01  0.10085050691E+02  0.17250896010E+02  0.00000000000E+00 0.  1.
</event>
<event>
 8    1  0.1262344E-006  0.9118800E+02  0.7816164E-02  0.1184000E+00
        -11   -1    0    0    0    0  0.00000000000E+00  0.00000000000E+00  0.45593999997E+02  0.45594000000E+02  0.51100000000E-03 0.  1.
         11   -1    0    0    0    0 -0.00000000000E+00 -0.00000000000E+00 -0.45593999997E+02  0.45594000000E+02  0.51100000000E-03 0. -1.
         23    2    1    2    0    0  0.00000000000E+00  0.00000000000E+00  0.00000000000E+00  0.91188000000E+02  0.91188000000E+02 0.  0.
    9900012    2    3    3    0    0  0.35669581439E+02  0.27243381557E+01  0.87199954950E+01  0.54367090453E+02  0.40000014306E+02 0.  0.
        -12    1    3    3    0    0 -0.35669581439E+02 -0.27243381557E+01 -0.87199954950E+01  0.36820909547E+02  0.00000000000E+00 0.  1.
         11    1    4    4    0    0  0.16810594896E+01  0.35002112213E+01  0.83457842245E+01  0.92048657885E+01  0.51100000000E-03 0. -1.
        -11    1    4    4    0    0  0.59252901153E+01  0.12395547389E+02  0.29595740202E+01  0.14054100351E+02  0.51100000000E-03 0.  1.
         12    1    4    4    0    0  0.28063231834E+02 -0.13171420455E+02 -0.25853627497E+01  0.31108124314E+02  0.00000000000E+00 0. -1.
</event>
<event>
 8    1  0.1262344E-006  0.9118800E+02  0.7816164E-02  0.1184000E+00
        -11   -1    0    0    0    0  0.00000000000E+00  0.00000000000E+00  0.45593999997E+02  0.45594000000E+02  0.51100000000E-03 0.  1.
         11   -1    0    0    0    0 -0.00000000000E+00 -0.00000000000E+00 -0.45593999997E+02  0.45594000000E+02  0.51100000000E-03 0. -1.
         23    2    1    2    0    0  0.00000000000E+00 -0.35527136788E-14  0.00000000000E+00  0.91188000000E+02  0.91188000000E+02 0.  0.
    9900012    2    3    3    0    0  0.20376718329E+02  0.22985754992E+02 -0.20303290151E+02  0.54367093257E+02  0.40000020698E+02 0.  0.
        -12    1    3    3    0    0 -0.20376718329E+02 -0.22985754992E+02  0.20303290151E+02  0.36820906743E+02  0.00000000000E+00 0.  1.
         11    1    4    4    0    0  0.31437708431E+02  0.19274676988E+02 -0.13006583951E+02  0.39102607467E+02  0.51100000000E-03 0. -1.
        -11    1    4    4    0    0 -0.75899542038E+01  0.56219428097E+01 -0.51371303778E+01  0.10751918645E+02  0.51100000000E-03 0.  1.
        -12    1    4    4    0    0 -0.34710358981E+01 -0.19108648053E+01 -0.21595758221E+01  0.45125671453E+01  0.00000000000E+00 0.  1.
</event>
<event>
 8    1  0.1262344E-006  0.9118800E+02  0.7816164E-02  0.1184000E+00
        -11   -1    0    0    0    0  0.00000000000E+00  0.00000000000E+00  0.45593999997E+02  0.45594000000E+02  0.51100000000E-03 0. -1.
         11   -1    0    0    0    0 -0.00000000000E+00 -0.00000000000E+00 -0.45593999997E+02  0.45594000000E+02  0.51100000000E-03 0.  1.
         23    2    1    2    0    0  0.00000000000E+00  0.00000000000E+00  0.00000000000E+00  0.91188000000E+02  0.91188000000E+02 0.  0.
    9900012    2    3    3    0    0  0.20589357635E+02 -0.27618866715E+02 -0.13002267222E+02  0.54367049451E+02  0.39999920832E+02 0.  0.
         12    1    3    3    0    0 -0.20589357635E+02  0.27618866715E+02  0.13002267222E+02  0.36820950549E+02  0.00000000000E+00 0. -1.
         11    1    4    4    0    0  0.37196062932E-01 -0.72512658508E+01  0.75545872338E+01  0.10471581949E+02  0.51100000000E-03 0. -1.
        -11    1    4    4    0    0  0.26494372376E+02 -0.13614950735E+02 -0.15621133061E+02  0.33635374972E+02  0.51100000000E-03 0.  1.
        -12    1    4    4    0    0 -0.59422108046E+01 -0.67526501299E+01 -0.49357213948E+01  0.10260092529E+02  0.00000000000E+00 0.  1.
</event>
<event>
 8    1  0.1262344E-006  0.9118800E+02  0.7816164E-02  0.1184000E+00
        -11   -1    0    0    0    0  0.00000000000E+00  0.00000000000E+00  0.45593999997E+02  0.45594000000E+02  0.51100000000E-03 0. -1.
         11   -1    0    0    0    0 -0.00000000000E+00 -0.00000000000E+00 -0.45593999997E+02  0.45594000000E+02  0.51100000000E-03 0.  1.
         23    2    1    2    0    0  0.00000000000E+00  0.35527136788E-14 -0.17763568394E-14  0.91188000000E+02  0.91188000000E+02 0.  0.
    9900012    2    3    3    0    0  0.27924985272E+02  0.23342036939E+02 -0.55789136113E+01  0.54367085183E+02  0.40000002292E+02 0.  0.
         12    1    3    3    0    0 -0.27924985272E+02 -0.23342036939E+02  0.55789136113E+01  0.36820914817E+02  0.00000000000E+00 0. -1.
         11    1    4    4    0    0  0.25623418631E+02  0.15426448104E+02  0.32141640231E+01  0.30080986255E+02  0.51100000000E-03 0. -1.
        -11    1    4    4    0    0  0.67840665156E+01  0.10093294493E+02 -0.12972849378E+02  0.17781815809E+02  0.51100000000E-03 0.  1.
         12    1    4    4    0    0 -0.44824998746E+01 -0.21777056586E+01  0.41797717440E+01  0.65042831191E+01  0.00000000000E+00 0. -1.
</event>
<event>
 8    1  0.1262344E-006  0.9118800E+02  0.7816164E-02  0.1184000E+00
        -11   -1    0    0    0    0  0.00000000000E+00  0.00000000000E+00  0.45593999997E+02  0.45594000000E+02  0.51100000000E-03 0. -1.
         11   -1    0    0    0    0 -0.00000000000E+00 -0.00000000000E+00 -0.45593999997E+02  0.45594000000E+02  0.51100000000E-03 0.  1.
         23    2    1    2    0    0  0.17763568394E-14 -0.71054273576E-14  0.00000000000E+00  0.91188000000E+02  0.91188000000E+02 0.  0.
    9900012    2    3    3    0    0 -0.78004344679E+01  0.33650385517E+02  0.12750644618E+02  0.54367161315E+02  0.40000175849E+02 0.  0.
         12    1    3    3    0    0  0.78004344679E+01 -0.33650385517E+02 -0.12750644618E+02  0.36820838685E+02  0.00000000000E+00 0. -1.
         11    1    4    4    0    0 -0.68245251082E-02  0.30878417680E+01 -0.10691250249E+02  0.11128236406E+02  0.51100000000E-03 0. -1.
        -11    1    4    4    0    0  0.20109720458E+01  0.19034172162E+00 -0.16760351585E+01  0.26247538272E+01  0.51100000000E-03 0.  1.
        -12    1    4    4    0    0 -0.98045819886E+01  0.30372202027E+02  0.25117930025E+02  0.40614171082E+02  0.00000000000E+00 0.  1.
</event>
<event>
 8    1  0.1262344E-006  0.9118800E+02  0.7816164E-02  0.1184000E+00
        -11   -1    0    0    0    0  0.00000000000E+00  0.00000000000E+00  0.45593999997E+02  0.45594000000E+02  0.51100000000E-03 0.  1.
         11   -1    0    0    0    0 -0.00000000000E+00 -0.00000000000E+00 -0.45593999997E+02  0.45594000000E+02  0.51100000000E-03 0. -1.
         23    2    1    2    0    0  0.17763568394E-14 -0.35527136788E-14 -0.35527136788E-14  0.91188000000E+02  0.91188000000E+02 0.  0.
    9900012    2    3    3    0    0 -0.12471688771E+02  0.26241446358E+02  0.22619061270E+02  0.54367102938E+02  0.40000042767E+02 0.  0.
         12    1    3    3    0    0  0.12471688771E+02 -0.26241446358E+02 -0.22619061270E+02  0.36820897062E+02  0.00000000000E+00 0. -1.
         11    1    4    4    0    0  0.45278256849E+01  0.12340218885E+02 -0.15740351958E+01  0.13238572228E+02  0.51100000000E-03 0. -1.
        -11    1    4    4    0    0 -0.82815032795E+01 -0.20096642979E+01 -0.24751111249E+01  0.88740195233E+01  0.51100000000E-03 0.  1.
        -12    1    4    4    0    0 -0.87180111768E+01  0.15910891771E+02  0.26668207590E+02  0.32254511187E+02  0.00000000000E+00 0.  1.
</event>
<event>
 8    1  0.1262344E-006  0.9118800E+02  0.7816164E-02  0.1184000E+00
        -11   -1    0    0    0    0  0.00000000000E+00  0.00000000000E+00  0.45593999997E+02  0.45594000000E+02  0.51100000000E-03 0.  1.
         11   -1    0    0    0    0 -0.00000000000E+00 -0.00000000000E+00 -0.45593999997E+02  0.45594000000E+02  0.51100000000E-03 0. -1.
         23    2    1    2    0    0 -0.35527136788E-14  0.00000000000E+00 -0.35527136788E-14  0.91188000000E+02  0.91188000000E+02 0.  0.
    9900012    2    3    3    0    0 -0.20607461464E+02  0.21243954099E+02 -0.21904475741E+02  0.54367094101E+02  0.40000022621E+02 0.  0.
        -12    1    3    3    0    0  0.20607461464E+02 -0.21243954099E+02  0.21904475741E+02  0.36820905899E+02  0.00000000000E+00 0.  1.
         11    1    4    4    0    0 -0.86031124355E+01  0.23240593442E+02 -0.15231049519E+02  0.29088203740E+02  0.51100000000E-03 0. -1.
        -11    1    4    4    0    0 -0.38192423680E+01  0.93648731875E+01 -0.46467659202E+01  0.11130134584E+02  0.51100000000E-03 0.  1.
        -12    1    4    4    0    0 -0.81851066610E+01 -0.11361512531E+02 -0.20266603024E+01  0.14148755776E+02  0.00000000000E+00 0.  1.
</event>
<event>
 8    1  0.1262344E-006  0.9118800E+02  0.7816164E-02  0.1184000E+00
        -11   -1    0    0    0    0  0.00000000000E+00  0.00000000000E+00  0.45593999997E+02  0.45594000000E+02  0.51100000000E-03 0.  1.
         11   -1    0    0    0    0 -0.00000000000E+00 -0.00000000000E+00 -0.45593999997E+02  0.45594000000E+02  0.51100000000E-03 0. -1.
         23    2    1    2    0    0  0.00000000000E+00  0.00000000000E+00 -0.44408920985E-15  0.91188000000E+02  0.91188000000E+02 0.  0.
    9900012    2    3    3    0    0 -0.24624753137E+02  0.27299588417E+02  0.20332476655E+01  0.54367080798E+02  0.39999992296E+02 0.  0.
         12    1    3    3    0    0  0.24624753137E+02 -0.27299588417E+02 -0.20332476655E+01  0.36820919202E+02  0.00000000000E+00 0. -1.
         11    1    4    4    0    0 -0.17509796642E+02  0.13482440006E+02  0.38282711925E+01  0.22428214987E+02  0.51100000000E-03 0. -1.
        -11    1    4    4    0    0  0.28690093931E+01  0.17187160021E+02  0.64278859272E+01  0.18572759683E+02  0.51100000000E-03 0.  1.
         12    1    4    4    0    0 -0.99839658886E+01 -0.33700116102E+01 -0.82229094542E+01  0.13366106127E+02  0.00000000000E+00 0. -1.
</event>
<event>
 8    1  0.1262344E-006  0.9118800E+02  0.7816164E-02  0.1184000E+00
        -11   -1    0    0    0    0  0.00000000000E+00  0.00000000000E+00  0.45593999997E+02  0.45594000000E+02  0.51100000000E-03 0.  1.
         11   -1    0    0    0    0 -0.00000000000E+00 -0.00000000000E+00 -0.45593999997E+02  0.45594000000E+02  0.51100000000E-03 0. -1.
         23    2    1    2    0    0  0.44408920985E-15  0.44408920985E-15  0.71054273576E-14  0.91188000000E+02  0.91188000000E+02 0.  0.
    9900012    2    3    3    0    0 -0.38977247492E+01 -0.36872967479E+01  0.36427864800E+02  0.54367112593E+02  0.40000064779E+02 0.  0.
         12    1    3    3    0    0  0.38977247492E+01  0.36872967479E+01 -0.36427864800E+02  0.36820887407E+02  0.00000000000E+00 0. -1.
         11    1    4    4    0    0  0.22568901928E+01 -0.64325631955E+01  0.18814873611E+02  0.20011768834E+02  0.51100000000E-03 0. -1.
        -11    1    4    4    0    0 -0.23052048061E+01 -0.67925418573E+01  0.22025038136E+02  0.23163654704E+02  0.51100000000E-03 0.  1.
         12    1    4    4    0    0 -0.38494101358E+01  0.95378083049E+01 -0.44120469468E+01  0.11191689055E+02  0.00000000000E+00 0. -1.
</event>
<event>
 8    1  0.1262344E-006  0.9118800E+02  0.7816164E-02  0.1184000E+00
        -11   -1    0    0    0    0  0.00000000000E+00  0.00000000000E+00  0.45593999997E+02  0.45594000000E+02  0.51100000000E-03 0. -1.
         11   -1    0    0    0    0 -0.00000000000E+00 -0.00000000000E+00 -0.45593999997E+02  0.45594000000E+02  0.51100000000E-03 0.  1.
         23    2    1    2    0    0  0.35527136788E-14  0.00000000000E+00  0.00000000000E+00  0.91188000000E+02  0.91188000000E+02 0.  0.
    9900012    2    3    3    0    0  0.29647987166E+02  0.98278140524E+01  0.19498487346E+02  0.54367080935E+02  0.39999992607E+02 0.  0.
        -12    1    3    3    0    0 -0.29647987166E+02 -0.98278140524E+01 -0.19498487346E+02  0.36820919065E+02  0.00000000000E+00 0.  1.
         11    1    4    4    0    0  0.83630942623E+01  0.89931411832E+01  0.17948657190E+02  0.21747924709E+02  0.51100000000E-03 0. -1.
        -11    1    4    4    0    0  0.20439774730E+02 -0.77919093642E+01 -0.41232456568E+01  0.22259815757E+02  0.51100000000E-03 0.  1.
        -12    1    4    4    0    0  0.84511817359E+00  0.86265822335E+01  0.56730758130E+01  0.10359340468E+02  0.00000000000E+00 0.  1.
</event>
<event>
 8    1  0.1262344E-006  0.9118800E+02  0.7816164E-02  0.1184000E+00
        -11   -1    0    0    0    0  0.00000000000E+00  0.00000000000E+00  0.45593999997E+02  0.45594000000E+02  0.51100000000E-03 0.  1.
         11   -1    0    0    0    0 -0.00000000000E+00 -0.00000000000E+00 -0.45593999997E+02  0.45594000000E+02  0.51100000000E-03 0. -1.
         23    2    1    2    0    0  0.88817841970E-15 -0.17763568394E-14  0.71054273576E-14  0.91188000000E+02  0.91188000000E+02 0.  0.
    9900012    2    3    3    0    0  0.33953155550E+01 -0.13250147083E+02  0.34186080073E+02  0.54367046235E+02  0.39999913502E+02 0.  0.
         12    1    3    3    0    0 -0.33953155550E+01  0.13250147083E+02 -0.34186080073E+02  0.36820953765E+02  0.00000000000E+00 0. -1.
         11    1    4    4    0    0  0.13576163178E+02 -0.77828583202E+01  0.68806890770E+01  0.17094705985E+02  0.51100000000E-03 0. -1.
        -11    1    4    4    0    0  0.24522259760E+01  0.68232818645E+01  0.48378904826E+01  0.87164082180E+01  0.51100000000E-03 0.  1.
         12    1    4    4    0    0 -0.12633073599E+02 -0.12290570627E+02  0.22467500513E+02  0.28555932032E+02  0.00000000000E+00 0. -1.
</event>
<event>
 8    1  0.1262344E-006  0.9118800E+02  0.7816164E-02  0.1184000E+00
        -11   -1    0    0    0    0  0.00000000000E+00  0.00000000000E+00  0.45593999997E+02  0.45594000000E+02  0.51100000000E-03 0. -1.
         11   -1    0    0    0    0 -0.00000000000E+00 -0.00000000000E+00 -0.45593999997E+02  0.45594000000E+02  0.51100000000E-03 0.  1.
         23    2    1    2    0    0  0.00000000000E+00  0.00000000000E+00  0.00000000000E+00  0.91188000000E+02  0.91188000000E+02 0.  0.
    9900012    2    3    3    0    0 -0.34706174846E+02 -0.78023546935E+01  0.95070533382E+01  0.54367090528E+02  0.40000014476E+02 0.  0.
        -12    1    3    3    0    0  0.34706174846E+02  0.78023546935E+01 -0.95070533382E+01  0.36820909472E+02  0.00000000000E+00 0.  1.
         11    1    4    4    0    0 -0.37250464531E+02 -0.29926822192E+01  0.16586064562E+02  0.40885826304E+02  0.51100000000E-03 0. -1.
        -11    1    4    4    0    0  0.17632847279E+00 -0.10713174473E+00 -0.81129876775E+01  0.81156107753E+01  0.51100000000E-03 0.  1.
         12    1    4    4    0    0  0.23679612128E+01 -0.47025407296E+01  0.10339764534E+01  0.53656534481E+01  0.00000000000E+00 0. -1.
</event>
<event>
 8    1  0.1262344E-006  0.9118800E+02  0.7816164E-02  0.1184000E+00
        -11   -1    0    0    0    0  0.00000000000E+00  0.00000000000E+00  0.45593999997E+02  0.45594000000E+02  0.51100000000E-03 0. -1.
         11   -1    0    0    0    0 -0.00000000000E+00 -0.00000000000E+00 -0.45593999997E+02  0.45594000000E+02  0.51100000000E-03 0.  1.
         23    2    1    2    0    0  0.00000000000E+00  0.35527136788E-14  0.71054273576E-14  0.91188000000E+02  0.91188000000E+02 0.  0.
    9900012    2    3    3    0    0 -0.26604875340E+02 -0.96938035859E+01 -0.23537011436E+02  0.54367080305E+02  0.39999991172E+02 0.  0.
         12    1    3    3    0    0  0.26604875340E+02  0.96938035859E+01  0.23537011436E+02  0.36820919695E+02  0.00000000000E+00 0. -1.
         11    1    4    4    0    0  0.22155403359E+01  0.14565440127E+01  0.55470153295E+01  0.61481313232E+01  0.51100000000E-03 0. -1.
        -11    1    4    4    0    0  0.34445573672E+01 -0.97564367708E+00 -0.68690623539E+01  0.77460231037E+01  0.51100000000E-03 0.  1.
        -12    1    4    4    0    0 -0.32264973043E+02 -0.10174703921E+02 -0.22214964412E+02  0.40472925879E+02  0.00000000000E+00 0.  1.
</event>
<event>
 8    1  0.1262344E-006  0.9118800E+02  0.7816164E-02  0.1184000E+00
        -11   -1    0    0    0    0  0.00000000000E+00  0.00000000000E+00  0.45593999997E+02  0.45594000000E+02  0.51100000000E-03 0. -1.
         11   -1    0    0    0    0 -0.00000000000E+00 -0.00000000000E+00 -0.45593999997E+02  0.45594000000E+02  0.51100000000E-03 0.  1.
         23    2    1    2    0    0  0.88817841970E-15  0.00000000000E+00  0.14432899320E-14  0.91188000000E+02  0.91188000000E+02 0.  0.
    9900012    2    3    3    0    0 -0.52536958384E+01  0.36442672758E+02  0.33156023624E+00  0.54367086786E+02  0.40000005947E+02 0.  0.
         12    1    3    3    0    0  0.52536958384E+01 -0.36442672758E+02 -0.33156023624E+00  0.36820913214E+02  0.00000000000E+00 0. -1.
         11    1    4    4    0    0 -0.32067201137E+01 -0.26581236290E+01  0.11274653808E+01  0.43150728338E+01  0.51100000000E-03 0. -1.
        -11    1    4    4    0    0  0.82776816707E+01  0.10773658230E+02 -0.11761178103E+02  0.17969892491E+02  0.51100000000E-03 0.  1.
         12    1    4    4    0    0 -0.10324657395E+02  0.28327138156E+02  0.10965272958E+02  0.32082121462E+02  0.00000000000E+00 0. -1.
</event>
<event>
 8    1  0.1262344E-006  0.9118800E+02  0.7816164E-02  0.1184000E+00
        -11   -1    0    0    0    0  0.00000000000E+00  0.00000000000E+00  0.45593999997E+02  0.45594000000E+02  0.51100000000E-03 0.  1.
         11   -1    0    0    0    0 -0.00000000000E+00 -0.00000000000E+00 -0.45593999997E+02  0.45594000000E+02  0.51100000000E-03 0. -1.
         23    2    1    2    0    0  0.17763568394E-14  0.00000000000E+00  0.00000000000E+00  0.91188000000E+02  0.91188000000E+02 0.  0.
    9900012    2    3    3    0    0 -0.11545222567E+02  0.44357936724E+01 -0.34681587569E+02  0.54367069187E+02  0.39999965826E+02 0.  0.
        -12    1    3    3    0    0  0.11545222567E+02 -0.44357936724E+01  0.34681587569E+02  0.36820930813E+02  0.00000000000E+00 0.  1.
         11    1    4    4    0    0  0.82148503834E+00  0.50418082678E+01 -0.34083025694E+01  0.61409441410E+01  0.51100000000E-03 0. -1.
        -11    1    4    4    0    0  0.77118118808E+01 -0.90915233201E+01 -0.25897139028E+01  0.12199772831E+02  0.51100000000E-03 0.  1.
         12    1    4    4    0    0 -0.20078519486E+02  0.84855087247E+01 -0.28683571097E+02  0.36026352215E+02  0.00000000000E+00 0. -1.
</event>
<event>
 8    1  0.1262344E-006  0.9118800E+02  0.7816164E-02  0.1184000E+00
        -11   -1    0    0    0    0  0.00000000000E+00  0.00000000000E+00  0.45593999997E+02  0.45594000000E+02  0.51100000000E-03 0.  1.
         11   -1    0    0    0    0 -0.00000000000E+00 -0.00000000000E+00 -0.45593999997E+02  0.45594000000E+02  0.51100000000E-03 0. -1.
         23    2    1    2    0    0  0.17763568394E-14  0.35527136788E-14  0.00000000000E+00  0.91188000000E+02  0.91188000000E+02 0.  0.
    9900012    2    3    3    0    0 -0.89464998884E+01 -0.30401605978E+02 -0.18747859841E+02  0.54367085360E+02  0.40000002695E+02 0.  0.
        -12    1    3    3    0    0  0.89464998884E+01  0.30401605978E+02  0.18747859841E+02  0.36820914640E+02  0.00000000000E+00 0.  1.
         11    1    4    4    0    0  0.12350657810E+02 -0.19428652509E+01 -0.10405434196E+02  0.16266116156E+02  0.51100000000E-03 0. -1.
        -11    1    4    4    0    0 -0.11535670699E+02 -0.21134414206E+02 -0.94086743038E+01  0.25850692732E+02  0.51100000000E-03 0.  1.
         12    1    4    4    0    0 -0.97614869999E+01 -0.73243265218E+01  0.10662486586E+01  0.12250276472E+02  0.00000000000E+00 0. -1.
</event>
<event>
 8    1  0.1262344E-006  0.9118800E+02  0.7816164E-02  0.1184000E+00
        -11   -1    0    0    0    0  0.00000000000E+00  0.00000000000E+00  0.45593999997E+02  0.45594000000E+02  0.51100000000E-03 0.  1.
         11   -1    0    0    0    0 -0.00000000000E+00 -0.00000000000E+00 -0.45593999997E+02  0.45594000000E+02  0.51100000000E-03 0. -1.
         23    2    1    2    0    0  0.00000000000E+00  0.10269562978E-14  0.00000000000E+00  0.91188000000E+02  0.91188000000E+02 0.  0.
    9900012    2    3    3    0    0 -0.37856656408E+01  0.21919176583E+00  0.36625157125E+02  0.54367062427E+02  0.39999950414E+02 0.  0.
         12    1    3    3    0    0  0.37856656408E+01 -0.21919176583E+00 -0.36625157125E+02  0.36820937573E+02  0.00000000000E+00 0. -1.
         11    1    4    4    0    0 -0.15158649316E+02  0.63229132841E+01  0.18558069752E+02  0.24782369431E+02  0.51100000000E-03 0.  1.
        -11    1    4    4    0    0  0.11187926771E+02 -0.72652377478E+01  0.20169679120E+01  0.13491536042E+02  0.51100000000E-03 0. -1.
        -12    1    4    4    0    0  0.18505690433E+00  0.11615162295E+01  0.16050119461E+02  0.16093156953E+02  0.00000000000E+00 0.  1.
</event>
<event>
 8    1  0.1262344E-006  0.9118800E+02  0.7816164E-02  0.1184000E+00
        -11   -1    0    0    0    0  0.00000000000E+00  0.00000000000E+00  0.45593999997E+02  0.45594000000E+02  0.51100000000E-03 0.  1.
         11   -1    0    0    0    0 -0.00000000000E+00 -0.00000000000E+00 -0.45593999997E+02  0.45594000000E+02  0.51100000000E-03 0. -1.
         23    2    1    2    0    0  0.17763568394E-14  0.35527136788E-14  0.00000000000E+00  0.91188000000E+02  0.91188000000E+02 0.  0.
    9900012    2    3    3    0    0  0.11226290168E+02  0.20365332698E+02  0.28548341688E+02  0.54367025271E+02  0.39999865710E+02 0.  0.
         12    1    3    3    0    0 -0.11226290168E+02 -0.20365332698E+02 -0.28548341688E+02  0.36820974729E+02  0.00000000000E+00 0. -1.
         11    1    4    4    0    0 -0.56626466954E+01  0.47364369050E+01  0.50771573921E+01  0.89597393711E+01  0.51100000000E-03 0. -1.
        -11    1    4    4    0    0 -0.55378989492E+01 -0.46607746363E+01  0.98878175334E+01  0.12253982243E+02  0.51100000000E-03 0.  1.
         12    1    4    4    0    0  0.22426835813E+02  0.20289670429E+02  0.13583366763E+02  0.33153303656E+02  0.00000000000E+00 0. -1.
</event>
<event>
 8    1  0.1262344E-006  0.9118800E+02  0.7816164E-02  0.1184000E+00
        -11   -1    0    0    0    0  0.00000000000E+00  0.00000000000E+00  0.45593999997E+02  0.45594000000E+02  0.51100000000E-03 0.  1.
         11   -1    0    0    0    0 -0.00000000000E+00 -0.00000000000E+00 -0.45593999997E+02  0.45594000000E+02  0.51100000000E-03 0. -1.
         23    2    1    2    0    0 -0.88817841970E-15 -0.71054273576E-14  0.00000000000E+00  0.91188000000E+02  0.91188000000E+02 0.  0.
    9900012    2    3    3    0    0  0.71489770244E+01  0.34139593299E+02  0.11797142701E+02  0.54366915292E+02  0.39999614990E+02 0.  0.
        -12    1    3    3    0    0 -0.71489770244E+01 -0.34139593299E+02 -0.11797142701E+02  0.36821084708E+02  0.00000000000E+00 0.  1.
         11    1    4    4    0    0  0.19185067912E+02  0.16317973621E+02  0.67489396052E+01  0.26074724925E+02  0.51100000000E-03 0. -1.
        -11    1    4    4    0    0 -0.11643238241E+02  0.19917681803E+02  0.28449706823E+00  0.23072927512E+02  0.51100000000E-03 0.  1.
        -12    1    4    4    0    0 -0.39285264672E+00 -0.20960621244E+01  0.47637060275E+01  0.52192628548E+01  0.00000000000E+00 0.  1.
</event>
<event>
 8    1  0.1262344E-006  0.9118800E+02  0.7816164E-02  0.1184000E+00
        -11   -1    0    0    0    0  0.00000000000E+00  0.00000000000E+00  0.45593999997E+02  0.45594000000E+02  0.51100000000E-03 0. -1.
         11   -1    0    0    0    0 -0.00000000000E+00 -0.00000000000E+00 -0.45593999997E+02  0.45594000000E+02  0.51100000000E-03 0.  1.
         23    2    1    2    0    0  0.22204460493E-15  0.14210854715E-13 -0.53290705182E-14  0.91188000000E+02  0.91188000000E+02 0.  0.
    9900012    2    3    3    0    0 -0.11245943198E+01 -0.34075308319E+02  0.13906442711E+02  0.54367075266E+02  0.39999979684E+02 0.  0.
         12    1    3    3    0    0  0.11245943198E+01  0.34075308319E+02 -0.13906442711E+02  0.36820924734E+02  0.00000000000E+00 0. -1.
         11    1    4    4    0    0 -0.29413774658E-01 -0.20166797187E+02  0.92642514036E+01  0.22192947715E+02  0.51100000000E-03 0. -1.
        -11    1    4    4    0    0 -0.55965787241E+01  0.38632763750E+01 -0.75468884847E+01  0.10158844611E+02  0.51100000000E-03 0.  1.
        -12    1    4    4    0    0  0.45013981789E+01 -0.17771787506E+02  0.12189079792E+02  0.22015282940E+02  0.00000000000E+00 0.  1.
</event>
<event>
 8    1  0.1262344E-006  0.9118800E+02  0.7816164E-02  0.1184000E+00
        -11   -1    0    0    0    0  0.00000000000E+00  0.00000000000E+00  0.45593999997E+02  0.45594000000E+02  0.51100000000E-03 0. -1.
         11   -1    0    0    0    0 -0.00000000000E+00 -0.00000000000E+00 -0.45593999997E+02  0.45594000000E+02  0.51100000000E-03 0.  1.
         23    2    1    2    0    0 -0.17763568394E-14  0.00000000000E+00  0.00000000000E+00  0.91188000000E+02  0.91188000000E+02 0.  0.
    9900012    2    3    3    0    0  0.93965101247E+01  0.22566978471E+02  0.27535733847E+02  0.54367088030E+02  0.40000008781E+02 0.  0.
        -12    1    3    3    0    0 -0.93965101247E+01 -0.22566978471E+02 -0.27535733847E+02  0.36820911970E+02  0.00000000000E+00 0.  1.
         11    1    4    4    0    0 -0.52985218515E+01  0.21547989996E+02  0.43483918249E-01  0.22189909819E+02  0.51100000000E-03 0. -1.
        -11    1    4    4    0    0  0.99675298167E+01 -0.11816413836E+01  0.11051570770E+02  0.14929338356E+02  0.51100000000E-03 0.  1.
         12    1    4    4    0    0  0.47275021595E+01  0.22006298591E+01  0.16440679158E+02  0.17247839854E+02  0.00000000000E+00 0. -1.
</event>
<event>
 8    1  0.1262344E-006  0.9118800E+02  0.7816164E-02  0.1184000E+00
        -11   -1    0    0    0    0  0.00000000000E+00  0.00000000000E+00  0.45593999997E+02  0.45594000000E+02  0.51100000000E-03 0.  1.
         11   -1    0    0    0    0 -0.00000000000E+00 -0.00000000000E+00 -0.45593999997E+02  0.45594000000E+02  0.51100000000E-03 0. -1.
         23    2    1    2    0    0  0.35527136788E-14  0.35527136788E-14  0.00000000000E+00  0.91188000000E+02  0.91188000000E+02 0.  0.
    9900012    2    3    3    0    0  0.10974489098E+02 -0.29683626346E+02  0.18820782122E+02  0.54367096648E+02  0.40000028428E+02 0.  0.
         12    1    3    3    0    0 -0.10974489098E+02  0.29683626346E+02 -0.18820782122E+02  0.36820903352E+02  0.00000000000E+00 0. -1.
         11    1    4    4    0    0 -0.67417083696E+01  0.32377504072E+01 -0.27515100913E+01  0.79689690352E+01  0.51100000000E-03 0. -1.
        -11    1    4    4    0    0  0.34348086596E+01 -0.10673811029E+02  0.15739943344E+02  0.19325474616E+02  0.51100000000E-03 0.  1.
         12    1    4    4    0    0  0.14281388808E+02 -0.22247565725E+02  0.58323488689E+01  0.27072652997E+02  0.00000000000E+00 0. -1.
</event>
<event>
 8    1  0.1262344E-006  0.9118800E+02  0.7816164E-02  0.1184000E+00
        -11   -1    0    0    0    0  0.00000000000E+00  0.00000000000E+00  0.45593999997E+02  0.45594000000E+02  0.51100000000E-03 0. -1.
         11   -1    0    0    0    0 -0.00000000000E+00 -0.00000000000E+00 -0.45593999997E+02  0.45594000000E+02  0.51100000000E-03 0.  1.
         23    2    1    2    0    0  0.00000000000E+00  0.00000000000E+00  0.00000000000E+00  0.91188000000E+02  0.91188000000E+02 0.  0.
    9900012    2    3    3    0    0  0.48066655467E+01 -0.22400237380E+02  0.28825415516E+02  0.54367092243E+02  0.40000018387E+02 0.  0.
        -12    1    3    3    0    0 -0.48066655467E+01  0.22400237380E+02 -0.28825415516E+02  0.36820907757E+02  0.00000000000E+00 0.  1.
         11    1    4    4    0    0 -0.92745472374E+01 -0.10508717528E+02 -0.27348874812E+01  0.14280405469E+02  0.51100000000E-03 0. -1.
        -11    1    4    4    0    0  0.10387876781E+02 -0.15479174246E+02  0.19519614091E+02  0.26991260694E+02  0.51100000000E-03 0.  1.
        -12    1    4    4    0    0  0.36933360033E+01  0.35876543943E+01  0.12040688907E+02  0.13095426081E+02  0.00000000000E+00 0.  1.
</event>
<event>
 8    1  0.1262344E-006  0.9118800E+02  0.7816164E-02  0.1184000E+00
        -11   -1    0    0    0    0  0.00000000000E+00  0.00000000000E+00  0.45593999997E+02  0.45594000000E+02  0.51100000000E-03 0.  1.
         11   -1    0    0    0    0 -0.00000000000E+00 -0.00000000000E+00 -0.45593999997E+02  0.45594000000E+02  0.51100000000E-03 0. -1.
         23    2    1    2    0    0 -0.44408920985E-15 -0.35527136788E-14 -0.35527136788E-14  0.91188000000E+02  0.91188000000E+02 0.  0.
    9900012    2    3    3    0    0 -0.37167628274E+01 -0.20689137984E+02  0.30231167856E+02  0.54367105573E+02  0.40000048776E+02 0.  0.
         12    1    3    3    0    0  0.37167628274E+01  0.20689137984E+02 -0.30231167856E+02  0.36820894427E+02  0.00000000000E+00 0. -1.
         11    1    4    4    0    0 -0.16427961229E+00  0.29555809552E+01 -0.48154206834E+01  0.56524970759E+01  0.51100000000E-03 0. -1.
        -11    1    4    4    0    0 -0.83356438958E+01 -0.26102885786E+01  0.21590219422E+02  0.23290215554E+02  0.51100000000E-03 0.  1.
         12    1    4    4    0    0  0.47831606806E+01 -0.21034430361E+02  0.13456369117E+02  0.25424392943E+02  0.00000000000E+00 0. -1.
</event>
<event>
 8    1  0.1262344E-006  0.9118800E+02  0.7816164E-02  0.1184000E+00
        -11   -1    0    0    0    0  0.00000000000E+00  0.00000000000E+00  0.45593999997E+02  0.45594000000E+02  0.51100000000E-03 0.  1.
         11   -1    0    0    0    0 -0.00000000000E+00 -0.00000000000E+00 -0.45593999997E+02  0.45594000000E+02  0.51100000000E-03 0. -1.
         23    2    1    2    0    0 -0.26645352591E-14  0.71054273576E-14  0.00000000000E+00  0.91188000000E+02  0.91188000000E+02 0.  0.
    9900012    2    3    3    0    0  0.65275682741E+01 -0.32193533483E+02  0.16635673261E+02  0.54367104159E+02  0.40000045552E+02 0.  0.
         12    1    3    3    0    0 -0.65275682741E+01  0.32193533483E+02 -0.16635673261E+02  0.36820895841E+02  0.00000000000E+00 0. -1.
         11    1    4    4    0    0 -0.45582254534E+01 -0.19633218214E+02  0.86840537038E+01  0.21946604879E+02  0.51100000000E-03 0.  1.
        -11    1    4    4    0    0 -0.81389606070E+01 -0.82421133185E+01  0.14606881796E+01  0.11675132630E+02  0.51100000000E-03 0. -1.
         12    1    4    4    0    0  0.19224754334E+02 -0.43182019500E+01  0.64909313774E+01  0.20745366650E+02  0.00000000000E+00 0. -1.
</event>
<event>
 8    1  0.1262344E-006  0.9118800E+02  0.7816164E-02  0.1184000E+00
        -11   -1    0    0    0    0  0.00000000000E+00  0.00000000000E+00  0.45593999997E+02  0.45594000000E+02  0.51100000000E-03 0. -1.
         11   -1    0    0    0    0 -0.00000000000E+00 -0.00000000000E+00 -0.45593999997E+02  0.45594000000E+02  0.51100000000E-03 0.  1.
         23    2    1    2    0    0  0.00000000000E+00  0.88817841970E-15 -0.35527136788E-14  0.91188000000E+02  0.91188000000E+02 0.  0.
    9900012    2    3    3    0    0  0.22813075462E+02 -0.31272806119E+01 -0.28732623580E+02  0.54367082659E+02  0.39999996537E+02 0.  0.
         12    1    3    3    0    0 -0.22813075462E+02  0.31272806119E+01  0.28732623580E+02  0.36820917341E+02  0.00000000000E+00 0. -1.
         11    1    4    4    0    0 -0.25484311004E+01  0.66266434404E+01  0.19740611541E+01  0.73691127051E+01  0.51100000000E-03 0. -1.
        -11    1    4    4    0    0  0.74051132588E+01 -0.14956531696E+02 -0.16948066864E+02  0.23785930998E+02  0.51100000000E-03 0.  1.
         12    1    4    4    0    0  0.17956393303E+02  0.52026076441E+01 -0.13758617870E+02  0.23212038955E+02  0.00000000000E+00 0. -1.
</event>
<event>
 8    1  0.1262344E-006  0.9118800E+02  0.7816164E-02  0.1184000E+00
        -11   -1    0    0    0    0  0.00000000000E+00  0.00000000000E+00  0.45593999997E+02  0.45594000000E+02  0.51100000000E-03 0. -1.
         11   -1    0    0    0    0 -0.00000000000E+00 -0.00000000000E+00 -0.45593999997E+02  0.45594000000E+02  0.51100000000E-03 0.  1.
         23    2    1    2    0    0  0.10658141036E-13  0.17763568394E-14  0.00000000000E+00  0.91188000000E+02  0.91188000000E+02 0.  0.
    9900012    2    3    3    0    0  0.28641915701E+02  0.13277688428E+02  0.18950540802E+02  0.54367090972E+02  0.40000015488E+02 0.  0.
        -12    1    3    3    0    0 -0.28641915701E+02 -0.13277688428E+02 -0.18950540802E+02  0.36820909028E+02  0.00000000000E+00 0.  1.
         11    1    4    4    0    0  0.11847447024E+02  0.12557729718E+02  0.17863610920E+02  0.24842849515E+02  0.51100000000E-03 0. -1.
        -11    1    4    4    0    0 -0.21616342623E+01  0.79214676134E+01  0.38321051730E+01  0.90613101785E+01  0.51100000000E-03 0.  1.
        -12    1    4    4    0    0  0.18956102939E+02 -0.72015089029E+01 -0.27451752916E+01  0.20462931278E+02  0.00000000000E+00 0.  1.
</event>
<event>
 8    1  0.1262344E-006  0.9118800E+02  0.7816164E-02  0.1184000E+00
        -11   -1    0    0    0    0  0.00000000000E+00  0.00000000000E+00  0.45593999997E+02  0.45594000000E+02  0.51100000000E-03 0.  1.
         11   -1    0    0    0    0 -0.00000000000E+00 -0.00000000000E+00 -0.45593999997E+02  0.45594000000E+02  0.51100000000E-03 0. -1.
         23    2    1    2    0    0  0.33306690739E-15  0.00000000000E+00  0.00000000000E+00  0.91188000000E+02  0.91188000000E+02 0.  0.
    9900012    2    3    3    0    0  0.99958730804E+00 -0.28552084197E+02  0.23228392995E+02  0.54367096590E+02  0.40000028296E+02 0.  0.
         12    1    3    3    0    0 -0.99958730804E+00  0.28552084197E+02 -0.23228392995E+02  0.36820903410E+02  0.00000000000E+00 0. -1.
         11    1    4    4    0    0  0.43881465396E+01 -0.24341734635E+02  0.16131910672E+02  0.29529890235E+02  0.51100000000E-03 0. -1.
        -11    1    4    4    0    0 -0.97970907342E+00 -0.12518365951E+02  0.96293363604E+01  0.15823824916E+02  0.51100000000E-03 0.  1.
         12    1    4    4    0    0 -0.24088501581E+01  0.83080163887E+01 -0.25328540371E+01  0.90133814394E+01  0.00000000000E+00 0. -1.
</event>
<event>
 8    1  0.1262344E-006  0.9118800E+02  0.7816164E-02  0.1184000E+00
        -11   -1    0    0    0    0  0.00000000000E+00  0.00000000000E+00  0.45593999997E+02  0.45594000000E+02  0.51100000000E-03 0. -1.
         11   -1    0    0    0    0 -0.00000000000E+00 -0.00000000000E+00 -0.45593999997E+02  0.45594000000E+02  0.51100000000E-03 0.  1.
         23    2    1    2    0    0  0.00000000000E+00  0.00000000000E+00 -0.35527136788E-14  0.91188000000E+02  0.91188000000E+02 0.  0.
    9900012    2    3    3    0    0 -0.83532137173E+01  0.30847799277E+02 -0.18287075210E+02  0.54367081769E+02  0.39999994508E+02 0.  0.
         12    1    3    3    0    0  0.83532137173E+01 -0.30847799277E+02  0.18287075210E+02  0.36820918231E+02  0.00000000000E+00 0. -1.
         11    1    4    4    0    0 -0.12650035110E+02  0.21800567500E+02  0.34995082070E+00  0.25207352052E+02  0.51100000000E-03 0. -1.
        -11    1    4    4    0    0 -0.36015892543E+01  0.12353342736E+02 -0.68100604092E+01  0.14558620984E+02  0.51100000000E-03 0.  1.
         12    1    4    4    0    0  0.78984106475E+01 -0.33061109587E+01 -0.11826965621E+02  0.14601108733E+02  0.00000000000E+00 0. -1.
</event>
<event>
 8    1  0.1262344E-006  0.9118800E+02  0.7816164E-02  0.1184000E+00
        -11   -1    0    0    0    0  0.00000000000E+00  0.00000000000E+00  0.45593999997E+02  0.45594000000E+02  0.51100000000E-03 0.  1.
         11   -1    0    0    0    0 -0.00000000000E+00 -0.00000000000E+00 -0.45593999997E+02  0.45594000000E+02  0.51100000000E-03 0. -1.
         23    2    1    2    0    0 -0.88817841970E-15  0.00000000000E+00  0.00000000000E+00  0.91188000000E+02  0.91188000000E+02 0.  0.
    9900012    2    3    3    0    0  0.59662039239E+01  0.18527417090E+02  0.31255594729E+02  0.54367177424E+02  0.40000212573E+02 0.  0.
         12    1    3    3    0    0 -0.59662039239E+01 -0.18527417090E+02 -0.31255594729E+02  0.36820822576E+02  0.00000000000E+00 0. -1.
         11    1    4    4    0    0  0.14624831337E+02  0.11398506165E+02  0.31994954950E+01  0.18816174056E+02  0.51100000000E-03 0. -1.
        -11    1    4    4    0    0 -0.70170616672E+01 -0.21049459829E+01  0.24414884898E+02  0.25490322808E+02  0.51100000000E-03 0.  1.
        -12    1    4    4    0    0 -0.16415657456E+01  0.92338569074E+01  0.36412143364E+01  0.10060680560E+02  0.00000000000E+00 0.  1.
</event>
<event>
 8    1  0.1262344E-006  0.9118800E+02  0.7816164E-02  0.1184000E+00
        -11   -1    0    0    0    0  0.00000000000E+00  0.00000000000E+00  0.45593999997E+02  0.45594000000E+02  0.51100000000E-03 0.  1.
         11   -1    0    0    0    0 -0.00000000000E+00 -0.00000000000E+00 -0.45593999997E+02  0.45594000000E+02  0.51100000000E-03 0. -1.
         23    2    1    2    0    0 -0.33306690739E-15  0.17763568394E-14  0.00000000000E+00  0.91188000000E+02  0.91188000000E+02 0.  0.
    9900012    2    3    3    0    0 -0.87325673631E+00 -0.11835289939E+02  0.34856037782E+02  0.54367081555E+02  0.39999994021E+02 0.  0.
         12    1    3    3    0    0  0.87325673631E+00  0.11835289939E+02 -0.34856037782E+02  0.36820918445E+02  0.00000000000E+00 0. -1.
         11    1    4    4    0    0 -0.31349442346E+01 -0.90548089844E+01 -0.59902868793E+01  0.11300485753E+02  0.51100000000E-03 0. -1.
        -11    1    4    4    0    0 -0.41868854686E+01  0.56908161666E+00  0.27918853711E+02  0.28236789064E+02  0.51100000000E-03 0.  1.
         12    1    4    4    0    0  0.64485729669E+01 -0.33495625715E+01  0.12927470950E+02  0.14829806738E+02  0.00000000000E+00 0. -1.
</event>
<event>
 8    1  0.1262344E-006  0.9118800E+02  0.7816164E-02  0.1184000E+00
        -11   -1    0    0    0    0  0.00000000000E+00  0.00000000000E+00  0.45593999997E+02  0.45594000000E+02  0.51100000000E-03 0. -1.
         11   -1    0    0    0    0 -0.00000000000E+00 -0.00000000000E+00 -0.45593999997E+02  0.45594000000E+02  0.51100000000E-03 0.  1.
         23    2    1    2    0    0  0.00000000000E+00  0.22204460493E-15  0.71054273576E-14  0.91188000000E+02  0.91188000000E+02 0.  0.
    9900012    2    3    3    0    0  0.60508350763E+01  0.17600677563E+01 -0.36277674884E+02  0.54367080150E+02  0.39999990818E+02 0.  0.
         12    1    3    3    0    0 -0.60508350763E+01 -0.17600677563E+01  0.36277674884E+02  0.36820919850E+02  0.00000000000E+00 0. -1.
         11    1    4    4    0    0 -0.11571921383E+01  0.22044716126E+01 -0.49663985914E+00  0.25387871408E+01  0.51100000000E-03 0. -1.
        -11    1    4    4    0    0 -0.77376576016E+01 -0.48838565034E+01 -0.35045014622E+02  0.36219835031E+02  0.51100000000E-03 0.  1.
         12    1    4    4    0    0  0.14945684816E+02  0.44394526471E+01 -0.73602040236E+00  0.15608457978E+02  0.00000000000E+00 0. -1.
</event>
<event>
 8    1  0.1262344E-006  0.9118800E+02  0.7816164E-02  0.1184000E+00
        -11   -1    0    0    0    0  0.00000000000E+00  0.00000000000E+00  0.45593999997E+02  0.45594000000E+02  0.51100000000E-03 0.  1.
         11   -1    0    0    0    0 -0.00000000000E+00 -0.00000000000E+00 -0.45593999997E+02  0.45594000000E+02  0.51100000000E-03 0. -1.
         23    2    1    2    0    0 -0.88817841970E-15  0.35527136788E-14  0.00000000000E+00  0.91188000000E+02  0.91188000000E+02 0.  0.
    9900012    2    3    3    0    0 -0.48092108609E+01  0.29449706455E+02 -0.21572344558E+02  0.54367085167E+02  0.40000002256E+02 0.  0.
        -12    1    3    3    0    0  0.48092108609E+01 -0.29449706455E+02  0.21572344558E+02  0.36820914833E+02  0.00000000000E+00 0.  1.
         11    1    4    4    0    0 -0.15347234055E+01  0.88953334541E-02 -0.63066830675E+01  0.64907400682E+01  0.51100000000E-03 0. -1.
        -11    1    4    4    0    0 -0.14934665197E+02  0.30070727346E+02 -0.12861188002E+02  0.35954179517E+02  0.51100000000E-03 0.  1.
         12    1    4    4    0    0  0.11660177742E+02 -0.62991622404E+00 -0.24044734882E+01  0.11922165582E+02  0.00000000000E+00 0. -1.
</event>
<event>
 8    1  0.1262344E-006  0.9118800E+02  0.7816164E-02  0.1184000E+00
        -11   -1    0    0    0    0  0.00000000000E+00  0.00000000000E+00  0.45593999997E+02  0.45594000000E+02  0.51100000000E-03 0.  1.
         11   -1    0    0    0    0 -0.00000000000E+00 -0.00000000000E+00 -0.45593999997E+02  0.45594000000E+02  0.51100000000E-03 0. -1.
         23    2    1    2    0    0  0.00000000000E+00 -0.88817841970E-15  0.00000000000E+00  0.91188000000E+02  0.91188000000E+02 0.  0.
    9900012    2    3    3    0    0 -0.35960081629E+02 -0.72962217014E+01 -0.30689522535E+01  0.54367071307E+02  0.39999970658E+02 0.  0.
         12    1    3    3    0    0  0.35960081629E+02  0.72962217014E+01  0.30689522535E+01  0.36820928693E+02  0.00000000000E+00 0. -1.
         11    1    4    4    0    0 -0.12546767226E+02  0.22140060279E+01 -0.10787600478E+01  0.12786200140E+02  0.51100000000E-03 0. -1.
        -11    1    4    4    0    0 -0.19856160498E+02 -0.23047225022E+01 -0.15883108502E+02  0.25531392275E+02  0.51100000000E-03 0.  1.
         12    1    4    4    0    0 -0.35571539048E+01 -0.72055052270E+01  0.13892916297E+02  0.16049478892E+02  0.00000000000E+00 0. -1.
</event>
<event>
 8    1  0.1262344E-006  0.9118800E+02  0.7816164E-02  0.1184000E+00
        -11   -1    0    0    0    0  0.00000000000E+00  0.00000000000E+00  0.45593999997E+02  0.45594000000E+02  0.51100000000E-03 0. -1.
         11   -1    0    0    0    0 -0.00000000000E+00 -0.00000000000E+00 -0.45593999997E+02  0.45594000000E+02  0.51100000000E-03 0.  1.
         23    2    1    2    0    0  0.00000000000E+00 -0.44408920985E-15 -0.35527136788E-14  0.91188000000E+02  0.91188000000E+02 0.  0.
    9900012    2    3    3    0    0 -0.21577708454E+02 -0.23919993887E+01 -0.29739858604E+02  0.54367104397E+02  0.40000046093E+02 0.  0.
         12    1    3    3    0    0  0.21577708454E+02  0.23919993887E+01  0.29739858604E+02  0.36820895603E+02  0.00000000000E+00 0. -1.
         11    1    4    4    0    0 -0.32007051702E+01  0.62429298771E+01  0.56994531684E+01  0.90389409622E+01  0.51100000000E-03 0. -1.
        -11    1    4    4    0    0 -0.18308665734E+02  0.11550344234E+01 -0.25096842881E+02  0.31086860059E+02  0.51100000000E-03 0.  1.
         12    1    4    4    0    0 -0.68337550254E-01 -0.97899636892E+01 -0.10342468892E+02  0.14241303376E+02  0.00000000000E+00 0. -1.
</event>
<event>
 8    1  0.1262344E-006  0.9118800E+02  0.7816164E-02  0.1184000E+00
        -11   -1    0    0    0    0  0.00000000000E+00  0.00000000000E+00  0.45593999997E+02  0.45594000000E+02  0.51100000000E-03 0. -1.
         11   -1    0    0    0    0 -0.00000000000E+00 -0.00000000000E+00 -0.45593999997E+02  0.45594000000E+02  0.51100000000E-03 0.  1.
         23    2    1    2    0    0  0.17763568394E-14 -0.35527136788E-14 -0.35527136788E-14  0.91188000000E+02  0.91188000000E+02 0.  0.
    9900012    2    3    3    0    0 -0.76101022718E+01 -0.20115844164E+02  0.29886782868E+02  0.54367073433E+02  0.39999975505E+02 0.  0.
        -12    1    3    3    0    0  0.76101022718E+01  0.20115844164E+02 -0.29886782868E+02  0.36820926567E+02  0.00000000000E+00 0.  1.
         11    1    4    4    0    0  0.17508386238E+01  0.14203454722E+01  0.14337341292E+02  0.14513516898E+02  0.51100000000E-03 0. -1.
        -11    1    4    4    0    0 -0.12001840224E+02 -0.23812775243E+02  0.20613850734E+02  0.33704944383E+02  0.51100000000E-03 0.  1.
        -12    1    4    4    0    0  0.26408993282E+01  0.22765856065E+01 -0.50644091573E+01  0.61486121521E+01  0.00000000000E+00 0.  1.
</event>
<event>
 8    1  0.1262344E-006  0.9118800E+02  0.7816164E-02  0.1184000E+00
        -11   -1    0    0    0    0  0.00000000000E+00  0.00000000000E+00  0.45593999997E+02  0.45594000000E+02  0.51100000000E-03 0.  1.
         11   -1    0    0    0    0 -0.00000000000E+00 -0.00000000000E+00 -0.45593999997E+02  0.45594000000E+02  0.51100000000E-03 0. -1.
         23    2    1    2    0    0  0.35527136788E-14  0.44408920985E-15  0.35527136788E-14  0.91188000000E+02  0.91188000000E+02 0.  0.
    9900012    2    3    3    0    0  0.31458196240E+02  0.22034935120E+01 -0.19008052263E+02  0.54367088209E+02  0.40000009190E+02 0.  0.
        -12    1    3    3    0    0 -0.31458196240E+02 -0.22034935120E+01  0.19008052263E+02  0.36820911791E+02  0.00000000000E+00 0.  1.
         11    1    4    4    0    0  0.33229238123E+01 -0.10042082664E+01 -0.77355345493E+01  0.84787234846E+01  0.51100000000E-03 0. -1.
        -11    1    4    4    0    0  0.25148134053E+02  0.16272827044E+02 -0.29186365100E+01  0.30095713743E+02  0.51100000000E-03 0.  1.
        -12    1    4    4    0    0  0.29871383743E+01 -0.13065125265E+02 -0.83538812033E+01  0.15792650981E+02  0.00000000000E+00 0.  1.
</event>
<event>
 8    1  0.1262344E-006  0.9118800E+02  0.7816164E-02  0.1184000E+00
        -11   -1    0    0    0    0  0.00000000000E+00  0.00000000000E+00  0.45593999997E+02  0.45594000000E+02  0.51100000000E-03 0.  1.
         11   -1    0    0    0    0 -0.00000000000E+00 -0.00000000000E+00 -0.45593999997E+02  0.45594000000E+02  0.51100000000E-03 0. -1.
         23    2    1    2    0    0  0.00000000000E+00  0.00000000000E+00  0.00000000000E+00  0.91188000000E+02  0.91188000000E+02 0.  0.
    9900012    2    3    3    0    0 -0.22066576962E+02 -0.19802543768E+02  0.21833579053E+02  0.54367085661E+02  0.40000003381E+02 0.  0.
         12    1    3    3    0    0  0.22066576962E+02  0.19802543768E+02 -0.21833579053E+02  0.36820914339E+02  0.00000000000E+00 0. -1.
         11    1    4    4    0    0 -0.47955845611E+01  0.96595495892E+00  0.10213442984E+02  0.11324536110E+02  0.51100000000E-03 0. -1.
        -11    1    4    4    0    0 -0.25318124791E+02 -0.92815604464E+01  0.45886084978E+01  0.27353430049E+02  0.51100000000E-03 0.  1.
        -12    1    4    4    0    0  0.80471323898E+01 -0.11486938280E+02  0.70315275717E+01  0.15689119502E+02  0.00000000000E+00 0.  1.
</event>
<event>
 8    1  0.1262344E-006  0.9118800E+02  0.7816164E-02  0.1184000E+00
        -11   -1    0    0    0    0  0.00000000000E+00  0.00000000000E+00  0.45593999997E+02  0.45594000000E+02  0.51100000000E-03 0.  1.
         11   -1    0    0    0    0 -0.00000000000E+00 -0.00000000000E+00 -0.45593999997E+02  0.45594000000E+02  0.51100000000E-03 0. -1.
         23    2    1    2    0    0  0.00000000000E+00  0.88817841970E-15  0.00000000000E+00  0.91188000000E+02  0.91188000000E+02 0.  0.
    9900012    2    3    3    0    0  0.16504365286E+02  0.75260480571E+01 -0.32042852348E+02  0.54367083941E+02  0.39999999460E+02 0.  0.
        -12    1    3    3    0    0 -0.16504365286E+02 -0.75260480571E+01  0.32042852348E+02  0.36820916059E+02  0.00000000000E+00 0.  1.
         11    1    4    4    0    0 -0.47158783778E+01 -0.24814190385E+01 -0.21825220440E+02  0.22466356999E+02  0.51100000000E-03 0. -1.
        -11    1    4    4    0    0  0.97855481524E+01  0.14050356018E+02 -0.98787509573E+01  0.19767629539E+02  0.51100000000E-03 0.  1.
        -12    1    4    4    0    0  0.11434695511E+02 -0.40428889222E+01 -0.33888095082E+00  0.12133097402E+02  0.00000000000E+00 0.  1.
</event>
<event>
 8    1  0.1262344E-006  0.9118800E+02  0.7816164E-02  0.1184000E+00
        -11   -1    0    0    0    0  0.00000000000E+00  0.00000000000E+00  0.45593999997E+02  0.45594000000E+02  0.51100000000E-03 0.  1.
         11   -1    0    0    0    0 -0.00000000000E+00 -0.00000000000E+00 -0.45593999997E+02  0.45594000000E+02  0.51100000000E-03 0. -1.
         23    2    1    2    0    0  0.17763568394E-14  0.00000000000E+00 -0.11102230246E-15  0.91188000000E+02  0.91188000000E+02 0.  0.
    9900012    2    3    3    0    0  0.10197286334E+02 -0.35377016771E+02  0.51159017749E+00  0.54367086260E+02  0.40000004746E+02 0.  0.
        -12    1    3    3    0    0 -0.10197286334E+02  0.35377016771E+02 -0.51159017749E+00  0.36820913740E+02  0.00000000000E+00 0.  1.
         11    1    4    4    0    0  0.11473647055E+02 -0.73974340924E+01 -0.29034252286E+01  0.13956951179E+02  0.51100000000E-03 0. -1.
        -11    1    4    4    0    0 -0.14331671648E+01 -0.74234092633E+01 -0.12366258404E+02  0.14494320280E+02  0.51100000000E-03 0.  1.
        -12    1    4    4    0    0  0.15680644414E+00 -0.20556173415E+02  0.15781273810E+02  0.25915814801E+02  0.00000000000E+00 0.  1.
</event>
<event>
 8    1  0.1262344E-006  0.9118800E+02  0.7816164E-02  0.1184000E+00
        -11   -1    0    0    0    0  0.00000000000E+00  0.00000000000E+00  0.45593999997E+02  0.45594000000E+02  0.51100000000E-03 0.  1.
         11   -1    0    0    0    0 -0.00000000000E+00 -0.00000000000E+00 -0.45593999997E+02  0.45594000000E+02  0.51100000000E-03 0. -1.
         23    2    1    2    0    0  0.00000000000E+00  0.00000000000E+00  0.17763568394E-14  0.91188000000E+02  0.91188000000E+02 0.  0.
    9900012    2    3    3    0    0  0.33418744704E+02 -0.63328397691E+01 -0.14101823705E+02  0.54367098477E+02  0.40000032598E+02 0.  0.
        -12    1    3    3    0    0 -0.33418744704E+02  0.63328397691E+01  0.14101823705E+02  0.36820901523E+02  0.00000000000E+00 0.  1.
         11    1    4    4    0    0  0.21658312243E+02 -0.62737062618E+01 -0.12761270483E+02  0.25909301497E+02  0.51100000000E-03 0. -1.
        -11    1    4    4    0    0 -0.23448335375E+01 -0.31666271933E+01  0.95746605983E+01  0.10353738356E+02  0.51100000000E-03 0.  1.
        -12    1    4    4    0    0  0.14105265999E+02  0.31074936860E+01 -0.10915213821E+02  0.18104058624E+02  0.00000000000E+00 0.  1.
</event>
<event>
 8    1  0.1262344E-006  0.9118800E+02  0.7816164E-02  0.1184000E+00
        -11   -1    0    0    0    0  0.00000000000E+00  0.00000000000E+00  0.45593999997E+02  0.45594000000E+02  0.51100000000E-03 0. -1.
         11   -1    0    0    0    0 -0.00000000000E+00 -0.00000000000E+00 -0.45593999997E+02  0.45594000000E+02  0.51100000000E-03 0.  1.
         23    2    1    2    0    0  0.35527136788E-14  0.00000000000E+00 -0.17763568394E-14  0.91188000000E+02  0.91188000000E+02 0.  0.
    9900012    2    3    3    0    0 -0.29040164325E+02 -0.20591689907E+02 -0.94037809669E+01  0.54367082932E+02  0.39999997160E+02 0.  0.
         12    1    3    3    0    0  0.29040164325E+02  0.20591689907E+02  0.94037809669E+01  0.36820917068E+02  0.00000000000E+00 0. -1.
         11    1    4    4    0    0 -0.51715232998E-02 -0.18019284029E+01  0.79512197225E+01  0.81528441694E+01  0.51100000000E-03 0. -1.
        -11    1    4    4    0    0 -0.13491065940E+02 -0.20135429749E+02 -0.19936074477E+01  0.24319104883E+02  0.51100000000E-03 0.  1.
         12    1    4    4    0    0 -0.15543926861E+02  0.13456682446E+01 -0.15361393242E+02  0.21895133880E+02  0.00000000000E+00 0. -1.
</event>
<event>
 8    1  0.1262344E-006  0.9118800E+02  0.7816164E-02  0.1184000E+00
        -11   -1    0    0    0    0  0.00000000000E+00  0.00000000000E+00  0.45593999997E+02  0.45594000000E+02  0.51100000000E-03 0.  1.
         11   -1    0    0    0    0 -0.00000000000E+00 -0.00000000000E+00 -0.45593999997E+02  0.45594000000E+02  0.51100000000E-03 0. -1.
         23    2    1    2    0    0  0.00000000000E+00  0.00000000000E+00  0.22204460493E-14  0.91188000000E+02  0.91188000000E+02 0.  0.
    9900012    2    3    3    0    0 -0.30665040813E+02 -0.20129849362E+02  0.31978010883E+01  0.54367061729E+02  0.39999948824E+02 0.  0.
         12    1    3    3    0    0  0.30665040813E+02  0.20129849362E+02 -0.31978010883E+01  0.36820938271E+02  0.00000000000E+00 0. -1.
         11    1    4    4    0    0 -0.11329768134E+02  0.46690643473E+00 -0.14197366441E+02  0.18169943911E+02  0.51100000000E-03 0. -1.
        -11    1    4    4    0    0 -0.11942294976E+02 -0.78022984238E+01  0.15874434357E+02  0.21342257060E+02  0.51100000000E-03 0.  1.
         12    1    4    4    0    0 -0.73929777021E+01 -0.12794457372E+02  0.15207331726E+01  0.14854860758E+02  0.00000000000E+00 0. -1.
</event>
<event>
 8    1  0.1262344E-006  0.9118800E+02  0.7816164E-02  0.1184000E+00
        -11   -1    0    0    0    0  0.00000000000E+00  0.00000000000E+00  0.45593999997E+02  0.45594000000E+02  0.51100000000E-03 0. -1.
         11   -1    0    0    0    0 -0.00000000000E+00 -0.00000000000E+00 -0.45593999997E+02  0.45594000000E+02  0.51100000000E-03 0.  1.
         23    2    1    2    0    0 -0.35527136788E-14  0.00000000000E+00  0.35527136788E-14  0.91188000000E+02  0.91188000000E+02 0.  0.
    9900012    2    3    3    0    0  0.17101779175E+02  0.19489198451E+02 -0.26143453310E+02  0.54367083957E+02  0.39999999498E+02 0.  0.
         12    1    3    3    0    0 -0.17101779175E+02 -0.19489198451E+02  0.26143453310E+02  0.36820916043E+02  0.00000000000E+00 0. -1.
         11    1    4    4    0    0  0.31027983299E+01  0.10697685781E+02 -0.37732816074E+01  0.11760335577E+02  0.51100000000E-03 0. -1.
        -11    1    4    4    0    0 -0.80611550627E+01 -0.47308158803E+01 -0.10742167426E+02  0.14239276706E+02  0.51100000000E-03 0.  1.
         12    1    4    4    0    0  0.22060135908E+02  0.13522328551E+02 -0.11628004277E+02  0.28367471674E+02  0.00000000000E+00 0. -1.
</event>
<event>
 8    1  0.1262344E-006  0.9118800E+02  0.7816164E-02  0.1184000E+00
        -11   -1    0    0    0    0  0.00000000000E+00  0.00000000000E+00  0.45593999997E+02  0.45594000000E+02  0.51100000000E-03 0.  1.
         11   -1    0    0    0    0 -0.00000000000E+00 -0.00000000000E+00 -0.45593999997E+02  0.45594000000E+02  0.51100000000E-03 0. -1.
         23    2    1    2    0    0  0.00000000000E+00  0.00000000000E+00 -0.88817841970E-15  0.91188000000E+02  0.91188000000E+02 0.  0.
    9900012    2    3    3    0    0  0.27791471231E+02  0.23287895689E+02 -0.64099136680E+01  0.54367096262E+02  0.40000027549E+02 0.  0.
         12    1    3    3    0    0 -0.27791471231E+02 -0.23287895689E+02  0.64099136680E+01  0.36820903738E+02  0.00000000000E+00 0. -1.
         11    1    4    4    0    0 -0.46446909038E+01  0.56846370096E+01 -0.27833522814E+01  0.78508153530E+01  0.51100000000E-03 0. -1.
        -11    1    4    4    0    0  0.28587906370E+02  0.17903866397E+02 -0.13178041886E+02  0.36214328805E+02  0.51100000000E-03 0.  1.
        -12    1    4    4    0    0  0.38482557647E+01 -0.30060771792E+00  0.95514804990E+01  0.10301952104E+02  0.00000000000E+00 0.  1.
</event>
<event>
 8    1  0.1262344E-006  0.9118800E+02  0.7816164E-02  0.1184000E+00
        -11   -1    0    0    0    0  0.00000000000E+00  0.00000000000E+00  0.45593999997E+02  0.45594000000E+02  0.51100000000E-03 0. -1.
         11   -1    0    0    0    0 -0.00000000000E+00 -0.00000000000E+00 -0.45593999997E+02  0.45594000000E+02  0.51100000000E-03 0.  1.
         23    2    1    2    0    0 -0.17763568394E-14  0.00000000000E+00  0.71054273576E-14  0.91188000000E+02  0.91188000000E+02 0.  0.
    9900012    2    3    3    0    0 -0.11015698901E+02 -0.13697582161E+02 -0.32354541453E+02  0.54367004196E+02  0.39999817665E+02 0.  0.
         12    1    3    3    0    0  0.11015698901E+02  0.13697582161E+02  0.32354541453E+02  0.36820995804E+02  0.00000000000E+00 0. -1.
         11    1    4    4    0    0  0.10884529460E+02 -0.20600572576E+01  0.23951853782E+01  0.11333743015E+02  0.51100000000E-03 0. -1.
        -11    1    4    4    0    0 -0.82436229574E+01 -0.15742747013E+01 -0.12447736397E+02  0.15012721338E+02  0.51100000000E-03 0.  1.
         12    1    4    4    0    0 -0.13656605404E+02 -0.10063250203E+02 -0.22301990434E+02  0.28020539843E+02  0.00000000000E+00 0. -1.
</event>
<event>
 8    1  0.1262344E-006  0.9118800E+02  0.7816164E-02  0.1184000E+00
        -11   -1    0    0    0    0  0.00000000000E+00  0.00000000000E+00  0.45593999997E+02  0.45594000000E+02  0.51100000000E-03 0.  1.
         11   -1    0    0    0    0 -0.00000000000E+00 -0.00000000000E+00 -0.45593999997E+02  0.45594000000E+02  0.51100000000E-03 0. -1.
         23    2    1    2    0    0  0.00000000000E+00  0.00000000000E+00  0.00000000000E+00  0.91188000000E+02  0.91188000000E+02 0.  0.
    9900012    2    3    3    0    0  0.18889553821E+02 -0.26179321705E+02 -0.17708970277E+02  0.54367085335E+02  0.40000002638E+02 0.  0.
        -12    1    3    3    0    0 -0.18889553821E+02  0.26179321705E+02  0.17708970277E+02  0.36820914665E+02  0.00000000000E+00 0.  1.
         11    1    4    4    0    0  0.28189856087E+01  0.50271360348E+01  0.25645167703E+01  0.63083692901E+01  0.51100000000E-03 0. -1.
        -11    1    4    4    0    0  0.19503150547E+02 -0.11045550944E+02 -0.14896940448E+02  0.26912746272E+02  0.51100000000E-03 0.  1.
         12    1    4    4    0    0 -0.34325823340E+01 -0.20160906796E+02 -0.53765465989E+01  0.21145969773E+02  0.00000000000E+00 0. -1.
</event>
<event>
 8    1  0.1262344E-006  0.9118800E+02  0.7816164E-02  0.1184000E+00
        -11   -1    0    0    0    0  0.00000000000E+00  0.00000000000E+00  0.45593999997E+02  0.45594000000E+02  0.51100000000E-03 0.  1.
         11   -1    0    0    0    0 -0.00000000000E+00 -0.00000000000E+00 -0.45593999997E+02  0.45594000000E+02  0.51100000000E-03 0. -1.
         23    2    1    2    0    0  0.00000000000E+00  0.00000000000E+00  0.00000000000E+00  0.91188000000E+02  0.91188000000E+02 0.  0.
    9900012    2    3    3    0    0 -0.87703381809E+01 -0.10488933308E+02 -0.34188355747E+02  0.54367079011E+02  0.39999988222E+02 0.  0.
        -12    1    3    3    0    0  0.87703381809E+01  0.10488933308E+02  0.34188355747E+02  0.36820920989E+02  0.00000000000E+00 0.  1.
         11    1    4    4    0    0 -0.96877556546E+01  0.60989846675E+01 -0.10997870835E+02  0.15874614539E+02  0.51100000000E-03 0. -1.
        -11    1    4    4    0    0 -0.73649194112E+01 -0.19916572577E+02 -0.19512079498E+02  0.28838050346E+02  0.51100000000E-03 0.  1.
        -12    1    4    4    0    0  0.82823368848E+01  0.33286546015E+01 -0.36784054142E+01  0.96544141262E+01  0.00000000000E+00 0.  1.
</event>
<event>
 8    1  0.1262344E-006  0.9118800E+02  0.7816164E-02  0.1184000E+00
        -11   -1    0    0    0    0  0.00000000000E+00  0.00000000000E+00  0.45593999997E+02  0.45594000000E+02  0.51100000000E-03 0.  1.
         11   -1    0    0    0    0 -0.00000000000E+00 -0.00000000000E+00 -0.45593999997E+02  0.45594000000E+02  0.51100000000E-03 0. -1.
         23    2    1    2    0    0  0.35527136788E-14  0.00000000000E+00  0.35527136788E-14  0.91188000000E+02  0.91188000000E+02 0.  0.
    9900012    2    3    3    0    0 -0.20704095656E+02 -0.13286417207E+02  0.27396927177E+02  0.54367080975E+02  0.39999992698E+02 0.  0.
         12    1    3    3    0    0  0.20704095656E+02  0.13286417207E+02 -0.27396927177E+02  0.36820919025E+02  0.00000000000E+00 0. -1.
         11    1    4    4    0    0 -0.67216874691E+01 -0.72379714984E+01 -0.56173191148E+01  0.11363256054E+02  0.51100000000E-03 0. -1.
        -11    1    4    4    0    0 -0.19150618530E+02 -0.56509757665E+01  0.32005525885E+02  0.37723114991E+02  0.51100000000E-03 0.  1.
        -12    1    4    4    0    0  0.51682103432E+01 -0.39746994190E+00  0.10087204069E+01  0.52807099300E+01  0.00000000000E+00 0.  1.
</event>
<event>
 8    1  0.1262344E-006  0.9118800E+02  0.7816164E-02  0.1184000E+00
        -11   -1    0    0    0    0  0.00000000000E+00  0.00000000000E+00  0.45593999997E+02  0.45594000000E+02  0.51100000000E-03 0.  1.
         11   -1    0    0    0    0 -0.00000000000E+00 -0.00000000000E+00 -0.45593999997E+02  0.45594000000E+02  0.51100000000E-03 0. -1.
         23    2    1    2    0    0  0.17763568394E-14 -0.71054273576E-14  0.00000000000E+00  0.91188000000E+02  0.91188000000E+02 0.  0.
    9900012    2    3    3    0    0  0.91757243645E+01 -0.28506944992E+02 -0.21422921444E+02  0.54367063108E+02  0.39999951968E+02 0.  0.
        -12    1    3    3    0    0 -0.91757243645E+01  0.28506944992E+02  0.21422921444E+02  0.36820936892E+02  0.00000000000E+00 0.  1.
         11    1    4    4    0    0 -0.30081589296E+01 -0.31913993037E+01 -0.10900526553E+02  0.11749703360E+02  0.51100000000E-03 0. -1.
        -11    1    4    4    0    0 -0.54982266095E+01 -0.59825283486E+01 -0.14000836494E+02  0.16187790586E+02  0.51100000000E-03 0.  1.
        -12    1    4    4    0    0  0.17682109904E+02 -0.19333017340E+02  0.34784416027E+01  0.26429569162E+02  0.00000000000E+00 0.  1.
</event>
<event>
 8    1  0.1262344E-006  0.9118800E+02  0.7816164E-02  0.1184000E+00
        -11   -1    0    0    0    0  0.00000000000E+00  0.00000000000E+00  0.45593999997E+02  0.45594000000E+02  0.51100000000E-03 0.  1.
         11   -1    0    0    0    0 -0.00000000000E+00 -0.00000000000E+00 -0.45593999997E+02  0.45594000000E+02  0.51100000000E-03 0. -1.
         23    2    1    2    0    0 -0.35527136788E-14  0.35527136788E-14 -0.35527136788E-14  0.91188000000E+02  0.91188000000E+02 0.  0.
    9900012    2    3    3    0    0 -0.27890625468E+02  0.17278073103E+02 -0.16714075672E+02  0.54367093917E+02  0.40000022203E+02 0.  0.
        -12    1    3    3    0    0  0.27890625468E+02 -0.17278073103E+02  0.16714075672E+02  0.36820906083E+02  0.00000000000E+00 0.  1.
         11    1    4    4    0    0 -0.55434821947E-01  0.13966995292E+02 -0.28194804859E+01  0.14248842093E+02  0.51100000000E-03 0. -1.
        -11    1    4    4    0    0 -0.19651273860E+02 -0.20847326720E+01  0.35788217473E+01  0.20082993801E+02  0.51100000000E-03 0.  1.
         12    1    4    4    0    0 -0.81839167864E+01  0.53958104829E+01 -0.17473416934E+02  0.20035258024E+02  0.00000000000E+00 0. -1.
</event>
<event>
 8    1  0.1262344E-006  0.9118800E+02  0.7816164E-02  0.1184000E+00
        -11   -1    0    0    0    0  0.00000000000E+00  0.00000000000E+00  0.45593999997E+02  0.45594000000E+02  0.51100000000E-03 0.  1.
         11   -1    0    0    0    0 -0.00000000000E+00 -0.00000000000E+00 -0.45593999997E+02  0.45594000000E+02  0.51100000000E-03 0. -1.
         23    2    1    2    0    0  0.17763568394E-14  0.00000000000E+00  0.35527136788E-14  0.91188000000E+02  0.91188000000E+02 0.  0.
    9900012    2    3    3    0    0 -0.89790504448E+01 -0.30563771915E+02 -0.18466542601E+02  0.54367072579E+02  0.39999973557E+02 0.  0.
        -12    1    3    3    0    0  0.89790504448E+01  0.30563771915E+02  0.18466542601E+02  0.36820927421E+02  0.00000000000E+00 0.  1.
         11    1    4    4    0    0  0.88087169343E+01 -0.24954174908E+02 -0.75429514473E+01  0.27517275595E+02  0.51100000000E-03 0. -1.
        -11    1    4    4    0    0  0.21698107090E+01 -0.28086713150E+01 -0.44297779966E+01  0.56762352337E+01  0.51100000000E-03 0.  1.
        -12    1    4    4    0    0 -0.19957578088E+02 -0.28009256921E+01 -0.64938131567E+01  0.21173561750E+02  0.00000000000E+00 0.  1.
</event>
<event>
 8    1  0.1262344E-006  0.9118800E+02  0.7816164E-02  0.1184000E+00
        -11   -1    0    0    0    0  0.00000000000E+00  0.00000000000E+00  0.45593999997E+02  0.45594000000E+02  0.51100000000E-03 0. -1.
         11   -1    0    0    0    0 -0.00000000000E+00 -0.00000000000E+00 -0.45593999997E+02  0.45594000000E+02  0.51100000000E-03 0.  1.
         23    2    1    2    0    0  0.71054273576E-14 -0.71054273576E-14 -0.71054273576E-14  0.91188000000E+02  0.91188000000E+02 0.  0.
    9900012    2    3    3    0    0 -0.24050235308E+02  0.19259439254E+02  0.20160241486E+02  0.54367147816E+02  0.40000145076E+02 0.  0.
        -12    1    3    3    0    0  0.24050235308E+02 -0.19259439254E+02 -0.20160241486E+02  0.36820852184E+02  0.00000000000E+00 0.  1.
         11    1    4    4    0    0 -0.11116270131E+02  0.21659331093E+02  0.21116264697E+02  0.32227235687E+02  0.51100000000E-03 0. -1.
        -11    1    4    4    0    0 -0.64164325688E+01  0.75783383935E+01  0.12856754852E+01  0.10012730968E+02  0.51100000000E-03 0.  1.
        -12    1    4    4    0    0 -0.65175326084E+01 -0.99782302328E+01 -0.22416986955E+01  0.12127181161E+02  0.00000000000E+00 0.  1.
</event>
<event>
 8    1  0.1262344E-006  0.9118800E+02  0.7816164E-02  0.1184000E+00
        -11   -1    0    0    0    0  0.00000000000E+00  0.00000000000E+00  0.45593999997E+02  0.45594000000E+02  0.51100000000E-03 0.  1.
         11   -1    0    0    0    0 -0.00000000000E+00 -0.00000000000E+00 -0.45593999997E+02  0.45594000000E+02  0.51100000000E-03 0. -1.
         23    2    1    2    0    0  0.00000000000E+00  0.00000000000E+00  0.00000000000E+00  0.91188000000E+02  0.91188000000E+02 0.  0.
    9900012    2    3    3    0    0  0.12077061823E+02  0.30840614085E+02 -0.16086657279E+02  0.54367089612E+02  0.40000012388E+02 0.  0.
        -12    1    3    3    0    0 -0.12077061823E+02 -0.30840614085E+02  0.16086657279E+02  0.36820910388E+02  0.00000000000E+00 0.  1.
         11    1    4    4    0    0  0.47765426624E+01  0.35586173514E+01  0.42329726712E+01  0.73073370769E+01  0.51100000000E-03 0. -1.
        -11    1    4    4    0    0  0.16278407982E+02  0.42605439953E+01 -0.13075088122E+02  0.21309545542E+02  0.51100000000E-03 0.  1.
         12    1    4    4    0    0 -0.89778888215E+01  0.23021452738E+02 -0.72445418277E+01  0.25750206993E+02  0.00000000000E+00 0. -1.
</event>
<event>
 8    1  0.1262344E-006  0.9118800E+02  0.7816164E-02  0.1184000E+00
        -11   -1    0    0    0    0  0.00000000000E+00  0.00000000000E+00  0.45593999997E+02  0.45594000000E+02  0.51100000000E-03 0. -1.
         11   -1    0    0    0    0 -0.00000000000E+00 -0.00000000000E+00 -0.45593999997E+02  0.45594000000E+02  0.51100000000E-03 0.  1.
         23    2    1    2    0    0  0.00000000000E+00 -0.88817841970E-15  0.71054273576E-14  0.91188000000E+02  0.91188000000E+02 0.  0.
    9900012    2    3    3    0    0  0.19019627097E+02  0.52617937858E+01  0.31086126854E+02  0.54367082419E+02  0.39999995990E+02 0.  0.
        -12    1    3    3    0    0 -0.19019627097E+02 -0.52617937858E+01 -0.31086126854E+02  0.36820917581E+02  0.00000000000E+00 0.  1.
         11    1    4    4    0    0  0.18555051266E+02  0.41374815691E+01  0.26915081297E+02  0.32951938983E+02  0.51100000000E-03 0. -1.
        -11    1    4    4    0    0  0.10370326040E+01  0.95186680148E+01  0.77041337069E+01  0.12289595349E+02  0.51100000000E-03 0.  1.
        -12    1    4    4    0    0 -0.57245677373E+00 -0.83943557980E+01 -0.35330881502E+01  0.91255480876E+01  0.00000000000E+00 0.  1.
</event>
<event>
 8    1  0.1262344E-006  0.9118800E+02  0.7816164E-02  0.1184000E+00
        -11   -1    0    0    0    0  0.00000000000E+00  0.00000000000E+00  0.45593999997E+02  0.45594000000E+02  0.51100000000E-03 0.  1.
         11   -1    0    0    0    0 -0.00000000000E+00 -0.00000000000E+00 -0.45593999997E+02  0.45594000000E+02  0.51100000000E-03 0. -1.
         23    2    1    2    0    0  0.00000000000E+00  0.00000000000E+00  0.35527136788E-14  0.91188000000E+02  0.91188000000E+02 0.  0.
    9900012    2    3    3    0    0  0.13751848055E+02  0.28841686895E+02 -0.18298177826E+02  0.54367088284E+02  0.40000009361E+02 0.  0.
        -12    1    3    3    0    0 -0.13751848055E+02 -0.28841686895E+02  0.18298177826E+02  0.36820911716E+02  0.00000000000E+00 0.  1.
         11    1    4    4    0    0  0.79988553918E+01  0.23492794613E+02 -0.11384189756E+02  0.27303715186E+02  0.51100000000E-03 0. -1.
        -11    1    4    4    0    0 -0.70023401935E+01  0.10072330936E+02 -0.53105655320E+01  0.13367375404E+02  0.51100000000E-03 0.  1.
        -12    1    4    4    0    0  0.12755332856E+02 -0.47234386538E+01 -0.16034225384E+01  0.13695997694E+02  0.00000000000E+00 0.  1.
</event>
<event>
 8    1  0.1262344E-006  0.9118800E+02  0.7816164E-02  0.1184000E+00
        -11   -1    0    0    0    0  0.00000000000E+00  0.00000000000E+00  0.45593999997E+02  0.45594000000E+02  0.51100000000E-03 0.  1.
         11   -1    0    0    0    0 -0.00000000000E+00 -0.00000000000E+00 -0.45593999997E+02  0.45594000000E+02  0.51100000000E-03 0. -1.
         23    2    1    2    0    0  0.00000000000E+00  0.00000000000E+00  0.00000000000E+00  0.91188000000E+02  0.91188000000E+02 0.  0.
    9900012    2    3    3    0    0 -0.22924834391E+02 -0.23739326408E+02 -0.16330220670E+02  0.54367085328E+02  0.40000002623E+02 0.  0.
        -12    1    3    3    0    0  0.22924834391E+02  0.23739326408E+02  0.16330220670E+02  0.36820914672E+02  0.00000000000E+00 0.  1.
         11    1    4    4    0    0 -0.71978426301E+01 -0.28821995692E+01 -0.15758530710E+02  0.17562667886E+02  0.51100000000E-03 0. -1.
        -11    1    4    4    0    0 -0.93067822510E+01 -0.26601079798E+02 -0.64277931178E+00  0.28189480446E+02  0.51100000000E-03 0.  1.
         12    1    4    4    0    0 -0.64202095096E+01  0.57439529599E+01  0.71089351410E-01  0.86149369962E+01  0.00000000000E+00 0. -1.
</event>
<event>
 8    1  0.1262344E-006  0.9118800E+02  0.7816164E-02  0.1184000E+00
        -11   -1    0    0    0    0  0.00000000000E+00  0.00000000000E+00  0.45593999997E+02  0.45594000000E+02  0.51100000000E-03 0.  1.
         11   -1    0    0    0    0 -0.00000000000E+00 -0.00000000000E+00 -0.45593999997E+02  0.45594000000E+02  0.51100000000E-03 0. -1.
         23    2    1    2    0    0  0.00000000000E+00  0.00000000000E+00 -0.71054273576E-14  0.91188000000E+02  0.91188000000E+02 0.  0.
    9900012    2    3    3    0    0  0.24312634275E+02 -0.15344679926E+01 -0.27610142917E+02  0.54367098744E+02  0.40000033207E+02 0.  0.
         12    1    3    3    0    0 -0.24312634275E+02  0.15344679926E+01  0.27610142917E+02  0.36820901256E+02  0.00000000000E+00 0. -1.
         11    1    4    4    0    0  0.27238926000E+02  0.10225029452E+01 -0.62586758594E+01  0.27967402913E+02  0.51100000000E-03 0.  1.
        -11    1    4    4    0    0 -0.77631630460E+01  0.21080498034E+01 -0.15610803678E+02  0.17561542250E+02  0.51100000000E-03 0. -1.
         12    1    4    4    0    0  0.48368713208E+01 -0.46650207413E+01 -0.57406633788E+01  0.88381535809E+01  0.00000000000E+00 0. -1.
</event>
<event>
 8    1  0.1262344E-006  0.9118800E+02  0.7816164E-02  0.1184000E+00
        -11   -1    0    0    0    0  0.00000000000E+00  0.00000000000E+00  0.45593999997E+02  0.45594000000E+02  0.51100000000E-03 0.  1.
         11   -1    0    0    0    0 -0.00000000000E+00 -0.00000000000E+00 -0.45593999997E+02  0.45594000000E+02  0.51100000000E-03 0. -1.
         23    2    1    2    0    0  0.35527136788E-14 -0.14432899320E-14  0.00000000000E+00  0.91188000000E+02  0.91188000000E+02 0.  0.
    9900012    2    3    3    0    0  0.22481461938E+02  0.42042229271E+00 -0.29158001131E+02  0.54367056018E+02  0.39999935804E+02 0.  0.
        -12    1    3    3    0    0 -0.22481461938E+02 -0.42042229271E+00  0.29158001131E+02  0.36820943982E+02  0.00000000000E+00 0.  1.
         11    1    4    4    0    0  0.59428570221E+01  0.59647698230E+01 -0.31720688647E+01  0.89976691299E+01  0.51100000000E-03 0. -1.
        -11    1    4    4    0    0  0.24762181231E+01  0.87949040370E+01  0.34229093948E+01  0.97569617299E+01  0.51100000000E-03 0.  1.
         12    1    4    4    0    0  0.14062386793E+02 -0.14339251567E+02 -0.29408841661E+02  0.35612425158E+02  0.00000000000E+00 0. -1.
</event>
<event>
 8    1  0.1262344E-006  0.9118800E+02  0.7816164E-02  0.1184000E+00
        -11   -1    0    0    0    0  0.00000000000E+00  0.00000000000E+00  0.45593999997E+02  0.45594000000E+02  0.51100000000E-03 0.  1.
         11   -1    0    0    0    0 -0.00000000000E+00 -0.00000000000E+00 -0.45593999997E+02  0.45594000000E+02  0.51100000000E-03 0. -1.
         23    2    1    2    0    0  0.00000000000E+00  0.00000000000E+00 -0.35527136788E-14  0.91188000000E+02  0.91188000000E+02 0.  0.
    9900012    2    3    3    0    0  0.20594163120E+02  0.23040978724E+02  0.20019394595E+02  0.54367049237E+02  0.39999920344E+02 0.  0.
         12    1    3    3    0    0 -0.20594163120E+02 -0.23040978724E+02 -0.20019394595E+02  0.36820950763E+02  0.00000000000E+00 0. -1.
         11    1    4    4    0    0  0.35442542313E+01  0.15985929410E+02 -0.64175094134E+01  0.17586816212E+02  0.51100000000E-03 0. -1.
        -11    1    4    4    0    0  0.35015450255E+01  0.89315845288E+01  0.18821468920E+02  0.21125380761E+02  0.51100000000E-03 0.  1.
        -12    1    4    4    0    0  0.13548363864E+02 -0.18765352144E+01  0.76154350884E+01  0.15654852263E+02  0.00000000000E+00 0.  1.
</event>
<event>
 8    1  0.1262344E-006  0.9118800E+02  0.7816164E-02  0.1184000E+00
        -11   -1    0    0    0    0  0.00000000000E+00  0.00000000000E+00  0.45593999997E+02  0.45594000000E+02  0.51100000000E-03 0.  1.
         11   -1    0    0    0    0 -0.00000000000E+00 -0.00000000000E+00 -0.45593999997E+02  0.45594000000E+02  0.51100000000E-03 0. -1.
         23    2    1    2    0    0 -0.13322676296E-14  0.00000000000E+00  0.00000000000E+00  0.91188000000E+02  0.91188000000E+02 0.  0.
    9900012    2    3    3    0    0  0.27696010962E+01  0.13772964271E+02  0.34035489246E+02  0.54367085246E+02  0.40000002436E+02 0.  0.
         12    1    3    3    0    0 -0.27696010962E+01 -0.13772964271E+02 -0.34035489246E+02  0.36820914754E+02  0.00000000000E+00 0. -1.
         11    1    4    4    0    0  0.17435544024E+02 -0.13645397012E+01  0.65451174630E+01  0.18673476561E+02  0.51100000000E-03 0. -1.
        -11    1    4    4    0    0 -0.98565679493E+01  0.67646144176E+01  0.94764543967E+01  0.15255003381E+02  0.51100000000E-03 0.  1.
        -12    1    4    4    0    0 -0.48093749783E+01  0.83728895551E+01  0.18013917387E+02  0.20438605305E+02  0.00000000000E+00 0.  1.
</event>
<event>
 8    1  0.1262344E-006  0.9118800E+02  0.7816164E-02  0.1184000E+00
        -11   -1    0    0    0    0  0.00000000000E+00  0.00000000000E+00  0.45593999997E+02  0.45594000000E+02  0.51100000000E-03 0.  1.
         11   -1    0    0    0    0 -0.00000000000E+00 -0.00000000000E+00 -0.45593999997E+02  0.45594000000E+02  0.51100000000E-03 0. -1.
         23    2    1    2    0    0  0.00000000000E+00  0.00000000000E+00  0.00000000000E+00  0.91188000000E+02  0.91188000000E+02 0.  0.
    9900012    2    3    3    0    0  0.21845163587E+02  0.23417960934E+02  0.18170514685E+02  0.54367086508E+02  0.40000005312E+02 0.  0.
        -12    1    3    3    0    0 -0.21845163587E+02 -0.23417960934E+02 -0.18170514685E+02  0.36820913492E+02  0.00000000000E+00 0.  1.
         11    1    4    4    0    0  0.17618228009E+02 -0.52282737189E+01 -0.12147653739E+01  0.18417721342E+02  0.51100000000E-03 0. -1.
        -11    1    4    4    0    0 -0.23064388138E+01  0.99226897759E+01  0.44162240037E+01  0.11103263804E+02  0.51100000000E-03 0.  1.
         12    1    4    4    0    0  0.65333743923E+01  0.18723544877E+02  0.14969056055E+02  0.24846101362E+02  0.00000000000E+00 0. -1.
</event>
<event>
 8    1  0.1262344E-006  0.9118800E+02  0.7816164E-02  0.1184000E+00
        -11   -1    0    0    0    0  0.00000000000E+00  0.00000000000E+00  0.45593999997E+02  0.45594000000E+02  0.51100000000E-03 0.  1.
         11   -1    0    0    0    0 -0.00000000000E+00 -0.00000000000E+00 -0.45593999997E+02  0.45594000000E+02  0.51100000000E-03 0. -1.
         23    2    1    2    0    0  0.62172489379E-14  0.00000000000E+00  0.00000000000E+00  0.91188000000E+02  0.91188000000E+02 0.  0.
    9900012    2    3    3    0    0  0.70751041424E+01  0.27600620309E+02 -0.23322287887E+02  0.54367075889E+02  0.39999981105E+02 0.  0.
        -12    1    3    3    0    0 -0.70751041424E+01 -0.27600620309E+02  0.23322287887E+02  0.36820924111E+02  0.00000000000E+00 0.  1.
         11    1    4    4    0    0 -0.14272457609E+02  0.12261736387E+02 -0.16474941873E+02  0.25009536889E+02  0.51100000000E-03 0. -1.
        -11    1    4    4    0    0  0.20873564408E+02  0.16600760661E+02 -0.77039354229E+01  0.27760431677E+02  0.51100000000E-03 0.  1.
         12    1    4    4    0    0  0.47399734381E+00 -0.12618767393E+01  0.85658940846E+00  0.15971073232E+01  0.00000000000E+00 0. -1.
</event>
<event>
 8    1  0.1262344E-006  0.9118800E+02  0.7816164E-02  0.1184000E+00
        -11   -1    0    0    0    0  0.00000000000E+00  0.00000000000E+00  0.45593999997E+02  0.45594000000E+02  0.51100000000E-03 0.  1.
         11   -1    0    0    0    0 -0.00000000000E+00 -0.00000000000E+00 -0.45593999997E+02  0.45594000000E+02  0.51100000000E-03 0. -1.
         23    2    1    2    0    0  0.00000000000E+00  0.88817841970E-15  0.00000000000E+00  0.91188000000E+02  0.91188000000E+02 0.  0.
    9900012    2    3    3    0    0 -0.92954443560E+01  0.44331900829E+01 -0.35351373666E+02  0.54367108102E+02  0.40000054540E+02 0.  0.
        -12    1    3    3    0    0  0.92954443560E+01 -0.44331900829E+01  0.35351373666E+02  0.36820891898E+02  0.00000000000E+00 0.  1.
         11    1    4    4    0    0 -0.44865636542E+01  0.29101945897E+01 -0.10767711999E+02  0.12022566611E+02  0.51100000000E-03 0. -1.
        -11    1    4    4    0    0 -0.14906594462E+02  0.10973016904E+02 -0.21128342026E+02  0.28089508637E+02  0.51100000000E-03 0.  1.
        -12    1    4    4    0    0  0.10097713760E+02 -0.94500214106E+01 -0.34553196413E+01  0.14255032854E+02  0.00000000000E+00 0.  1.
</event>
<event>
 8    1  0.1262344E-006  0.9118800E+02  0.7816164E-02  0.1184000E+00
        -11   -1    0    0    0    0  0.00000000000E+00  0.00000000000E+00  0.45593999997E+02  0.45594000000E+02  0.51100000000E-03 0.  1.
         11   -1    0    0    0    0 -0.00000000000E+00 -0.00000000000E+00 -0.45593999997E+02  0.45594000000E+02  0.51100000000E-03 0. -1.
         23    2    1    2    0    0  0.00000000000E+00  0.00000000000E+00 -0.44408920985E-15  0.91188000000E+02  0.91188000000E+02 0.  0.
    9900012    2    3    3    0    0 -0.36376981877E+02  0.51777544209E+01  0.23843095127E+01  0.54367097197E+02  0.40000029681E+02 0.  0.
        -12    1    3    3    0    0  0.36376981877E+02 -0.51777544209E+01 -0.23843095127E+01  0.36820902803E+02  0.00000000000E+00 0.  1.
         11    1    4    4    0    0 -0.81792963905E+01  0.35547771770E+01 -0.16792122897E+02  0.19013487893E+02  0.51100000000E-03 0. -1.
        -11    1    4    4    0    0 -0.77837700399E+01  0.39350408979E+01  0.85911777530E+01  0.12242547053E+02  0.51100000000E-03 0.  1.
         12    1    4    4    0    0 -0.20413915447E+02 -0.23120636540E+01  0.10585254657E+02  0.23111062251E+02  0.00000000000E+00 0. -1.
</event>
<event>
 8    1  0.1262344E-006  0.9118800E+02  0.7816164E-02  0.1184000E+00
        -11   -1    0    0    0    0  0.00000000000E+00  0.00000000000E+00  0.45593999997E+02  0.45594000000E+02  0.51100000000E-03 0.  1.
         11   -1    0    0    0    0 -0.00000000000E+00 -0.00000000000E+00 -0.45593999997E+02  0.45594000000E+02  0.51100000000E-03 0. -1.
         23    2    1    2    0    0  0.00000000000E+00  0.17763568394E-14 -0.88817841970E-15  0.91188000000E+02  0.91188000000E+02 0.  0.
    9900012    2    3    3    0    0 -0.36497521615E+02 -0.21717671074E+01  0.43582284988E+01  0.54367084585E+02  0.40000000927E+02 0.  0.
         12    1    3    3    0    0  0.36497521615E+02  0.21717671074E+01 -0.43582284988E+01  0.36820915415E+02  0.00000000000E+00 0. -1.
         11    1    4    4    0    0  0.76658120384E+00  0.68013605260E+01 -0.83183311994E+00  0.68947877667E+01  0.51100000000E-03 0. -1.
        -11    1    4    4    0    0 -0.31640619003E+02 -0.17536800170E+02  0.43635843025E+00  0.36178150036E+02  0.51100000000E-03 0.  1.
        -12    1    4    4    0    0 -0.56234838160E+01  0.85636725362E+01  0.47537031885E+01  0.11294146782E+02  0.00000000000E+00 0.  1.
</event>
<event>
 8    1  0.1262344E-006  0.9118800E+02  0.7816164E-02  0.1184000E+00
        -11   -1    0    0    0    0  0.00000000000E+00  0.00000000000E+00  0.45593999997E+02  0.45594000000E+02  0.51100000000E-03 0.  1.
         11   -1    0    0    0    0 -0.00000000000E+00 -0.00000000000E+00 -0.45593999997E+02  0.45594000000E+02  0.51100000000E-03 0. -1.
         23    2    1    2    0    0 -0.71054273576E-14  0.17763568394E-14  0.22204460493E-15  0.91188000000E+02  0.91188000000E+02 0.  0.
    9900012    2    3    3    0    0  0.34065566250E+02  0.13879742057E+02  0.16337467212E+01  0.54367093278E+02  0.40000020745E+02 0.  0.
         12    1    3    3    0    0 -0.34065566250E+02 -0.13879742057E+02 -0.16337467212E+01  0.36820906722E+02  0.00000000000E+00 0. -1.
         11    1    4    4    0    0 -0.12467830284E+01 -0.80755219070E+01  0.26754304909E+01  0.85980492301E+01  0.51100000000E-03 0. -1.
        -11    1    4    4    0    0  0.22513422154E+02  0.35793836751E+01 -0.41170749666E+01  0.23164983728E+02  0.51100000000E-03 0.  1.
         12    1    4    4    0    0  0.12798927124E+02  0.18375880289E+02  0.30753911969E+01  0.22604060319E+02  0.00000000000E+00 0. -1.
</event>
<event>
 8    1  0.1262344E-006  0.9118800E+02  0.7816164E-02  0.1184000E+00
        -11   -1    0    0    0    0  0.00000000000E+00  0.00000000000E+00  0.45593999997E+02  0.45594000000E+02  0.51100000000E-03 0.  1.
         11   -1    0    0    0    0 -0.00000000000E+00 -0.00000000000E+00 -0.45593999997E+02  0.45594000000E+02  0.51100000000E-03 0. -1.
         23    2    1    2    0    0  0.35527136788E-14  0.17763568394E-14  0.00000000000E+00  0.91188000000E+02  0.91188000000E+02 0.  0.
    9900012    2    3    3    0    0  0.27557501366E+02 -0.13860566029E+02 -0.20105993040E+02  0.54367053131E+02  0.39999929223E+02 0.  0.
        -12    1    3    3    0    0 -0.27557501366E+02  0.13860566029E+02  0.20105993040E+02  0.36820946869E+02  0.00000000000E+00 0.  1.
         11    1    4    4    0    0  0.20409354625E+02 -0.15693598251E+02 -0.18416946322E+02  0.31654615689E+02  0.51100000000E-03 0. -1.
        -11    1    4    4    0    0  0.14097929655E+02  0.50430928251E+01 -0.64966206730E+00  0.14986876488E+02  0.51100000000E-03 0.  1.
        -12    1    4    4    0    0 -0.69497829134E+01 -0.32100606027E+01 -0.10393846504E+01  0.77255609549E+01  0.00000000000E+00 0.  1.
</event>
<event>
 8    1  0.1262344E-006  0.9118800E+02  0.7816164E-02  0.1184000E+00
        -11   -1    0    0    0    0  0.00000000000E+00  0.00000000000E+00  0.45593999997E+02  0.45594000000E+02  0.51100000000E-03 0.  1.
         11   -1    0    0    0    0 -0.00000000000E+00 -0.00000000000E+00 -0.45593999997E+02  0.45594000000E+02  0.51100000000E-03 0. -1.
         23    2    1    2    0    0  0.17763568394E-14  0.00000000000E+00  0.22204460493E-14  0.91188000000E+02  0.91188000000E+02 0.  0.
    9900012    2    3    3    0    0 -0.10189322840E+02 -0.35226719898E+02 -0.33220118330E+01  0.54367083969E+02  0.39999999525E+02 0.  0.
        -12    1    3    3    0    0  0.10189322840E+02  0.35226719898E+02  0.33220118330E+01  0.36820916031E+02  0.00000000000E+00 0.  1.
         11    1    4    4    0    0  0.74169948551E+01 -0.12230905255E+02 -0.77449290313E+00  0.14325037366E+02  0.51100000000E-03 0. -1.
        -11    1    4    4    0    0 -0.87529256576E+01 -0.27416199626E+01 -0.12741912706E+02  0.15699889402E+02  0.51100000000E-03 0.  1.
        -12    1    4    4    0    0 -0.88533920369E+01 -0.20254194681E+02  0.10194393776E+02  0.24342157201E+02  0.00000000000E+00 0.  1.
</event>
<event>
 8    1  0.1262344E-006  0.9118800E+02  0.7816164E-02  0.1184000E+00
        -11   -1    0    0    0    0  0.00000000000E+00  0.00000000000E+00  0.45593999997E+02  0.45594000000E+02  0.51100000000E-03 0.  1.
         11   -1    0    0    0    0 -0.00000000000E+00 -0.00000000000E+00 -0.45593999997E+02  0.45594000000E+02  0.51100000000E-03 0. -1.
         23    2    1    2    0    0  0.00000000000E+00  0.00000000000E+00 -0.88817841970E-15  0.91188000000E+02  0.91188000000E+02 0.  0.
    9900012    2    3    3    0    0 -0.12333138666E+02  0.34272945554E+02  0.53887751883E+01  0.54367081973E+02  0.39999994974E+02 0.  0.
         12    1    3    3    0    0  0.12333138666E+02 -0.34272945554E+02 -0.53887751883E+01  0.36820918027E+02  0.00000000000E+00 0. -1.
         11    1    4    4    0    0 -0.51422714950E+00 -0.78554945250E+00 -0.85192138351E+01  0.85707947200E+01  0.51100000000E-03 0. -1.
        -11    1    4    4    0    0 -0.67657123007E+01  0.11273315807E+02  0.16773193231E+02  0.21312027676E+02  0.51100000000E-03 0.  1.
        -12    1    4    4    0    0 -0.50531992157E+01  0.23785179200E+02 -0.28652042079E+01  0.24484259577E+02  0.00000000000E+00 0.  1.
</event>
<event>
 8    1  0.1262344E-006  0.9118800E+02  0.7816164E-02  0.1184000E+00
        -11   -1    0    0    0    0  0.00000000000E+00  0.00000000000E+00  0.45593999997E+02  0.45594000000E+02  0.51100000000E-03 0. -1.
         11   -1    0    0    0    0 -0.00000000000E+00 -0.00000000000E+00 -0.45593999997E+02  0.45594000000E+02  0.51100000000E-03 0.  1.
         23    2    1    2    0    0  0.00000000000E+00 -0.35527136788E-14 -0.35527136788E-14  0.91188000000E+02  0.91188000000E+02 0.  0.
    9900012    2    3    3    0    0 -0.13074955873E+02  0.24522782649E+02  0.24154909029E+02  0.54367068858E+02  0.39999965077E+02 0.  0.
        -12    1    3    3    0    0  0.13074955873E+02 -0.24522782649E+02 -0.24154909029E+02  0.36820931142E+02  0.00000000000E+00 0.  1.
         11    1    4    4    0    0  0.78267039196E+01  0.67778565925E+01  0.15796623667E+02  0.18887296095E+02  0.51100000000E-03 0. -1.
        -11    1    4    4    0    0 -0.23542708796E+02  0.93470082791E+01  0.83667200010E+01  0.26676351044E+02  0.51100000000E-03 0.  1.
        -12    1    4    4    0    0  0.26410490026E+01  0.83979177773E+01 -0.84346388725E-02  0.88034217195E+01  0.00000000000E+00 0.  1.
</event>
<event>
 8    1  0.1262344E-006  0.9118800E+02  0.7816164E-02  0.1184000E+00
        -11   -1    0    0    0    0  0.00000000000E+00  0.00000000000E+00  0.45593999997E+02  0.45594000000E+02  0.51100000000E-03 0. -1.
         11   -1    0    0    0    0 -0.00000000000E+00 -0.00000000000E+00 -0.45593999997E+02  0.45594000000E+02  0.51100000000E-03 0.  1.
         23    2    1    2    0    0  0.88817841970E-15  0.00000000000E+00 -0.35527136788E-14  0.91188000000E+02  0.91188000000E+02 0.  0.
    9900012    2    3    3    0    0 -0.38876613159E+01 -0.21105446973E+02  0.29920332026E+02  0.54367081068E+02  0.39999992911E+02 0.  0.
        -12    1    3    3    0    0  0.38876613159E+01  0.21105446973E+02 -0.29920332026E+02  0.36820918932E+02  0.00000000000E+00 0.  1.
         11    1    4    4    0    0  0.12115340340E+00 -0.15937465680E+01 -0.62189127940E+01  0.64210266212E+01  0.51100000000E-03 0. -1.
        -11    1    4    4    0    0 -0.12738156743E+02 -0.61026969730E+01  0.10027376199E+02  0.17322003962E+02  0.51100000000E-03 0.  1.
         12    1    4    4    0    0  0.87293420241E+01 -0.13409003432E+02  0.26111868621E+02  0.30624050485E+02  0.00000000000E+00 0. -1.
</event>
<event>
 8    1  0.1262344E-006  0.9118800E+02  0.7816164E-02  0.1184000E+00
        -11   -1    0    0    0    0  0.00000000000E+00  0.00000000000E+00  0.45593999997E+02  0.45594000000E+02  0.51100000000E-03 0.  1.
         11   -1    0    0    0    0 -0.00000000000E+00 -0.00000000000E+00 -0.45593999997E+02  0.45594000000E+02  0.51100000000E-03 0. -1.
         23    2    1    2    0    0  0.00000000000E+00  0.71054273576E-14 -0.35527136788E-14  0.91188000000E+02  0.91188000000E+02 0.  0.
    9900012    2    3    3    0    0 -0.14863186788E+02 -0.31392417666E+02  0.12222037439E+02  0.54367130815E+02  0.40000106318E+02 0.  0.
        -12    1    3    3    0    0  0.14863186788E+02  0.31392417666E+02 -0.12222037439E+02  0.36820869185E+02  0.00000000000E+00 0.  1.
         11    1    4    4    0    0  0.53058197835E+01  0.30408052868E+01  0.12239331632E+00  0.61166331223E+01  0.51100000000E-03 0.  1.
        -11    1    4    4    0    0 -0.10990389008E+02 -0.66195821751E+01 -0.56326409040E+01  0.14011929294E+02  0.51100000000E-03 0. -1.
         12    1    4    4    0    0 -0.91786175626E+01 -0.27813640778E+02  0.17732285026E+02  0.34238568398E+02  0.00000000000E+00 0. -1.
</event>
<event>
 8    1  0.1262344E-006  0.9118800E+02  0.7816164E-02  0.1184000E+00
        -11   -1    0    0    0    0  0.00000000000E+00  0.00000000000E+00  0.45593999997E+02  0.45594000000E+02  0.51100000000E-03 0.  1.
         11   -1    0    0    0    0 -0.00000000000E+00 -0.00000000000E+00 -0.45593999997E+02  0.45594000000E+02  0.51100000000E-03 0. -1.
         23    2    1    2    0    0  0.00000000000E+00  0.00000000000E+00  0.88817841970E-15  0.91188000000E+02  0.91188000000E+02 0.  0.
    9900012    2    3    3    0    0 -0.34233334066E+02  0.13018377354E+02  0.37922252825E+01  0.54367078192E+02  0.39999986353E+02 0.  0.
        -12    1    3    3    0    0  0.34233334066E+02 -0.13018377354E+02 -0.37922252825E+01  0.36820921808E+02  0.00000000000E+00 0.  1.
         11    1    4    4    0    0 -0.46910644480E+01 -0.30686173275E+01 -0.79440901627E+01  0.97227088166E+01  0.51100000000E-03 0. -1.
        -11    1    4    4    0    0  0.39326310351E+01  0.70521028018E+01  0.44310090594E+01  0.92104061980E+01  0.51100000000E-03 0.  1.
         12    1    4    4    0    0 -0.33474900654E+02  0.90348918796E+01  0.73053063858E+01  0.35433963177E+02  0.00000000000E+00 0. -1.
</event>
<event>
 8    1  0.1262344E-006  0.9118800E+02  0.7816164E-02  0.1184000E+00
        -11   -1    0    0    0    0  0.00000000000E+00  0.00000000000E+00  0.45593999997E+02  0.45594000000E+02  0.51100000000E-03 0.  1.
         11   -1    0    0    0    0 -0.00000000000E+00 -0.00000000000E+00 -0.45593999997E+02  0.45594000000E+02  0.51100000000E-03 0. -1.
         23    2    1    2    0    0  0.00000000000E+00 -0.35527136788E-14 -0.22204460493E-15  0.91188000000E+02  0.91188000000E+02 0.  0.
    9900012    2    3    3    0    0 -0.18717587812E+02 -0.31652258703E+02 -0.18894621396E+01  0.54367032581E+02  0.39999882375E+02 0.  0.
        -12    1    3    3    0    0  0.18717587812E+02  0.31652258703E+02  0.18894621396E+01  0.36820967419E+02  0.00000000000E+00 0.  1.
         11    1    4    4    0    0 -0.23072165033E+02 -0.17280096587E+02 -0.41899348502E+01  0.29128715929E+02  0.51100000000E-03 0. -1.
        -11    1    4    4    0    0 -0.32413884556E+01  0.40548458612E+01  0.17554629289E+00  0.51941496745E+01  0.51100000000E-03 0.  1.
         12    1    4    4    0    0  0.75959656764E+01 -0.18427007977E+02  0.21249264176E+01  0.20044166978E+02  0.00000000000E+00 0. -1.
</event>
<event>
 8    1  0.1262344E-006  0.9118800E+02  0.7816164E-02  0.1184000E+00
        -11   -1    0    0    0    0  0.00000000000E+00  0.00000000000E+00  0.45593999997E+02  0.45594000000E+02  0.51100000000E-03 0. -1.
         11   -1    0    0    0    0 -0.00000000000E+00 -0.00000000000E+00 -0.45593999997E+02  0.45594000000E+02  0.51100000000E-03 0.  1.
         23    2    1    2    0    0  0.00000000000E+00 -0.35527136788E-14  0.26645352591E-14  0.91188000000E+02  0.91188000000E+02 0.  0.
    9900012    2    3    3    0    0 -0.18875967585E+02 -0.31170811744E+02 -0.52780827943E+01  0.54367084544E+02  0.40000000835E+02 0.  0.
        -12    1    3    3    0    0  0.18875967585E+02  0.31170811744E+02  0.52780827943E+01  0.36820915456E+02  0.00000000000E+00 0.  1.
         11    1    4    4    0    0 -0.14417872134E+02 -0.20231378818E+02  0.12965506304E+02  0.28022991984E+02  0.51100000000E-03 0. -1.
        -11    1    4    4    0    0 -0.85610549582E+01 -0.77446125811E+01 -0.17677664030E+02  0.21113277620E+02  0.51100000000E-03 0.  1.
         12    1    4    4    0    0  0.41029595076E+01 -0.31948203442E+01 -0.56592506836E+00  0.52308149399E+01  0.00000000000E+00 0. -1.
</event>
<event>
 8    1  0.1262344E-006  0.9118800E+02  0.7816164E-02  0.1184000E+00
        -11   -1    0    0    0    0  0.00000000000E+00  0.00000000000E+00  0.45593999997E+02  0.45594000000E+02  0.51100000000E-03 0.  1.
         11   -1    0    0    0    0 -0.00000000000E+00 -0.00000000000E+00 -0.45593999997E+02  0.45594000000E+02  0.51100000000E-03 0. -1.
         23    2    1    2    0    0  0.71054273576E-14 -0.88817841970E-15  0.00000000000E+00  0.91188000000E+02  0.91188000000E+02 0.  0.
    9900012    2    3    3    0    0  0.36138456037E+02 -0.52340307845E+01 -0.47325690632E+01  0.54367078055E+02  0.39999986041E+02 0.  0.
         12    1    3    3    0    0 -0.36138456037E+02  0.52340307845E+01  0.47325690632E+01  0.36820921945E+02  0.00000000000E+00 0. -1.
         11    1    4    4    0    0  0.67954078076E+01  0.51032412921E+01 -0.99787853558E+01  0.13107127694E+02  0.51100000000E-03 0. -1.
        -11    1    4    4    0    0  0.29183802988E+02 -0.14033368805E+02 -0.26998225535E+01  0.32494904815E+02  0.51100000000E-03 0.  1.
        -12    1    4    4    0    0  0.15924524121E+00  0.36960967282E+01  0.79460388462E+01  0.87650455456E+01  0.00000000000E+00 0.  1.
</event>
<event>
 8    1  0.1262344E-006  0.9118800E+02  0.7816164E-02  0.1184000E+00
        -11   -1    0    0    0    0  0.00000000000E+00  0.00000000000E+00  0.45593999997E+02  0.45594000000E+02  0.51100000000E-03 0.  1.
         11   -1    0    0    0    0 -0.00000000000E+00 -0.00000000000E+00 -0.45593999997E+02  0.45594000000E+02  0.51100000000E-03 0. -1.
         23    2    1    2    0    0 -0.35527136788E-14  0.17763568394E-14  0.00000000000E+00  0.91188000000E+02  0.91188000000E+02 0.  0.
    9900012    2    3    3    0    0  0.28656747744E+02 -0.82171060041E+01  0.21611347144E+02  0.54367077311E+02  0.39999984345E+02 0.  0.
         12    1    3    3    0    0 -0.28656747744E+02  0.82171060041E+01 -0.21611347144E+02  0.36820922689E+02  0.00000000000E+00 0. -1.
         11    1    4    4    0    0  0.23617319764E+02 -0.59858324173E+01  0.97684188989E+01  0.26249380766E+02  0.51100000000E-03 0. -1.
        -11    1    4    4    0    0  0.12679510878E+02  0.56609767497E+01  0.34890180956E+01  0.14317468400E+02  0.51100000000E-03 0.  1.
        -12    1    4    4    0    0 -0.76400828979E+01 -0.78922503365E+01  0.83539101490E+01  0.13800228144E+02  0.00000000000E+00 0.  1.
</event>
<event>
 8    1  0.1262344E-006  0.9118800E+02  0.7816164E-02  0.1184000E+00
        -11   -1    0    0    0    0  0.00000000000E+00  0.00000000000E+00  0.45593999997E+02  0.45594000000E+02  0.51100000000E-03 0. -1.
         11   -1    0    0    0    0 -0.00000000000E+00 -0.00000000000E+00 -0.45593999997E+02  0.45594000000E+02  0.51100000000E-03 0.  1.
         23    2    1    2    0    0 -0.22204460493E-15  0.00000000000E+00  0.71054273576E-14  0.91188000000E+02  0.91188000000E+02 0.  0.
    9900012    2    3    3    0    0 -0.14613310609E+01 -0.21630578968E+02  0.29761762470E+02  0.54367082843E+02  0.39999996958E+02 0.  0.
        -12    1    3    3    0    0  0.14613310609E+01  0.21630578968E+02 -0.29761762470E+02  0.36820917157E+02  0.00000000000E+00 0.  1.
         11    1    4    4    0    0 -0.47189413332E+01 -0.97554311485E+01  0.26708398865E+02  0.28823174954E+02  0.51100000000E-03 0. -1.
        -11    1    4    4    0    0  0.21618288817E+01  0.74992045455E+00 -0.82508103697E+01  0.85622284961E+01  0.51100000000E-03 0.  1.
        -12    1    4    4    0    0  0.10957813906E+01 -0.12625068274E+02  0.11304173974E+02  0.16981679393E+02  0.00000000000E+00 0.  1.
</event>
<event>
 8    1  0.1262344E-006  0.9118800E+02  0.7816164E-02  0.1184000E+00
        -11   -1    0    0    0    0  0.00000000000E+00  0.00000000000E+00  0.45593999997E+02  0.45594000000E+02  0.51100000000E-03 0. -1.
         11   -1    0    0    0    0 -0.00000000000E+00 -0.00000000000E+00 -0.45593999997E+02  0.45594000000E+02  0.51100000000E-03 0.  1.
         23    2    1    2    0    0  0.00000000000E+00  0.17763568394E-14 -0.71054273576E-14  0.91188000000E+02  0.91188000000E+02 0.  0.
    9900012    2    3    3    0    0  0.18511961048E+02 -0.73657044036E+01  0.30965065829E+02  0.54367060237E+02  0.39999945423E+02 0.  0.
        -12    1    3    3    0    0 -0.18511961048E+02  0.73657044036E+01 -0.30965065829E+02  0.36820939763E+02  0.00000000000E+00 0.  1.
         11    1    4    4    0    0  0.55053743222E+01  0.42933757942E+01 -0.47320683097E+01  0.84341385385E+01  0.51100000000E-03 0. -1.
        -11    1    4    4    0    0 -0.34220150455E+01 -0.10802148813E+02  0.85691565048E+01  0.14206584721E+02  0.51100000000E-03 0.  1.
        -12    1    4    4    0    0  0.16428601772E+02 -0.85693138447E+00  0.27127977634E+02  0.31726336978E+02  0.00000000000E+00 0.  1.
</event>
<event>
 8    1  0.1262344E-006  0.9118800E+02  0.7816164E-02  0.1184000E+00
        -11   -1    0    0    0    0  0.00000000000E+00  0.00000000000E+00  0.45593999997E+02  0.45594000000E+02  0.51100000000E-03 0.  1.
         11   -1    0    0    0    0 -0.00000000000E+00 -0.00000000000E+00 -0.45593999997E+02  0.45594000000E+02  0.51100000000E-03 0. -1.
         23    2    1    2    0    0  0.00000000000E+00  0.00000000000E+00  0.00000000000E+00  0.91188000000E+02  0.91188000000E+02 0.  0.
    9900012    2    3    3    0    0 -0.69770163287E+01  0.15106252849E+02 -0.32846642827E+02  0.54367087776E+02  0.40000008203E+02 0.  0.
        -12    1    3    3    0    0  0.69770163287E+01 -0.15106252849E+02  0.32846642827E+02  0.36820912224E+02  0.00000000000E+00 0.  1.
         11    1    4    4    0    0 -0.69441218503E+01 -0.18426709131E+01 -0.28975051430E+00  0.71902865025E+01  0.51100000000E-03 0. -1.
        -11    1    4    4    0    0  0.33109487222E+01 -0.64307844748E+01 -0.35414187846E+00  0.72417392340E+01  0.51100000000E-03 0.  1.
         12    1    4    4    0    0 -0.33438432005E+01  0.23379708237E+02 -0.32202750434E+02  0.39935062040E+02  0.00000000000E+00 0. -1.
</event>
<event>
 8    1  0.1262344E-006  0.9118800E+02  0.7816164E-02  0.1184000E+00
        -11   -1    0    0    0    0  0.00000000000E+00  0.00000000000E+00  0.45593999997E+02  0.45594000000E+02  0.51100000000E-03 0.  1.
         11   -1    0    0    0    0 -0.00000000000E+00 -0.00000000000E+00 -0.45593999997E+02  0.45594000000E+02  0.51100000000E-03 0. -1.
         23    2    1    2    0    0  0.00000000000E+00 -0.35527136788E-14  0.00000000000E+00  0.91188000000E+02  0.91188000000E+02 0.  0.
    9900012    2    3    3    0    0 -0.18387126907E+02 -0.25844216841E+02 -0.18702208400E+02  0.54367047011E+02  0.39999915270E+02 0.  0.
        -12    1    3    3    0    0  0.18387126907E+02  0.25844216841E+02  0.18702208400E+02  0.36820952989E+02  0.00000000000E+00 0.  1.
         11    1    4    4    0    0  0.14053215920E+01  0.10587184326E+01 -0.18940394675E+01  0.25851884384E+01  0.51100000000E-03 0. -1.
        -11    1    4    4    0    0  0.59820942053E+01  0.45155037396E+01 -0.63409864138E+01  0.98175014165E+01  0.51100000000E-03 0.  1.
         12    1    4    4    0    0 -0.25774542705E+02 -0.31418439013E+02 -0.10467182518E+02  0.41964357156E+02  0.00000000000E+00 0. -1.
</event>
<event>
 8    1  0.1262344E-006  0.9118800E+02  0.7816164E-02  0.1184000E+00
        -11   -1    0    0    0    0  0.00000000000E+00  0.00000000000E+00  0.45593999997E+02  0.45594000000E+02  0.51100000000E-03 0. -1.
         11   -1    0    0    0    0 -0.00000000000E+00 -0.00000000000E+00 -0.45593999997E+02  0.45594000000E+02  0.51100000000E-03 0.  1.
         23    2    1    2    0    0  0.00000000000E+00 -0.44408920985E-15  0.00000000000E+00  0.91188000000E+02  0.91188000000E+02 0.  0.
    9900012    2    3    3    0    0  0.32884383538E+02  0.23741123998E+01 -0.16393940266E+02  0.54367077038E+02  0.39999983723E+02 0.  0.
         12    1    3    3    0    0 -0.32884383538E+02 -0.23741123998E+01  0.16393940266E+02  0.36820922962E+02  0.00000000000E+00 0. -1.
         11    1    4    4    0    0  0.60408357278E+01  0.93588273368E+01  0.42178146788E+00  0.11147073395E+02  0.51100000000E-03 0. -1.
        -11    1    4    4    0    0 -0.21185965785E+01  0.46610000271E+01 -0.10050556530E+02  0.11279497309E+02  0.51100000000E-03 0.  1.
         12    1    4    4    0    0  0.28962144389E+02 -0.11645714964E+02 -0.67651652037E+01  0.31940506334E+02  0.00000000000E+00 0. -1.
</event>
<event>
 8    1  0.1262344E-006  0.9118800E+02  0.7816164E-02  0.1184000E+00
        -11   -1    0    0    0    0  0.00000000000E+00  0.00000000000E+00  0.45593999997E+02  0.45594000000E+02  0.51100000000E-03 0.  1.
         11   -1    0    0    0    0 -0.00000000000E+00 -0.00000000000E+00 -0.45593999997E+02  0.45594000000E+02  0.51100000000E-03 0. -1.
         23    2    1    2    0    0  0.35527136788E-14  0.35527136788E-14 -0.88817841970E-15  0.91188000000E+02  0.91188000000E+02 0.  0.
    9900012    2    3    3    0    0  0.23330074593E+02  0.28203569901E+02  0.40046054457E+01  0.54367209671E+02  0.40000286086E+02 0.  0.
        -12    1    3    3    0    0 -0.23330074593E+02 -0.28203569901E+02 -0.40046054457E+01  0.36820790329E+02  0.00000000000E+00 0.  1.
         11    1    4    4    0    0 -0.21253105944E+01  0.21203165581E+02  0.14101973111E+02  0.25553019815E+02  0.51100000000E-03 0. -1.
        -11    1    4    4    0    0 -0.98453042318E-01  0.37721245086E+00 -0.68499877694E+00  0.78816611203E+00  0.51100000000E-03 0.  1.
         12    1    4    4    0    0  0.25553838230E+02  0.66231918691E+01 -0.94123688887E+01  0.28026023744E+02  0.00000000000E+00 0. -1.
</event>
<event>
 8    1  0.1262344E-006  0.9118800E+02  0.7816164E-02  0.1184000E+00
        -11   -1    0    0    0    0  0.00000000000E+00  0.00000000000E+00  0.45593999997E+02  0.45594000000E+02  0.51100000000E-03 0. -1.
         11   -1    0    0    0    0 -0.00000000000E+00 -0.00000000000E+00 -0.45593999997E+02  0.45594000000E+02  0.51100000000E-03 0.  1.
         23    2    1    2    0    0 -0.88817841970E-15  0.00000000000E+00  0.35527136788E-14  0.91188000000E+02  0.91188000000E+02 0.  0.
    9900012    2    3    3    0    0 -0.65915217627E+01  0.21481980007E+02 -0.29169438861E+02  0.54367084916E+02  0.40000001684E+02 0.  0.
         12    1    3    3    0    0  0.65915217627E+01 -0.21481980007E+02  0.29169438861E+02  0.36820915084E+02  0.00000000000E+00 0. -1.
         11    1    4    4    0    0  0.67292096808E+01  0.26916863662E+02 -0.21520043516E+02  0.35112847869E+02  0.51100000000E-03 0. -1.
        -11    1    4    4    0    0 -0.10124690234E+02 -0.11547376412E+01 -0.91609224213E+01  0.13702746849E+02  0.51100000000E-03 0.  1.
         12    1    4    4    0    0 -0.31960412098E+01 -0.42801460139E+01  0.15115270761E+01  0.55514901978E+01  0.00000000000E+00 0. -1.
</event>
<event>
 8    1  0.1262344E-006  0.9118800E+02  0.7816164E-02  0.1184000E+00
        -11   -1    0    0    0    0  0.00000000000E+00  0.00000000000E+00  0.45593999997E+02  0.45594000000E+02  0.51100000000E-03 0.  1.
         11   -1    0    0    0    0 -0.00000000000E+00 -0.00000000000E+00 -0.45593999997E+02  0.45594000000E+02  0.51100000000E-03 0. -1.
         23    2    1    2    0    0  0.00000000000E+00  0.00000000000E+00  0.00000000000E+00  0.91188000000E+02  0.91188000000E+02 0.  0.
    9900012    2    3    3    0    0  0.34188285643E+02 -0.80372044607E+01 -0.11060914158E+02  0.54367090821E+02  0.40000015144E+02 0.  0.
        -12    1    3    3    0    0 -0.34188285643E+02  0.80372044607E+01  0.11060914158E+02  0.36820909179E+02  0.00000000000E+00 0.  1.
         11    1    4    4    0    0  0.38480067862E+02 -0.46746575724E+01 -0.80257583215E+01  0.39585108854E+02  0.51100000000E-03 0. -1.
        -11    1    4    4    0    0 -0.52709169146E+01 -0.56911117069E+01 -0.67546921955E+01  0.10285775834E+02  0.51100000000E-03 0.  1.
         12    1    4    4    0    0  0.97913469613E+00  0.23285648186E+01  0.37195363592E+01  0.44962061335E+01  0.00000000000E+00 0. -1.
</event>
<event>
 8    1  0.1262344E-006  0.9118800E+02  0.7816164E-02  0.1184000E+00
        -11   -1    0    0    0    0  0.00000000000E+00  0.00000000000E+00  0.45593999997E+02  0.45594000000E+02  0.51100000000E-03 0.  1.
         11   -1    0    0    0    0 -0.00000000000E+00 -0.00000000000E+00 -0.45593999997E+02  0.45594000000E+02  0.51100000000E-03 0. -1.
         23    2    1    2    0    0  0.00000000000E+00  0.00000000000E+00 -0.38857805862E-15  0.91188000000E+02  0.91188000000E+02 0.  0.
    9900012    2    3    3    0    0  0.36759950422E+02  0.20721521872E+01  0.43808841445E+00  0.54367086226E+02  0.40000004670E+02 0.  0.
        -12    1    3    3    0    0 -0.36759950422E+02 -0.20721521872E+01 -0.43808841445E+00  0.36820913774E+02  0.00000000000E+00 0.  1.
         11    1    4    4    0    0 -0.43190433143E+01  0.13802359314E+01  0.46874676122E+01  0.65216209069E+01  0.51100000000E-03 0. -1.
        -11    1    4    4    0    0  0.20278275795E+02  0.11625087016E+02  0.22000636862E+01  0.23477465746E+02  0.51100000000E-03 0.  1.
         12    1    4    4    0    0  0.20800717941E+02 -0.10933170760E+02 -0.64494428839E+01  0.24367999574E+02  0.00000000000E+00 0. -1.
</event>
<event>
 8    1  0.1262344E-006  0.9118800E+02  0.7816164E-02  0.1184000E+00
        -11   -1    0    0    0    0  0.00000000000E+00  0.00000000000E+00  0.45593999997E+02  0.45594000000E+02  0.51100000000E-03 0.  1.
         11   -1    0    0    0    0 -0.00000000000E+00 -0.00000000000E+00 -0.45593999997E+02  0.45594000000E+02  0.51100000000E-03 0. -1.
         23    2    1    2    0    0 -0.22204460493E-15  0.00000000000E+00 -0.35527136788E-14  0.91188000000E+02  0.91188000000E+02 0.  0.
    9900012    2    3    3    0    0  0.11307698355E+01  0.25249675464E+02 -0.26775941916E+02  0.54367138835E+02  0.40000124602E+02 0.  0.
        -12    1    3    3    0    0 -0.11307698355E+01 -0.25249675464E+02  0.26775941916E+02  0.36820861165E+02  0.00000000000E+00 0.  1.
         11    1    4    4    0    0 -0.28680088898E+01  0.73619729744E+01 -0.25186711255E+02  0.26396866200E+02  0.51100000000E-03 0. -1.
        -11    1    4    4    0    0 -0.83269522750E+01  0.99504183324E+01 -0.27532753130E+01  0.13263841238E+02  0.51100000000E-03 0.  1.
         12    1    4    4    0    0  0.12325731000E+02  0.79372841569E+01  0.11640446521E+01  0.14706431397E+02  0.00000000000E+00 0. -1.
</event>
<event>
 8    1  0.1262344E-006  0.9118800E+02  0.7816164E-02  0.1184000E+00
        -11   -1    0    0    0    0  0.00000000000E+00  0.00000000000E+00  0.45593999997E+02  0.45594000000E+02  0.51100000000E-03 0. -1.
         11   -1    0    0    0    0 -0.00000000000E+00 -0.00000000000E+00 -0.45593999997E+02  0.45594000000E+02  0.51100000000E-03 0.  1.
         23    2    1    2    0    0  0.00000000000E+00 -0.35527136788E-14  0.00000000000E+00  0.91188000000E+02  0.91188000000E+02 0.  0.
    9900012    2    3    3    0    0 -0.16769080270E+02 -0.23245995913E+02 -0.23112785994E+02  0.54367092142E+02  0.40000018157E+02 0.  0.
         12    1    3    3    0    0  0.16769080270E+02  0.23245995913E+02  0.23112785994E+02  0.36820907858E+02  0.00000000000E+00 0. -1.
         11    1    4    4    0    0  0.28474009672E+01 -0.62277192428E+01  0.68489737385E+01  0.96850720579E+01  0.51100000000E-03 0. -1.
        -11    1    4    4    0    0 -0.49814556512E+01 -0.15050616549E+02 -0.68827396190E+01  0.17283172852E+02  0.51100000000E-03 0.  1.
         12    1    4    4    0    0 -0.14635025586E+02 -0.19676601207E+01 -0.23079020114E+02  0.27398847232E+02  0.00000000000E+00 0. -1.
</event>
<event>
 8    1  0.1262344E-006  0.9118800E+02  0.7816164E-02  0.1184000E+00
        -11   -1    0    0    0    0  0.00000000000E+00  0.00000000000E+00  0.45593999997E+02  0.45594000000E+02  0.51100000000E-03 0.  1.
         11   -1    0    0    0    0 -0.00000000000E+00 -0.00000000000E+00 -0.45593999997E+02  0.45594000000E+02  0.51100000000E-03 0. -1.
         23    2    1    2    0    0  0.00000000000E+00  0.00000000000E+00 -0.35527136788E-14  0.91188000000E+02  0.91188000000E+02 0.  0.
    9900012    2    3    3    0    0 -0.34454656283E+01  0.23033505912E+02  0.28519577432E+02  0.54367083052E+02  0.39999997433E+02 0.  0.
         12    1    3    3    0    0  0.34454656283E+01 -0.23033505912E+02 -0.28519577432E+02  0.36820916948E+02  0.00000000000E+00 0. -1.
         11    1    4    4    0    0  0.20336963356E+01  0.24188972377E+02  0.13189060100E+02  0.27625959025E+02  0.51100000000E-03 0. -1.
        -11    1    4    4    0    0  0.15489410696E+01  0.76674103687E+01  0.13077418172E+02  0.15238348549E+02  0.51100000000E-03 0.  1.
         12    1    4    4    0    0 -0.70281030336E+01 -0.88228768341E+01  0.22530991605E+01  0.11502775478E+02  0.00000000000E+00 0. -1.
</event>
<event>
 8    1  0.1262344E-006  0.9118800E+02  0.7816164E-02  0.1184000E+00
        -11   -1    0    0    0    0  0.00000000000E+00  0.00000000000E+00  0.45593999997E+02  0.45594000000E+02  0.51100000000E-03 0. -1.
         11   -1    0    0    0    0 -0.00000000000E+00 -0.00000000000E+00 -0.45593999997E+02  0.45594000000E+02  0.51100000000E-03 0.  1.
         23    2    1    2    0    0  0.00000000000E+00  0.17763568394E-14  0.71054273576E-14  0.91188000000E+02  0.91188000000E+02 0.  0.
    9900012    2    3    3    0    0 -0.19344624513E+02  0.67035536757E+01  0.30604553162E+02  0.54366935327E+02  0.39999660663E+02 0.  0.
        -12    1    3    3    0    0  0.19344624513E+02 -0.67035536757E+01 -0.30604553162E+02  0.36821064673E+02  0.00000000000E+00 0.  1.
         11    1    4    4    0    0 -0.16879300818E+01 -0.64304865849E+01  0.12615169573E+02  0.14259830619E+02  0.51100000000E-03 0. -1.
        -11    1    4    4    0    0 -0.18773761522E+01 -0.58347979598E+01 -0.37811062405E+01  0.72018173478E+01  0.51100000000E-03 0.  1.
        -12    1    4    4    0    0 -0.15779318279E+02  0.18968838220E+02  0.21770489830E+02  0.32905287359E+02  0.00000000000E+00 0.  1.
</event>
<event>
 8    1  0.1262344E-006  0.9118800E+02  0.7816164E-02  0.1184000E+00
        -11   -1    0    0    0    0  0.00000000000E+00  0.00000000000E+00  0.45593999997E+02  0.45594000000E+02  0.51100000000E-03 0.  1.
         11   -1    0    0    0    0 -0.00000000000E+00 -0.00000000000E+00 -0.45593999997E+02  0.45594000000E+02  0.51100000000E-03 0. -1.
         23    2    1    2    0    0  0.88817841970E-15  0.00000000000E+00  0.00000000000E+00  0.91188000000E+02  0.91188000000E+02 0.  0.
    9900012    2    3    3    0    0 -0.75500571611E+01  0.35839445146E+02  0.37829668162E+01  0.54367081632E+02  0.39999994197E+02 0.  0.
         12    1    3    3    0    0  0.75500571611E+01 -0.35839445146E+02 -0.37829668162E+01  0.36820918368E+02  0.00000000000E+00 0. -1.
         11    1    4    4    0    0 -0.17939364414E+01  0.18993402474E+02  0.44149535919E+01  0.19582118399E+02  0.51100000000E-03 0. -1.
        -11    1    4    4    0    0  0.90716103005E+01  0.92516189033E+01  0.87790146161E+01  0.15651123400E+02  0.51100000000E-03 0.  1.
         12    1    4    4    0    0 -0.14827731020E+02  0.75944237686E+01 -0.94110013918E+01  0.19133839834E+02  0.00000000000E+00 0. -1.
</event>
<event>
 8    1  0.1262344E-006  0.9118800E+02  0.7816164E-02  0.1184000E+00
        -11   -1    0    0    0    0  0.00000000000E+00  0.00000000000E+00  0.45593999997E+02  0.45594000000E+02  0.51100000000E-03 0.  1.
         11   -1    0    0    0    0 -0.00000000000E+00 -0.00000000000E+00 -0.45593999997E+02  0.45594000000E+02  0.51100000000E-03 0. -1.
         23    2    1    2    0    0  0.00000000000E+00  0.88817841970E-15 -0.17763568394E-14  0.91188000000E+02  0.91188000000E+02 0.  0.
    9900012    2    3    3    0    0  0.35645346745E+02  0.36630215106E+01 -0.84717974685E+01  0.54367084429E+02  0.40000000572E+02 0.  0.
         12    1    3    3    0    0 -0.35645346745E+02 -0.36630215106E+01  0.84717974685E+01  0.36820915571E+02  0.00000000000E+00 0. -1.
         11    1    4    4    0    0  0.27768426915E+01 -0.25769424593E+01  0.34499255460E+01  0.51238144293E+01  0.51100000000E-03 0.  1.
        -11    1    4    4    0    0  0.32411921071E+01 -0.11858726557E+02  0.67110138230E+00  0.12311990056E+02  0.51100000000E-03 0. -1.
        -12    1    4    4    0    0  0.29627311947E+02  0.18098690526E+02 -0.12592824397E+02  0.36931279943E+02  0.00000000000E+00 0.  1.
</event>
<event>
 8    1  0.1262344E-006  0.9118800E+02  0.7816164E-02  0.1184000E+00
        -11   -1    0    0    0    0  0.00000000000E+00  0.00000000000E+00  0.45593999997E+02  0.45594000000E+02  0.51100000000E-03 0. -1.
         11   -1    0    0    0    0 -0.00000000000E+00 -0.00000000000E+00 -0.45593999997E+02  0.45594000000E+02  0.51100000000E-03 0.  1.
         23    2    1    2    0    0 -0.88817841970E-15  0.00000000000E+00 -0.35527136788E-14  0.91188000000E+02  0.91188000000E+02 0.  0.
    9900012    2    3    3    0    0  0.31800760372E+01  0.30689242163E+02  0.20095696226E+02  0.54367089162E+02  0.40000011362E+02 0.  0.
        -12    1    3    3    0    0 -0.31800760372E+01 -0.30689242163E+02 -0.20095696226E+02  0.36820910838E+02  0.00000000000E+00 0.  1.
         11    1    4    4    0    0 -0.20459747709E+01  0.76379300018E+01 -0.81691933049E+01  0.11369243906E+02  0.51100000000E-03 0. -1.
        -11    1    4    4    0    0  0.10794914877E+02  0.47957064061E+01  0.47984965564E+01  0.12749688490E+02  0.51100000000E-03 0.  1.
         12    1    4    4    0    0 -0.55688640688E+01  0.18255605755E+02  0.23466392974E+02  0.30248156766E+02  0.00000000000E+00 0. -1.
</event>
<event>
 8    1  0.1262344E-006  0.9118800E+02  0.7816164E-02  0.1184000E+00
        -11   -1    0    0    0    0  0.00000000000E+00  0.00000000000E+00  0.45593999997E+02  0.45594000000E+02  0.51100000000E-03 0. -1.
         11   -1    0    0    0    0 -0.00000000000E+00 -0.00000000000E+00 -0.45593999997E+02  0.45594000000E+02  0.51100000000E-03 0.  1.
         23    2    1    2    0    0  0.00000000000E+00 -0.88817841970E-15  0.71054273576E-14  0.91188000000E+02  0.91188000000E+02 0.  0.
    9900012    2    3    3    0    0  0.13409922968E+02  0.56545960574E+01  0.33822796464E+02  0.54367054178E+02  0.39999931609E+02 0.  0.
        -12    1    3    3    0    0 -0.13409922968E+02 -0.56545960574E+01 -0.33822796464E+02  0.36820945822E+02  0.00000000000E+00 0.  1.
         11    1    4    4    0    0  0.12025973413E+02 -0.43174254807E+01  0.38610346210E+02  0.40669682000E+02  0.51100000000E-03 0. -1.
        -11    1    4    4    0    0 -0.30040778959E+01  0.65240273467E+01 -0.19802544781E+01  0.74504244768E+01  0.51100000000E-03 0.  1.
         12    1    4    4    0    0  0.43880274510E+01  0.34479941914E+01 -0.28072952678E+01  0.62469477007E+01  0.00000000000E+00 0. -1.
</event>
<event>
 8    1  0.1262344E-006  0.9118800E+02  0.7816164E-02  0.1184000E+00
        -11   -1    0    0    0    0  0.00000000000E+00  0.00000000000E+00  0.45593999997E+02  0.45594000000E+02  0.51100000000E-03 0. -1.
         11   -1    0    0    0    0 -0.00000000000E+00 -0.00000000000E+00 -0.45593999997E+02  0.45594000000E+02  0.51100000000E-03 0.  1.
         23    2    1    2    0    0  0.71054273576E-14 -0.35527136788E-14 -0.44408920985E-15  0.91188000000E+02  0.91188000000E+02 0.  0.
    9900012    2    3    3    0    0 -0.32728751261E+02  0.16457371216E+02 -0.37098778817E+01  0.54367089903E+02  0.40000013052E+02 0.  0.
        -12    1    3    3    0    0  0.32728751261E+02 -0.16457371216E+02  0.37098778817E+01  0.36820910097E+02  0.00000000000E+00 0.  1.
         11    1    4    4    0    0  0.43615127456E+01  0.58627148459E+00 -0.22246486333E+01  0.49310819793E+01  0.51100000000E-03 0. -1.
        -11    1    4    4    0    0  0.29052617968E+01  0.51262520200E+00  0.52934531959E+01  0.60600311636E+01  0.51100000000E-03 0.  1.
         12    1    4    4    0    0 -0.39995525804E+02  0.15358474530E+02 -0.67786824442E+01  0.43375976760E+02  0.00000000000E+00 0. -1.
</event>
<event>
 8    1  0.1262344E-006  0.9118800E+02  0.7816164E-02  0.1184000E+00
        -11   -1    0    0    0    0  0.00000000000E+00  0.00000000000E+00  0.45593999997E+02  0.45594000000E+02  0.51100000000E-03 0.  1.
         11   -1    0    0    0    0 -0.00000000000E+00 -0.00000000000E+00 -0.45593999997E+02  0.45594000000E+02  0.51100000000E-03 0. -1.
         23    2    1    2    0    0 -0.88817841970E-15  0.00000000000E+00 -0.35527136788E-14  0.91188000000E+02  0.91188000000E+02 0.  0.
    9900012    2    3    3    0    0  0.61271052070E+01 -0.28309635745E+02  0.22733292637E+02  0.54367088979E+02  0.40000010946E+02 0.  0.
         12    1    3    3    0    0 -0.61271052070E+01  0.28309635745E+02 -0.22733292637E+02  0.36820911021E+02  0.00000000000E+00 0. -1.
         11    1    4    4    0    0 -0.14438196058E+02 -0.13146809897E+02  0.88224226549E+01  0.21427441696E+02  0.51100000000E-03 0. -1.
        -11    1    4    4    0    0  0.13209623211E+02 -0.14012076701E+02  0.26476756925E+01  0.19438174444E+02  0.51100000000E-03 0.  1.
         12    1    4    4    0    0  0.73556780533E+01 -0.11507491470E+01  0.11263194290E+02  0.13501472840E+02  0.00000000000E+00 0. -1.
</event>
<event>
 8    1  0.1262344E-006  0.9118800E+02  0.7816164E-02  0.1184000E+00
        -11   -1    0    0    0    0  0.00000000000E+00  0.00000000000E+00  0.45593999997E+02  0.45594000000E+02  0.51100000000E-03 0.  1.
         11   -1    0    0    0    0 -0.00000000000E+00 -0.00000000000E+00 -0.45593999997E+02  0.45594000000E+02  0.51100000000E-03 0. -1.
         23    2    1    2    0    0 -0.35527136788E-14  0.17763568394E-14 -0.35527136788E-14  0.91188000000E+02  0.91188000000E+02 0.  0.
    9900012    2    3    3    0    0  0.21977809449E+02 -0.13431602200E+02 -0.26312540946E+02  0.54367056817E+02  0.39999937626E+02 0.  0.
        -12    1    3    3    0    0 -0.21977809449E+02  0.13431602200E+02  0.26312540946E+02  0.36820943183E+02  0.00000000000E+00 0.  1.
         11    1    4    4    0    0  0.17099951093E+02 -0.16093542261E+02 -0.48012034657E+01  0.23967936600E+02  0.51100000000E-03 0. -1.
        -11    1    4    4    0    0  0.11408102432E+02  0.25556086360E+00 -0.49565627751E+01  0.12440965689E+02  0.51100000000E-03 0.  1.
        -12    1    4    4    0    0 -0.65302440757E+01  0.24063791974E+01 -0.16554774705E+02  0.17958154529E+02  0.00000000000E+00 0.  1.
</event>
<event>
 8    1  0.1262344E-006  0.9118800E+02  0.7816164E-02  0.1184000E+00
        -11   -1    0    0    0    0  0.00000000000E+00  0.00000000000E+00  0.45593999997E+02  0.45594000000E+02  0.51100000000E-03 0.  1.
         11   -1    0    0    0    0 -0.00000000000E+00 -0.00000000000E+00 -0.45593999997E+02  0.45594000000E+02  0.51100000000E-03 0. -1.
         23    2    1    2    0    0  0.35527136788E-14 -0.17763568394E-14  0.00000000000E+00  0.91188000000E+02  0.91188000000E+02 0.  0.
    9900012    2    3    3    0    0  0.20390236838E+02 -0.14627760006E+02 -0.26945242683E+02  0.54367092565E+02  0.40000019120E+02 0.  0.
        -12    1    3    3    0    0 -0.20390236838E+02  0.14627760006E+02  0.26945242683E+02  0.36820907435E+02  0.00000000000E+00 0.  1.
         11    1    4    4    0    0  0.75055396927E+01  0.41939070208E+00 -0.48783813652E+01  0.89614518715E+01  0.51100000000E-03 0. -1.
        -11    1    4    4    0    0  0.13412223385E+02  0.10945613934E+01 -0.25556252621E+02  0.28882656544E+02  0.51100000000E-03 0.  1.
        -12    1    4    4    0    0 -0.52752623952E+00 -0.16141712102E+02  0.34893913033E+01  0.16522984149E+02  0.00000000000E+00 0.  1.
</event>
<event>
 8    1  0.1262344E-006  0.9118800E+02  0.7816164E-02  0.1184000E+00
        -11   -1    0    0    0    0  0.00000000000E+00  0.00000000000E+00  0.45593999997E+02  0.45594000000E+02  0.51100000000E-03 0.  1.
         11   -1    0    0    0    0 -0.00000000000E+00 -0.00000000000E+00 -0.45593999997E+02  0.45594000000E+02  0.51100000000E-03 0. -1.
         23    2    1    2    0    0 -0.19428902931E-15 -0.71054273576E-14  0.00000000000E+00  0.91188000000E+02  0.91188000000E+02 0.  0.
    9900012    2    3    3    0    0 -0.17889427714E+00 -0.36536759188E+02 -0.45622451183E+01  0.54367070413E+02  0.39999968620E+02 0.  0.
        -12    1    3    3    0    0  0.17889427714E+00  0.36536759188E+02  0.45622451183E+01  0.36820929587E+02  0.00000000000E+00 0.  1.
         11    1    4    4    0    0 -0.44768231552E+01  0.37034199363E+01 -0.54458353445E+00  0.58355664913E+01  0.51100000000E-03 0. -1.
        -11    1    4    4    0    0  0.43232625614E+01 -0.14610695281E+02  0.11030804313E+02  0.18810679408E+02  0.51100000000E-03 0.  1.
         12    1    4    4    0    0 -0.25333683337E-01 -0.25629483844E+02 -0.15048465896E+02  0.29720824513E+02  0.00000000000E+00 0. -1.
</event>
<event>
 8    1  0.1262344E-006  0.9118800E+02  0.7816164E-02  0.1184000E+00
        -11   -1    0    0    0    0  0.00000000000E+00  0.00000000000E+00  0.45593999997E+02  0.45594000000E+02  0.51100000000E-03 0. -1.
         11   -1    0    0    0    0 -0.00000000000E+00 -0.00000000000E+00 -0.45593999997E+02  0.45594000000E+02  0.51100000000E-03 0.  1.
         23    2    1    2    0    0  0.88817841970E-15  0.26645352591E-14  0.00000000000E+00  0.91188000000E+02  0.91188000000E+02 0.  0.
    9900012    2    3    3    0    0  0.68434513620E+01  0.68732553700E+01  0.35520471469E+02  0.54367104311E+02  0.40000045898E+02 0.  0.
        -12    1    3    3    0    0 -0.68434513620E+01 -0.68732553700E+01 -0.35520471469E+02  0.36820895689E+02  0.00000000000E+00 0.  1.
         11    1    4    4    0    0  0.22432126427E+01 -0.15086187253E+01  0.11179006130E+02  0.11501222184E+02  0.51100000000E-03 0. -1.
        -11    1    4    4    0    0 -0.94986445136E+01  0.16472573064E+02  0.13720693409E+02  0.23448397361E+02  0.51100000000E-03 0.  1.
         12    1    4    4    0    0  0.14098883233E+02 -0.80906989685E+01  0.10620771931E+02  0.19417484766E+02  0.00000000000E+00 0. -1.
</event>
<event>
 8    1  0.1262344E-006  0.9118800E+02  0.7816164E-02  0.1184000E+00
        -11   -1    0    0    0    0  0.00000000000E+00  0.00000000000E+00  0.45593999997E+02  0.45594000000E+02  0.51100000000E-03 0. -1.
         11   -1    0    0    0    0 -0.00000000000E+00 -0.00000000000E+00 -0.45593999997E+02  0.45594000000E+02  0.51100000000E-03 0.  1.
         23    2    1    2    0    0  0.88817841970E-15 -0.88817841970E-15 -0.71054273576E-14  0.91188000000E+02  0.91188000000E+02 0.  0.
    9900012    2    3    3    0    0 -0.51821764507E+01 -0.10936332852E+01  0.36438023756E+02  0.54367074404E+02  0.39999977718E+02 0.  0.
        -12    1    3    3    0    0  0.51821764507E+01  0.10936332852E+01 -0.36438023756E+02  0.36820925596E+02  0.00000000000E+00 0.  1.
         11    1    4    4    0    0  0.60876935408E+01  0.13354506671E+02  0.12468993404E+02  0.19258210141E+02  0.51100000000E-03 0. -1.
        -11    1    4    4    0    0  0.24282408089E+01 -0.91219777233E+01  0.38527903881E+01  0.10195627742E+02  0.51100000000E-03 0.  1.
         12    1    4    4    0    0 -0.13698110800E+02 -0.53261622333E+01  0.20116239964E+02  0.24913236520E+02  0.00000000000E+00 0. -1.
</event>
<event>
 8    1  0.1262344E-006  0.9118800E+02  0.7816164E-02  0.1184000E+00
        -11   -1    0    0    0    0  0.00000000000E+00  0.00000000000E+00  0.45593999997E+02  0.45594000000E+02  0.51100000000E-03 0.  1.
         11   -1    0    0    0    0 -0.00000000000E+00 -0.00000000000E+00 -0.45593999997E+02  0.45594000000E+02  0.51100000000E-03 0. -1.
         23    2    1    2    0    0  0.00000000000E+00  0.35527136788E-14 -0.17763568394E-14  0.91188000000E+02  0.91188000000E+02 0.  0.
    9900012    2    3    3    0    0 -0.19269856465E+02 -0.27448939384E+02 -0.15198931076E+02  0.54367093610E+02  0.40000021503E+02 0.  0.
        -12    1    3    3    0    0  0.19269856465E+02  0.27448939384E+02  0.15198931076E+02  0.36820906390E+02  0.00000000000E+00 0.  1.
         11    1    4    4    0    0 -0.13920475584E+02 -0.28534307146E+02 -0.81471119423E+01  0.32777458078E+02  0.51100000000E-03 0. -1.
        -11    1    4    4    0    0 -0.10930828168E+02  0.52870978243E+01 -0.72434576236E+00  0.12163925554E+02  0.51100000000E-03 0.  1.
        -12    1    4    4    0    0  0.55814472870E+01 -0.42017300631E+01 -0.63274733711E+01  0.94257099787E+01  0.00000000000E+00 0.  1.
</event>
<event>
 8    1  0.1262344E-006  0.9118800E+02  0.7816164E-02  0.1184000E+00
        -11   -1    0    0    0    0  0.00000000000E+00  0.00000000000E+00  0.45593999997E+02  0.45594000000E+02  0.51100000000E-03 0.  1.
         11   -1    0    0    0    0 -0.00000000000E+00 -0.00000000000E+00 -0.45593999997E+02  0.45594000000E+02  0.51100000000E-03 0. -1.
         23    2    1    2    0    0 -0.71054273576E-14  0.17763568394E-14  0.00000000000E+00  0.91188000000E+02  0.91188000000E+02 0.  0.
    9900012    2    3    3    0    0  0.33593909723E+02  0.85544317822E+01  0.12411723727E+02  0.54367082583E+02  0.39999996364E+02 0.  0.
         12    1    3    3    0    0 -0.33593909723E+02 -0.85544317822E+01 -0.12411723727E+02  0.36820917417E+02  0.00000000000E+00 0. -1.
         11    1    4    4    0    0  0.16020246197E+00  0.31901461673E+00  0.68370719683E+01  0.68463850692E+01  0.51100000000E-03 0. -1.
        -11    1    4    4    0    0  0.23541512738E+02 -0.81587485568E+01  0.11550546850E+02  0.27462394885E+02  0.51100000000E-03 0.  1.
        -12    1    4    4    0    0  0.98921945225E+01  0.16394165722E+02 -0.59758950912E+01  0.20058302629E+02  0.00000000000E+00 0.  1.
</event>
<event>
 8    1  0.1262344E-006  0.9118800E+02  0.7816164E-02  0.1184000E+00
        -11   -1    0    0    0    0  0.00000000000E+00  0.00000000000E+00  0.45593999997E+02  0.45594000000E+02  0.51100000000E-03 0.  1.
         11   -1    0    0    0    0 -0.00000000000E+00 -0.00000000000E+00 -0.45593999997E+02  0.45594000000E+02  0.51100000000E-03 0. -1.
         23    2    1    2    0    0  0.00000000000E+00  0.00000000000E+00  0.17763568394E-14  0.91188000000E+02  0.91188000000E+02 0.  0.
    9900012    2    3    3    0    0  0.11226120594E+02 -0.33292551636E+02 -0.11015494447E+02  0.54367341452E+02  0.40000586503E+02 0.  0.
        -12    1    3    3    0    0 -0.11226120594E+02  0.33292551636E+02  0.11015494447E+02  0.36820658548E+02  0.00000000000E+00 0.  1.
         11    1    4    4    0    0  0.12546943881E+02 -0.17107846567E+02  0.30212988729E+01  0.21429709799E+02  0.51100000000E-03 0. -1.
        -11    1    4    4    0    0 -0.43592137693E-02  0.62687133648E+01 -0.69413092972E+01  0.93529974486E+01  0.51100000000E-03 0.  1.
         12    1    4    4    0    0 -0.13164640740E+01 -0.22453418434E+02 -0.70954840223E+01  0.23584634204E+02  0.00000000000E+00 0. -1.
</event>
<event>
 8    1  0.1262344E-006  0.9118800E+02  0.7816164E-02  0.1184000E+00
        -11   -1    0    0    0    0  0.00000000000E+00  0.00000000000E+00  0.45593999997E+02  0.45594000000E+02  0.51100000000E-03 0.  1.
         11   -1    0    0    0    0 -0.00000000000E+00 -0.00000000000E+00 -0.45593999997E+02  0.45594000000E+02  0.51100000000E-03 0. -1.
         23    2    1    2    0    0 -0.17763568394E-14  0.17763568394E-14  0.35527136788E-14  0.91188000000E+02  0.91188000000E+02 0.  0.
    9900012    2    3    3    0    0  0.14510145113E+02 -0.14060601884E+02 -0.30782061950E+02  0.54367079663E+02  0.39999989708E+02 0.  0.
        -12    1    3    3    0    0 -0.14510145113E+02  0.14060601884E+02  0.30782061950E+02  0.36820920337E+02  0.00000000000E+00 0.  1.
         11    1    4    4    0    0  0.23506889057E+02 -0.17086066865E+02 -0.33561604127E+02  0.44394693218E+02  0.51100000000E-03 0. -1.
        -11    1    4    4    0    0 -0.92493808670E+00  0.39278627722E+00  0.71903889182E+00  0.12356410129E+01  0.51100000000E-03 0.  1.
         12    1    4    4    0    0 -0.80718058580E+01  0.26326787032E+01  0.20605032851E+01  0.87367454324E+01  0.00000000000E+00 0. -1.
</event>
<event>
 8    1  0.1262344E-006  0.9118800E+02  0.7816164E-02  0.1184000E+00
        -11   -1    0    0    0    0  0.00000000000E+00  0.00000000000E+00  0.45593999997E+02  0.45594000000E+02  0.51100000000E-03 0. -1.
         11   -1    0    0    0    0 -0.00000000000E+00 -0.00000000000E+00 -0.45593999997E+02  0.45594000000E+02  0.51100000000E-03 0.  1.
         23    2    1    2    0    0  0.00000000000E+00  0.00000000000E+00  0.00000000000E+00  0.91188000000E+02  0.91188000000E+02 0.  0.
    9900012    2    3    3    0    0  0.32679246084E+02  0.41800540687E+01  0.16443026380E+02  0.54367094347E+02  0.40000023182E+02 0.  0.
         12    1    3    3    0    0 -0.32679246084E+02 -0.41800540687E+01 -0.16443026380E+02  0.36820905653E+02  0.00000000000E+00 0. -1.
         11    1    4    4    0    0 -0.44795674795E+00  0.62628759219E+01  0.71847682320E+01  0.95417595269E+01  0.51100000000E-03 0. -1.
        -11    1    4    4    0    0  0.82300175668E+01 -0.89351221707E+01  0.14037383206E+02  0.18563882269E+02  0.51100000000E-03 0.  1.
        -12    1    4    4    0    0  0.24897185265E+02  0.68523003176E+01 -0.47791250587E+01  0.26261452551E+02  0.00000000000E+00 0.  1.
</event>
<event>
 8    1  0.1262344E-006  0.9118800E+02  0.7816164E-02  0.1184000E+00
        -11   -1    0    0    0    0  0.00000000000E+00  0.00000000000E+00  0.45593999997E+02  0.45594000000E+02  0.51100000000E-03 0.  1.
         11   -1    0    0    0    0 -0.00000000000E+00 -0.00000000000E+00 -0.45593999997E+02  0.45594000000E+02  0.51100000000E-03 0. -1.
         23    2    1    2    0    0  0.00000000000E+00  0.00000000000E+00  0.00000000000E+00  0.91188000000E+02  0.91188000000E+02 0.  0.
    9900012    2    3    3    0    0 -0.98609194648E+01  0.10661151575E+02 -0.33836084879E+02  0.54367102054E+02  0.40000040752E+02 0.  0.
        -12    1    3    3    0    0  0.98609194648E+01 -0.10661151575E+02  0.33836084879E+02  0.36820897946E+02  0.00000000000E+00 0.  1.
         11    1    4    4    0    0  0.13653045011E+02 -0.26023379620E+01 -0.10198781352E+02  0.17239284854E+02  0.51100000000E-03 0. -1.
        -11    1    4    4    0    0 -0.13955329172E+02  0.44740450033E+01 -0.76506047682E+01  0.16531788910E+02  0.51100000000E-03 0.  1.
         12    1    4    4    0    0 -0.95586353043E+01  0.87894445342E+01 -0.15986698759E+02  0.20596028290E+02  0.00000000000E+00 0. -1.
</event>
<event>
 8    1  0.1262344E-006  0.9118800E+02  0.7816164E-02  0.1184000E+00
        -11   -1    0    0    0    0  0.00000000000E+00  0.00000000000E+00  0.45593999997E+02  0.45594000000E+02  0.51100000000E-03 0. -1.
         11   -1    0    0    0    0 -0.00000000000E+00 -0.00000000000E+00 -0.45593999997E+02  0.45594000000E+02  0.51100000000E-03 0.  1.
         23    2    1    2    0    0  0.00000000000E+00  0.35527136788E-14 -0.35527136788E-14  0.91188000000E+02  0.91188000000E+02 0.  0.
    9900012    2    3    3    0    0  0.16851738201E+02 -0.25446147279E+02  0.20598357884E+02  0.54367084215E+02  0.40000000085E+02 0.  0.
        -12    1    3    3    0    0 -0.16851738201E+02  0.25446147279E+02 -0.20598357884E+02  0.36820915785E+02  0.00000000000E+00 0.  1.
         11    1    4    4    0    0  0.19256418839E+01 -0.39716393751E+01  0.81373948520E+01  0.92573868466E+01  0.51100000000E-03 0. -1.
        -11    1    4    4    0    0  0.20340085585E+02 -0.14166055464E+02  0.21110375371E+02  0.32558319330E+02  0.51100000000E-03 0.  1.
        -12    1    4    4    0    0 -0.54139892684E+01 -0.73084524398E+01 -0.86494123386E+01  0.12551378039E+02  0.00000000000E+00 0.  1.
</event>
<event>
 8    1  0.1262344E-006  0.9118800E+02  0.7816164E-02  0.1184000E+00
        -11   -1    0    0    0    0  0.00000000000E+00  0.00000000000E+00  0.45593999997E+02  0.45594000000E+02  0.51100000000E-03 0.  1.
         11   -1    0    0    0    0 -0.00000000000E+00 -0.00000000000E+00 -0.45593999997E+02  0.45594000000E+02  0.51100000000E-03 0. -1.
         23    2    1    2    0    0 -0.88817841970E-15  0.00000000000E+00  0.00000000000E+00  0.91188000000E+02  0.91188000000E+02 0.  0.
    9900012    2    3    3    0    0  0.70134953099E+01  0.71655142872E+01 -0.35429455706E+02  0.54367081447E+02  0.39999993775E+02 0.  0.
        -12    1    3    3    0    0 -0.70134953099E+01 -0.71655142872E+01  0.35429455706E+02  0.36820918553E+02  0.00000000000E+00 0.  1.
         11    1    4    4    0    0 -0.21468693844E+01 -0.11291376163E+02 -0.13897300063E+02  0.18034388626E+02  0.51100000000E-03 0.  1.
        -11    1    4    4    0    0 -0.54652788626E+01  0.89952619118E+01 -0.31014562859E+01  0.10972831962E+02  0.51100000000E-03 0. -1.
        -12    1    4    4    0    0  0.14625643557E+02  0.94616285380E+01 -0.18430699356E+02  0.25359860859E+02  0.00000000000E+00 0.  1.
</event>
<event>
 8    1  0.1262344E-006  0.9118800E+02  0.7816164E-02  0.1184000E+00
        -11   -1    0    0    0    0  0.00000000000E+00  0.00000000000E+00  0.45593999997E+02  0.45594000000E+02  0.51100000000E-03 0.  1.
         11   -1    0    0    0    0 -0.00000000000E+00 -0.00000000000E+00 -0.45593999997E+02  0.45594000000E+02  0.51100000000E-03 0. -1.
         23    2    1    2    0    0  0.35527136788E-14  0.00000000000E+00  0.00000000000E+00  0.91188000000E+02  0.91188000000E+02 0.  0.
    9900012    2    3    3    0    0 -0.23712699791E+02 -0.21002556762E+02  0.18771800463E+02  0.54367081835E+02  0.39999994659E+02 0.  0.
         12    1    3    3    0    0  0.23712699791E+02  0.21002556762E+02 -0.18771800463E+02  0.36820918165E+02  0.00000000000E+00 0. -1.
         11    1    4    4    0    0 -0.95949761378E+01 -0.25518386975E+02  0.57936630182E+01  0.27871458022E+02  0.51100000000E-03 0. -1.
        -11    1    4    4    0    0 -0.37299067934E+01 -0.43022253000E+01  0.11445749455E+02  0.12783838550E+02  0.51100000000E-03 0.  1.
         12    1    4    4    0    0 -0.10387816859E+02  0.88180555127E+01  0.15323879899E+01  0.13711785262E+02  0.00000000000E+00 0. -1.
</event>
<event>
 8    1  0.1262344E-006  0.9118800E+02  0.7816164E-02  0.1184000E+00
        -11   -1    0    0    0    0  0.00000000000E+00  0.00000000000E+00  0.45593999997E+02  0.45594000000E+02  0.51100000000E-03 0.  1.
         11   -1    0    0    0    0 -0.00000000000E+00 -0.00000000000E+00 -0.45593999997E+02  0.45594000000E+02  0.51100000000E-03 0. -1.
         23    2    1    2    0    0  0.44408920985E-15  0.00000000000E+00 -0.33306690739E-15  0.91188000000E+02  0.91188000000E+02 0.  0.
    9900012    2    3    3    0    0 -0.26347145065E+01 -0.36713473085E+02  0.97909283440E+00  0.54367089511E+02  0.40000012158E+02 0.  0.
        -12    1    3    3    0    0  0.26347145065E+01  0.36713473085E+02 -0.97909283440E+00  0.36820910489E+02  0.00000000000E+00 0.  1.
         11    1    4    4    0    0 -0.56275902845E+01 -0.48566913183E+01 -0.15683301753E+02  0.17355782238E+02  0.51100000000E-03 0. -1.
        -11    1    4    4    0    0  0.52677051908E+01 -0.13679265112E+02  0.62080501242E+01  0.15918884967E+02  0.51100000000E-03 0.  1.
        -12    1    4    4    0    0 -0.22748294128E+01 -0.18177516654E+02  0.10454344463E+02  0.21092422306E+02  0.00000000000E+00 0.  1.
</event>
<event>
 8    1  0.1262344E-006  0.9118800E+02  0.7816164E-02  0.1184000E+00
        -11   -1    0    0    0    0  0.00000000000E+00  0.00000000000E+00  0.45593999997E+02  0.45594000000E+02  0.51100000000E-03 0.  1.
         11   -1    0    0    0    0 -0.00000000000E+00 -0.00000000000E+00 -0.45593999997E+02  0.45594000000E+02  0.51100000000E-03 0. -1.
         23    2    1    2    0    0  0.00000000000E+00  0.17763568394E-14  0.00000000000E+00  0.91188000000E+02  0.91188000000E+02 0.  0.
    9900012    2    3    3    0    0 -0.30521655928E+02 -0.98034809664E+01  0.18113598265E+02  0.54367052677E+02  0.39999928187E+02 0.  0.
         12    1    3    3    0    0  0.30521655928E+02  0.98034809664E+01 -0.18113598265E+02  0.36820947323E+02  0.00000000000E+00 0. -1.
         11    1    4    4    0    0 -0.12006323971E+02 -0.20078795581E+02  0.19338980842E+02  0.30353023368E+02  0.51100000000E-03 0. -1.
        -11    1    4    4    0    0 -0.78464834601E+01  0.52924317998E+01  0.49897918647E+01  0.10699306527E+02  0.51100000000E-03 0.  1.
         12    1    4    4    0    0 -0.10668848498E+02  0.49828828153E+01 -0.62151744417E+01  0.13314722782E+02  0.00000000000E+00 0. -1.
</event>
<event>
 8    1  0.1262344E-006  0.9118800E+02  0.7816164E-02  0.1184000E+00
        -11   -1    0    0    0    0  0.00000000000E+00  0.00000000000E+00  0.45593999997E+02  0.45594000000E+02  0.51100000000E-03 0.  1.
         11   -1    0    0    0    0 -0.00000000000E+00 -0.00000000000E+00 -0.45593999997E+02  0.45594000000E+02  0.51100000000E-03 0. -1.
         23    2    1    2    0    0  0.00000000000E+00  0.00000000000E+00  0.00000000000E+00  0.91188000000E+02  0.91188000000E+02 0.  0.
    9900012    2    3    3    0    0  0.20705683720E+02  0.27082572374E+02  0.13913648930E+02  0.54367072646E+02  0.39999973710E+02 0.  0.
         12    1    3    3    0    0 -0.20705683720E+02 -0.27082572374E+02 -0.13913648930E+02  0.36820927354E+02  0.00000000000E+00 0. -1.
         11    1    4    4    0    0  0.39069678839E+01  0.33208097548E+01 -0.34913934097E+01  0.62033864684E+01  0.51100000000E-03 0. -1.
        -11    1    4    4    0    0  0.19179000103E+02  0.13513291962E+02  0.25675931808E+02  0.34780692619E+02  0.51100000000E-03 0.  1.
        -12    1    4    4    0    0 -0.23802842672E+01  0.10248470656E+02 -0.82708894678E+01  0.13382993558E+02  0.00000000000E+00 0.  1.
</event>
<event>
 8    1  0.1262344E-006  0.9118800E+02  0.7816164E-02  0.1184000E+00
        -11   -1    0    0    0    0  0.00000000000E+00  0.00000000000E+00  0.45593999997E+02  0.45594000000E+02  0.51100000000E-03 0.  1.
         11   -1    0    0    0    0 -0.00000000000E+00 -0.00000000000E+00 -0.45593999997E+02  0.45594000000E+02  0.51100000000E-03 0. -1.
         23    2    1    2    0    0  0.00000000000E+00  0.00000000000E+00  0.00000000000E+00  0.91188000000E+02  0.91188000000E+02 0.  0.
    9900012    2    3    3    0    0  0.25388923825E+02 -0.22058726339E+02  0.14986497658E+02  0.54367082402E+02  0.39999995952E+02 0.  0.
        -12    1    3    3    0    0 -0.25388923825E+02  0.22058726339E+02 -0.14986497658E+02  0.36820917598E+02  0.00000000000E+00 0.  1.
         11    1    4    4    0    0  0.41239642740E+01 -0.31697911401E+01 -0.91370027136E+00  0.52810515669E+01  0.51100000000E-03 0. -1.
        -11    1    4    4    0    0  0.25757865671E+02  0.10080207172E+01  0.11461227415E+02  0.28210698038E+02  0.51100000000E-03 0.  1.
        -12    1    4    4    0    0 -0.44929061201E+01 -0.19896955917E+02  0.44389705150E+01  0.20875332797E+02  0.00000000000E+00 0.  1.
</event>
<event>
 8    1  0.1262344E-006  0.9118800E+02  0.7816164E-02  0.1184000E+00
        -11   -1    0    0    0    0  0.00000000000E+00  0.00000000000E+00  0.45593999997E+02  0.45594000000E+02  0.51100000000E-03 0. -1.
         11   -1    0    0    0    0 -0.00000000000E+00 -0.00000000000E+00 -0.45593999997E+02  0.45594000000E+02  0.51100000000E-03 0.  1.
         23    2    1    2    0    0  0.35527136788E-14  0.88817841970E-15  0.71054273576E-14  0.91188000000E+02  0.91188000000E+02 0.  0.
    9900012    2    3    3    0    0  0.15321662642E+02 -0.49890256943E+01 -0.33107947668E+02  0.54367083088E+02  0.39999997515E+02 0.  0.
         12    1    3    3    0    0 -0.15321662642E+02  0.49890256943E+01  0.33107947668E+02  0.36820916912E+02  0.00000000000E+00 0. -1.
         11    1    4    4    0    0  0.65619386433E+01  0.11729862953E+02 -0.22893837910E+02  0.26547627731E+02  0.51100000000E-03 0.  1.
        -11    1    4    4    0    0  0.10407551106E+02 -0.12551341012E+02  0.38743477185E+00  0.16309610271E+02  0.51100000000E-03 0. -1.
         12    1    4    4    0    0 -0.16478271077E+01 -0.41675476359E+01 -0.10601544530E+02  0.11509845085E+02  0.00000000000E+00 0. -1.
</event>
<event>
 8    1  0.1262344E-006  0.9118800E+02  0.7816164E-02  0.1184000E+00
        -11   -1    0    0    0    0  0.00000000000E+00  0.00000000000E+00  0.45593999997E+02  0.45594000000E+02  0.51100000000E-03 0. -1.
         11   -1    0    0    0    0 -0.00000000000E+00 -0.00000000000E+00 -0.45593999997E+02  0.45594000000E+02  0.51100000000E-03 0.  1.
         23    2    1    2    0    0  0.71054273576E-14  0.00000000000E+00 -0.22204460493E-15  0.91188000000E+02  0.91188000000E+02 0.  0.
    9900012    2    3    3    0    0 -0.34696420485E+02 -0.12265353999E+02  0.12241998183E+01  0.54367093324E+02  0.40000020851E+02 0.  0.
        -12    1    3    3    0    0  0.34696420485E+02  0.12265353999E+02 -0.12241998183E+01  0.36820906676E+02  0.00000000000E+00 0.  1.
         11    1    4    4    0    0  0.16191916907E+01  0.75871100185E+01 -0.27866180663E+01  0.82432554657E+01  0.51100000000E-03 0. -1.
        -11    1    4    4    0    0 -0.33709208293E+02 -0.95098316341E+01  0.99256736334E+00  0.35039018418E+02  0.51100000000E-03 0.  1.
         12    1    4    4    0    0 -0.26064038833E+01 -0.10342632384E+02  0.30182505213E+01  0.11084819441E+02  0.00000000000E+00 0. -1.
</event>
<event>
 8    1  0.1262344E-006  0.9118800E+02  0.7816164E-02  0.1184000E+00
        -11   -1    0    0    0    0  0.00000000000E+00  0.00000000000E+00  0.45593999997E+02  0.45594000000E+02  0.51100000000E-03 0. -1.
         11   -1    0    0    0    0 -0.00000000000E+00 -0.00000000000E+00 -0.45593999997E+02  0.45594000000E+02  0.51100000000E-03 0.  1.
         23    2    1    2    0    0 -0.88817841970E-15 -0.88817841970E-15  0.00000000000E+00  0.91188000000E+02  0.91188000000E+02 0.  0.
    9900012    2    3    3    0    0  0.29369915653E+01 -0.74976038432E+01 -0.35929666436E+02  0.54367069634E+02  0.39999966844E+02 0.  0.
         12    1    3    3    0    0 -0.29369915653E+01  0.74976038432E+01  0.35929666436E+02  0.36820930366E+02  0.00000000000E+00 0. -1.
         11    1    4    4    0    0  0.43180483362E+00 -0.10863818061E+02  0.87492028867E+00  0.10907542530E+02  0.51100000000E-03 0. -1.
        -11    1    4    4    0    0  0.81433791306E+01  0.39903960039E+01 -0.35726022657E+01  0.97468646827E+01  0.51100000000E-03 0.  1.
         12    1    4    4    0    0 -0.56381923989E+01 -0.62418178615E+00 -0.33231984459E+02  0.33712662421E+02  0.00000000000E+00 0. -1.
</event>
<event>
 8    1  0.1262344E-006  0.9118800E+02  0.7816164E-02  0.1184000E+00
        -11   -1    0    0    0    0  0.00000000000E+00  0.00000000000E+00  0.45593999997E+02  0.45594000000E+02  0.51100000000E-03 0.  1.
         11   -1    0    0    0    0 -0.00000000000E+00 -0.00000000000E+00 -0.45593999997E+02  0.45594000000E+02  0.51100000000E-03 0. -1.
         23    2    1    2    0    0  0.00000000000E+00  0.00000000000E+00  0.35527136788E-14  0.91188000000E+02  0.91188000000E+02 0.  0.
    9900012    2    3    3    0    0 -0.13814411657E+02 -0.24741507328E+02 -0.23511662726E+02  0.54367103236E+02  0.40000043448E+02 0.  0.
        -12    1    3    3    0    0  0.13814411657E+02  0.24741507328E+02  0.23511662726E+02  0.36820896764E+02  0.00000000000E+00 0.  1.
         11    1    4    4    0    0  0.46111843320E+00 -0.12698262244E+01  0.32785997659E+01  0.35460267252E+01  0.51100000000E-03 0. -1.
        -11    1    4    4    0    0 -0.67202830660E+01  0.42192411244E+01  0.38645173502E+01  0.88260237233E+01  0.51100000000E-03 0.  1.
         12    1    4    4    0    0 -0.75552470245E+01 -0.27690922228E+02 -0.30654779843E+02  0.41995052788E+02  0.00000000000E+00 0. -1.
</event>
<event>
 8    1  0.1262344E-006  0.9118800E+02  0.7816164E-02  0.1184000E+00
        -11   -1    0    0    0    0  0.00000000000E+00  0.00000000000E+00  0.45593999997E+02  0.45594000000E+02  0.51100000000E-03 0.  1.
         11   -1    0    0    0    0 -0.00000000000E+00 -0.00000000000E+00 -0.45593999997E+02  0.45594000000E+02  0.51100000000E-03 0. -1.
         23    2    1    2    0    0  0.88817841970E-15  0.00000000000E+00  0.00000000000E+00  0.91188000000E+02  0.91188000000E+02 0.  0.
    9900012    2    3    3    0    0  0.48245089406E+01 -0.62988770409E+01 -0.35955920862E+02  0.54367082256E+02  0.39999995619E+02 0.  0.
        -12    1    3    3    0    0 -0.48245089406E+01  0.62988770409E+01  0.35955920862E+02  0.36820917744E+02  0.00000000000E+00 0.  1.
         11    1    4    4    0    0 -0.19305580701E+01 -0.12878072879E+02 -0.11753395770E+01  0.13074908754E+02  0.51100000000E-03 0. -1.
        -11    1    4    4    0    0 -0.65829581147E+01  0.53902351475E+01 -0.17231905457E+02  0.19217922324E+02  0.51100000000E-03 0.  1.
         12    1    4    4    0    0  0.13338025125E+02  0.11889606911E+01 -0.17548675827E+02  0.22074251178E+02  0.00000000000E+00 0. -1.
</event>
<event>
 8    1  0.1262344E-006  0.9118800E+02  0.7816164E-02  0.1184000E+00
        -11   -1    0    0    0    0  0.00000000000E+00  0.00000000000E+00  0.45593999997E+02  0.45594000000E+02  0.51100000000E-03 0. -1.
         11   -1    0    0    0    0 -0.00000000000E+00 -0.00000000000E+00 -0.45593999997E+02  0.45594000000E+02  0.51100000000E-03 0.  1.
         23    2    1    2    0    0 -0.88817841970E-15  0.17763568394E-14  0.00000000000E+00  0.91188000000E+02  0.91188000000E+02 0.  0.
    9900012    2    3    3    0    0  0.63071483901E+01 -0.10852361194E+02  0.34615423856E+02  0.54367062573E+02  0.39999950747E+02 0.  0.
        -12    1    3    3    0    0 -0.63071483901E+01  0.10852361194E+02 -0.34615423856E+02  0.36820937427E+02  0.00000000000E+00 0.  1.
         11    1    4    4    0    0  0.23087409444E+01 -0.10329363195E+02  0.58556031275E+01  0.12096037244E+02  0.51100000000E-03 0. -1.
        -11    1    4    4    0    0 -0.26193887968E+01 -0.66732857922E+01 -0.40542681450E+01  0.82359596518E+01  0.51100000000E-03 0.  1.
         12    1    4    4    0    0  0.66177962426E+01  0.61502877930E+01  0.32814088873E+02  0.34035065677E+02  0.00000000000E+00 0. -1.
</event>
<event>
 8    1  0.1262344E-006  0.9118800E+02  0.7816164E-02  0.1184000E+00
        -11   -1    0    0    0    0  0.00000000000E+00  0.00000000000E+00  0.45593999997E+02  0.45594000000E+02  0.51100000000E-03 0. -1.
         11   -1    0    0    0    0 -0.00000000000E+00 -0.00000000000E+00 -0.45593999997E+02  0.45594000000E+02  0.51100000000E-03 0.  1.
         23    2    1    2    0    0  0.00000000000E+00  0.00000000000E+00  0.17763568394E-14  0.91188000000E+02  0.91188000000E+02 0.  0.
    9900012    2    3    3    0    0 -0.21921713266E+02 -0.25820054187E+02 -0.14440983083E+02  0.54367099643E+02  0.40000035256E+02 0.  0.
         12    1    3    3    0    0  0.21921713266E+02  0.25820054187E+02  0.14440983083E+02  0.36820900357E+02  0.00000000000E+00 0. -1.
         11    1    4    4    0    0  0.94034614805E+01 -0.12612000586E+02 -0.76792097847E+01  0.17505939271E+02  0.51100000000E-03 0. -1.
        -11    1    4    4    0    0 -0.78365651593E+01 -0.58252805170E+01  0.32366371391E+01  0.10286956150E+02  0.51100000000E-03 0.  1.
        -12    1    4    4    0    0 -0.23488609587E+02 -0.73827730842E+01 -0.99984104371E+01  0.26574204222E+02  0.00000000000E+00 0.  1.
</event>
<event>
 8    1  0.1262344E-006  0.9118800E+02  0.7816164E-02  0.1184000E+00
        -11   -1    0    0    0    0  0.00000000000E+00  0.00000000000E+00  0.45593999997E+02  0.45594000000E+02  0.51100000000E-03 0.  1.
         11   -1    0    0    0    0 -0.00000000000E+00 -0.00000000000E+00 -0.45593999997E+02  0.45594000000E+02  0.51100000000E-03 0. -1.
         23    2    1    2    0    0  0.00000000000E+00  0.00000000000E+00  0.00000000000E+00  0.91188000000E+02  0.91188000000E+02 0.  0.
    9900012    2    3    3    0    0  0.34806958365E+02  0.51953025841E+01  0.10828864141E+02  0.54367084502E+02  0.40000000738E+02 0.  0.
         12    1    3    3    0    0 -0.34806958365E+02 -0.51953025841E+01 -0.10828864141E+02  0.36820915498E+02  0.00000000000E+00 0. -1.
         11    1    4    4    0    0  0.19174054860E+02  0.13471490088E+01 -0.43534844847E+01  0.19708171342E+02  0.51100000000E-03 0. -1.
        -11    1    4    4    0    0 -0.50043519145E+01  0.38756774247E+01 -0.31364072764E+01  0.70640968601E+01  0.51100000000E-03 0.  1.
        -12    1    4    4    0    0  0.20637255420E+02 -0.27523849410E-01  0.18318755902E+02  0.27594816300E+02  0.00000000000E+00 0.  1.
</event>
<event>
 8    1  0.1262344E-006  0.9118800E+02  0.7816164E-02  0.1184000E+00
        -11   -1    0    0    0    0  0.00000000000E+00  0.00000000000E+00  0.45593999997E+02  0.45594000000E+02  0.51100000000E-03 0. -1.
         11   -1    0    0    0    0 -0.00000000000E+00 -0.00000000000E+00 -0.45593999997E+02  0.45594000000E+02  0.51100000000E-03 0.  1.
         23    2    1    2    0    0  0.71054273576E-14  0.00000000000E+00  0.00000000000E+00  0.91188000000E+02  0.91188000000E+02 0.  0.
    9900012    2    3    3    0    0  0.24585823759E+02  0.27039986397E+02  0.44894701156E+01  0.54367096478E+02  0.40000028041E+02 0.  0.
         12    1    3    3    0    0 -0.24585823759E+02 -0.27039986397E+02 -0.44894701156E+01  0.36820903522E+02  0.00000000000E+00 0. -1.
         11    1    4    4    0    0  0.77839778569E+01  0.14576548949E+02  0.12004436497E+02  0.20424803216E+02  0.51100000000E-03 0.  1.
        -11    1    4    4    0    0  0.64514695257E+01  0.12382423002E+02  0.73887633768E+01  0.15796825091E+02  0.51100000000E-03 0. -1.
        -12    1    4    4    0    0  0.10350376376E+02  0.81014446424E-01 -0.14903729758E+02  0.18145468172E+02  0.00000000000E+00 0.  1.
</event>
<event>
 8    1  0.1262344E-006  0.9118800E+02  0.7816164E-02  0.1184000E+00
        -11   -1    0    0    0    0  0.00000000000E+00  0.00000000000E+00  0.45593999997E+02  0.45594000000E+02  0.51100000000E-03 0.  1.
         11   -1    0    0    0    0 -0.00000000000E+00 -0.00000000000E+00 -0.45593999997E+02  0.45594000000E+02  0.51100000000E-03 0. -1.
         23    2    1    2    0    0  0.00000000000E+00  0.00000000000E+00 -0.35527136788E-14  0.91188000000E+02  0.91188000000E+02 0.  0.
    9900012    2    3    3    0    0  0.27777747120E+02 -0.91160757276E+01 -0.22384610312E+02  0.54367124799E+02  0.40000092605E+02 0.  0.
        -12    1    3    3    0    0 -0.27777747120E+02  0.91160757276E+01  0.22384610312E+02  0.36820875201E+02  0.00000000000E+00 0.  1.
         11    1    4    4    0    0  0.17114743224E+02 -0.19744452822E+02 -0.11963325193E+02  0.28738110634E+02  0.51100000000E-03 0.  1.
        -11    1    4    4    0    0 -0.19076027342E+01 -0.33336443863E+01 -0.45314718875E+01  0.59402332289E+01  0.51100000000E-03 0. -1.
        -12    1    4    4    0    0  0.12570606630E+02  0.13962021481E+02 -0.58898132317E+01  0.19688780937E+02  0.00000000000E+00 0.  1.
</event>
<event>
 8    1  0.1262344E-006  0.9118800E+02  0.7816164E-02  0.1184000E+00
        -11   -1    0    0    0    0  0.00000000000E+00  0.00000000000E+00  0.45593999997E+02  0.45594000000E+02  0.51100000000E-03 0. -1.
         11   -1    0    0    0    0 -0.00000000000E+00 -0.00000000000E+00 -0.45593999997E+02  0.45594000000E+02  0.51100000000E-03 0.  1.
         23    2    1    2    0    0 -0.88817841970E-15 -0.71054273576E-14  0.17763568394E-14  0.91188000000E+02  0.91188000000E+02 0.  0.
    9900012    2    3    3    0    0  0.77328501017E+01  0.34771758934E+02 -0.93223726194E+01  0.54367098038E+02  0.40000031596E+02 0.  0.
         12    1    3    3    0    0 -0.77328501017E+01 -0.34771758934E+02  0.93223726194E+01  0.36820901962E+02  0.00000000000E+00 0. -1.
         11    1    4    4    0    0 -0.64013483923E+01  0.31655483584E+02 -0.21071954192E+01  0.32364906534E+02  0.51100000000E-03 0. -1.
        -11    1    4    4    0    0  0.44777484096E+01 -0.34709978119E+01  0.30597794468E+01  0.64389678641E+01  0.51100000000E-03 0.  1.
        -12    1    4    4    0    0  0.96564500844E+01  0.65872731618E+01 -0.10274956647E+02  0.15563223639E+02  0.00000000000E+00 0.  1.
</event>
<event>
 8    1  0.1262344E-006  0.9118800E+02  0.7816164E-02  0.1184000E+00
        -11   -1    0    0    0    0  0.00000000000E+00  0.00000000000E+00  0.45593999997E+02  0.45594000000E+02  0.51100000000E-03 0. -1.
         11   -1    0    0    0    0 -0.00000000000E+00 -0.00000000000E+00 -0.45593999997E+02  0.45594000000E+02  0.51100000000E-03 0.  1.
         23    2    1    2    0    0  0.00000000000E+00  0.35527136788E-14  0.00000000000E+00  0.91188000000E+02  0.91188000000E+02 0.  0.
    9900012    2    3    3    0    0  0.26683020144E+02  0.25183766126E+02  0.30942343868E+01  0.54367083027E+02  0.39999997376E+02 0.  0.
         12    1    3    3    0    0 -0.26683020144E+02 -0.25183766126E+02 -0.30942343868E+01  0.36820916973E+02  0.00000000000E+00 0. -1.
         11    1    4    4    0    0 -0.57722398510E+01  0.15879897527E+02 -0.23213136541E+01  0.17055157452E+02  0.51100000000E-03 0. -1.
        -11    1    4    4    0    0  0.19243214917E+01  0.57326815291E+01 -0.26288442920E+00  0.60527480702E+01  0.51100000000E-03 0.  1.
        -12    1    4    4    0    0  0.30530938503E+02  0.35711870706E+01  0.56784324701E+01  0.31259177505E+02  0.00000000000E+00 0.  1.
</event>
<event>
 8    1  0.1262344E-006  0.9118800E+02  0.7816164E-02  0.1184000E+00
        -11   -1    0    0    0    0  0.00000000000E+00  0.00000000000E+00  0.45593999997E+02  0.45594000000E+02  0.51100000000E-03 0.  1.
         11   -1    0    0    0    0 -0.00000000000E+00 -0.00000000000E+00 -0.45593999997E+02  0.45594000000E+02  0.51100000000E-03 0. -1.
         23    2    1    2    0    0  0.00000000000E+00  0.00000000000E+00  0.00000000000E+00  0.91188000000E+02  0.91188000000E+02 0.  0.
    9900012    2    3    3    0    0 -0.11335006778E+02 -0.16035159304E+02 -0.31147545802E+02  0.54367104818E+02  0.40000047053E+02 0.  0.
        -12    1    3    3    0    0  0.11335006778E+02  0.16035159304E+02  0.31147545802E+02  0.36820895182E+02  0.00000000000E+00 0.  1.
         11    1    4    4    0    0 -0.80621658433E+01 -0.22914760967E+02 -0.24690726358E+01  0.24416820190E+02  0.51100000000E-03 0. -1.
        -11    1    4    4    0    0 -0.31269958666E+01  0.37269080817E+01 -0.22411687950E+02  0.22933636956E+02  0.51100000000E-03 0.  1.
         12    1    4    4    0    0 -0.14584506854E+00  0.31526935817E+01 -0.62667852154E+01  0.70166476711E+01  0.00000000000E+00 0. -1.
</event>
<event>
 8    1  0.1262344E-006  0.9118800E+02  0.7816164E-02  0.1184000E+00
        -11   -1    0    0    0    0  0.00000000000E+00  0.00000000000E+00  0.45593999997E+02  0.45594000000E+02  0.51100000000E-03 0.  1.
         11   -1    0    0    0    0 -0.00000000000E+00 -0.00000000000E+00 -0.45593999997E+02  0.45594000000E+02  0.51100000000E-03 0. -1.
         23    2    1    2    0    0  0.00000000000E+00  0.17763568394E-14 -0.35527136788E-14  0.91188000000E+02  0.91188000000E+02 0.  0.
    9900012    2    3    3    0    0  0.16309419920E+02 -0.15255999567E+02  0.29275071725E+02  0.54367183532E+02  0.40000226496E+02 0.  0.
         12    1    3    3    0    0 -0.16309419920E+02  0.15255999567E+02 -0.29275071725E+02  0.36820816468E+02  0.00000000000E+00 0. -1.
         11    1    4    4    0    0 -0.40769289616E+01 -0.47330289421E+01 -0.38691304415E+01  0.73479985954E+01  0.51100000000E-03 0. -1.
        -11    1    4    4    0    0 -0.33937889954E+01  0.29176401488E+01  0.10930657203E+02  0.11811422223E+02  0.51100000000E-03 0.  1.
         12    1    4    4    0    0  0.23780137877E+02 -0.13440610774E+02  0.22213544963E+02  0.35207762713E+02  0.00000000000E+00 0. -1.
</event>
<event>
 8    1  0.1262344E-006  0.9118800E+02  0.7816164E-02  0.1184000E+00
        -11   -1    0    0    0    0  0.00000000000E+00  0.00000000000E+00  0.45593999997E+02  0.45594000000E+02  0.51100000000E-03 0.  1.
         11   -1    0    0    0    0 -0.00000000000E+00 -0.00000000000E+00 -0.45593999997E+02  0.45594000000E+02  0.51100000000E-03 0. -1.
         23    2    1    2    0    0  0.00000000000E+00  0.00000000000E+00  0.00000000000E+00  0.91188000000E+02  0.91188000000E+02 0.  0.
    9900012    2    3    3    0    0  0.13441056215E+02 -0.20445558390E+02  0.27515381950E+02  0.54367094336E+02  0.40000023157E+02 0.  0.
         12    1    3    3    0    0 -0.13441056215E+02  0.20445558390E+02 -0.27515381950E+02  0.36820905664E+02  0.00000000000E+00 0. -1.
         11    1    4    4    0    0 -0.32139672724E+00 -0.19259992942E+02  0.70317702829E+01  0.20506009304E+02  0.51100000000E-03 0. -1.
        -11    1    4    4    0    0  0.11056713875E+02 -0.52996613799E+01  0.24571801232E+02  0.27461076973E+02  0.51100000000E-03 0.  1.
        -12    1    4    4    0    0  0.27057390666E+01  0.41140959323E+01 -0.40881895647E+01  0.64000080589E+01  0.00000000000E+00 0.  1.
</event>
<event>
 8    1  0.1262344E-006  0.9118800E+02  0.7816164E-02  0.1184000E+00
        -11   -1    0    0    0    0  0.00000000000E+00  0.00000000000E+00  0.45593999997E+02  0.45594000000E+02  0.51100000000E-03 0. -1.
         11   -1    0    0    0    0 -0.00000000000E+00 -0.00000000000E+00 -0.45593999997E+02  0.45594000000E+02  0.51100000000E-03 0.  1.
         23    2    1    2    0    0  0.32196467714E-14  0.00000000000E+00  0.17763568394E-14  0.91188000000E+02  0.91188000000E+02 0.  0.
    9900012    2    3    3    0    0 -0.81056021092E+00  0.35262531443E+02  0.10567655951E+02  0.54367102619E+02  0.40000042041E+02 0.  0.
        -12    1    3    3    0    0  0.81056021092E+00 -0.35262531443E+02 -0.10567655951E+02  0.36820897381E+02  0.00000000000E+00 0.  1.
         11    1    4    4    0    0 -0.90276052822E+01  0.70591208922E+01  0.59400668031E+01  0.12907875069E+02  0.51100000000E-03 0. -1.
        -11    1    4    4    0    0  0.17207360035E+02  0.92357212371E+01  0.59826618385E+01  0.20425083331E+02  0.51100000000E-03 0.  1.
         12    1    4    4    0    0 -0.89903149635E+01  0.18967689314E+02 -0.13550726903E+01  0.21034144219E+02  0.00000000000E+00 0. -1.
</event>
<event>
 8    1  0.1262344E-006  0.9118800E+02  0.7816164E-02  0.1184000E+00
        -11   -1    0    0    0    0  0.00000000000E+00  0.00000000000E+00  0.45593999997E+02  0.45594000000E+02  0.51100000000E-03 0. -1.
         11   -1    0    0    0    0 -0.00000000000E+00 -0.00000000000E+00 -0.45593999997E+02  0.45594000000E+02  0.51100000000E-03 0.  1.
         23    2    1    2    0    0  0.76327832943E-16  0.00000000000E+00  0.00000000000E+00  0.91188000000E+02  0.91188000000E+02 0.  0.
    9900012    2    3    3    0    0  0.19715724524E-01 -0.14149521251E+02  0.33993676432E+02  0.54367090482E+02  0.40000014372E+02 0.  0.
        -12    1    3    3    0    0 -0.19715724524E-01  0.14149521251E+02 -0.33993676432E+02  0.36820909518E+02  0.00000000000E+00 0.  1.
         11    1    4    4    0    0  0.33242370035E+01  0.38759773660E+01  0.12778574788E+02  0.13761021985E+02  0.51100000000E-03 0. -1.
        -11    1    4    4    0    0  0.54304406919E+01  0.63202576559E+01  0.25667907455E+01  0.87191603918E+01  0.51100000000E-03 0.  1.
         12    1    4    4    0    0 -0.87349619709E+01 -0.24345756273E+02  0.18648310899E+02  0.31886908106E+02  0.00000000000E+00 0. -1.
</event>
<event>
 8    1  0.1262344E-006  0.9118800E+02  0.7816164E-02  0.1184000E+00
        -11   -1    0    0    0    0  0.00000000000E+00  0.00000000000E+00  0.45593999997E+02  0.45594000000E+02  0.51100000000E-03 0. -1.
         11   -1    0    0    0    0 -0.00000000000E+00 -0.00000000000E+00 -0.45593999997E+02  0.45594000000E+02  0.51100000000E-03 0.  1.
         23    2    1    2    0    0  0.00000000000E+00  0.00000000000E+00  0.17763568394E-14  0.91188000000E+02  0.91188000000E+02 0.  0.
    9900012    2    3    3    0    0 -0.11692968438E+02  0.33892374883E+02 -0.83882383696E+01  0.54367066701E+02  0.39999960158E+02 0.  0.
         12    1    3    3    0    0  0.11692968438E+02 -0.33892374883E+02  0.83882383696E+01  0.36820933299E+02  0.00000000000E+00 0. -1.
         11    1    4    4    0    0  0.23617004716E+01 -0.76495064808E+01 -0.11241888034E+01  0.80843292389E+01  0.51100000000E-03 0. -1.
        -11    1    4    4    0    0 -0.10308699914E+02  0.14123383748E+02  0.65848529397E+00  0.17497796020E+02  0.51100000000E-03 0.  1.
         12    1    4    4    0    0 -0.37459689949E+01  0.27418497615E+02 -0.79225348601E+01  0.28784941442E+02  0.00000000000E+00 0. -1.
</event>
<event>
 8    1  0.1262344E-006  0.9118800E+02  0.7816164E-02  0.1184000E+00
        -11   -1    0    0    0    0  0.00000000000E+00  0.00000000000E+00  0.45593999997E+02  0.45594000000E+02  0.51100000000E-03 0. -1.
         11   -1    0    0    0    0 -0.00000000000E+00 -0.00000000000E+00 -0.45593999997E+02  0.45594000000E+02  0.51100000000E-03 0.  1.
         23    2    1    2    0    0 -0.88817841970E-15 -0.35527136788E-14  0.00000000000E+00  0.91188000000E+02  0.91188000000E+02 0.  0.
    9900012    2    3    3    0    0 -0.32392199708E+01  0.27531278728E+02 -0.24234603829E+02  0.54367083700E+02  0.39999998910E+02 0.  0.
         12    1    3    3    0    0  0.32392199708E+01 -0.27531278728E+02  0.24234603829E+02  0.36820916300E+02  0.00000000000E+00 0. -1.
         11    1    4    4    0    0 -0.54577211881E+01 -0.11909586720E+01 -0.11645798805E+01  0.57062553119E+01  0.51100000000E-03 0. -1.
        -11    1    4    4    0    0  0.43887976715E+01  0.22108830758E+02  0.20130330182E+01  0.22629941331E+02  0.51100000000E-03 0.  1.
        -12    1    4    4    0    0 -0.21702964542E+01  0.66134066427E+01 -0.25083056967E+02  0.26030887056E+02  0.00000000000E+00 0.  1.
</event>
<event>
 8    1  0.1262344E-006  0.9118800E+02  0.7816164E-02  0.1184000E+00
        -11   -1    0    0    0    0  0.00000000000E+00  0.00000000000E+00  0.45593999997E+02  0.45594000000E+02  0.51100000000E-03 0.  1.
         11   -1    0    0    0    0 -0.00000000000E+00 -0.00000000000E+00 -0.45593999997E+02  0.45594000000E+02  0.51100000000E-03 0. -1.
         23    2    1    2    0    0  0.33306690739E-15  0.88817841970E-15  0.00000000000E+00  0.91188000000E+02  0.91188000000E+02 0.  0.
    9900012    2    3    3    0    0  0.71258183348E+00  0.67699376764E+01 -0.36186171310E+02  0.54367098014E+02  0.40000031542E+02 0.  0.
        -12    1    3    3    0    0 -0.71258183348E+00 -0.67699376764E+01  0.36186171310E+02  0.36820901986E+02  0.00000000000E+00 0.  1.
         11    1    4    4    0    0  0.56507742337E+00 -0.19589701397E+01 -0.22178098907E+02  0.22271617541E+02  0.51100000000E-03 0. -1.
        -11    1    4    4    0    0 -0.23707600126E+01  0.48624044001E+01 -0.22115192160E+02  0.22767195790E+02  0.51100000000E-03 0.  1.
        -12    1    4    4    0    0  0.25182644227E+01  0.38665034160E+01  0.81071197573E+01  0.93282846830E+01  0.00000000000E+00 0.  1.
</event>
<event>
 8    1  0.1262344E-006  0.9118800E+02  0.7816164E-02  0.1184000E+00
        -11   -1    0    0    0    0  0.00000000000E+00  0.00000000000E+00  0.45593999997E+02  0.45594000000E+02  0.51100000000E-03 0. -1.
         11   -1    0    0    0    0 -0.00000000000E+00 -0.00000000000E+00 -0.45593999997E+02  0.45594000000E+02  0.51100000000E-03 0.  1.
         23    2    1    2    0    0  0.00000000000E+00  0.00000000000E+00  0.17763568394E-14  0.91188000000E+02  0.91188000000E+02 0.  0.
    9900012    2    3    3    0    0 -0.35400821385E+02  0.20536372346E+01  0.99164084705E+01  0.54367207809E+02  0.40000281840E+02 0.  0.
        -12    1    3    3    0    0  0.35400821385E+02 -0.20536372346E+01 -0.99164084705E+01  0.36820792191E+02  0.00000000000E+00 0.  1.
         11    1    4    4    0    0 -0.15502437818E+02 -0.10097135532E+02 -0.34208605187E+01  0.18814356519E+02  0.51100000000E-03 0. -1.
        -11    1    4    4    0    0 -0.20904274750E+01  0.11948610603E+02  0.12944008344E+02  0.17739406265E+02  0.51100000000E-03 0.  1.
        -12    1    4    4    0    0 -0.17807956092E+02  0.20216216342E+00  0.39326064482E+00  0.17813445025E+02  0.00000000000E+00 0.  1.
</event>
<event>
 8    1  0.1262344E-006  0.9118800E+02  0.7816164E-02  0.1184000E+00
        -11   -1    0    0    0    0  0.00000000000E+00  0.00000000000E+00  0.45593999997E+02  0.45594000000E+02  0.51100000000E-03 0.  1.
         11   -1    0    0    0    0 -0.00000000000E+00 -0.00000000000E+00 -0.45593999997E+02  0.45594000000E+02  0.51100000000E-03 0. -1.
         23    2    1    2    0    0  0.17763568394E-14  0.00000000000E+00  0.35527136788E-14  0.91188000000E+02  0.91188000000E+02 0.  0.
    9900012    2    3    3    0    0  0.86674942955E+01 -0.18036745391E+02  0.30908424046E+02  0.54367077705E+02  0.39999985244E+02 0.  0.
         12    1    3    3    0    0 -0.86674942955E+01  0.18036745391E+02 -0.30908424046E+02  0.36820922295E+02  0.00000000000E+00 0. -1.
         11    1    4    4    0    0  0.10415994647E+02  0.92239552347E+00  0.13059008832E+02  0.16729658392E+02  0.51100000000E-03 0. -1.
        -11    1    4    4    0    0  0.52531800651E+01 -0.11289682661E+02  0.22917526547E+02  0.26081906731E+02  0.51100000000E-03 0.  1.
         12    1    4    4    0    0 -0.70016804164E+01 -0.76694582534E+01 -0.50681113332E+01  0.11555512582E+02  0.00000000000E+00 0. -1.
</event>
<event>
 8    1  0.1262344E-006  0.9118800E+02  0.7816164E-02  0.1184000E+00
        -11   -1    0    0    0    0  0.00000000000E+00  0.00000000000E+00  0.45593999997E+02  0.45594000000E+02  0.51100000000E-03 0.  1.
         11   -1    0    0    0    0 -0.00000000000E+00 -0.00000000000E+00 -0.45593999997E+02  0.45594000000E+02  0.51100000000E-03 0. -1.
         23    2    1    2    0    0  0.00000000000E+00  0.00000000000E+00  0.00000000000E+00  0.91188000000E+02  0.91188000000E+02 0.  0.
    9900012    2    3    3    0    0 -0.15895061060E+02  0.20232828823E+02 -0.26339330034E+02  0.54367073410E+02  0.39999975453E+02 0.  0.
        -12    1    3    3    0    0  0.15895061060E+02 -0.20232828823E+02  0.26339330034E+02  0.36820926590E+02  0.00000000000E+00 0.  1.
         11    1    4    4    0    0  0.43572689363E+01  0.71606836135E+01 -0.20506215726E+02  0.22153240532E+02  0.51100000000E-03 0. -1.
        -11    1    4    4    0    0  0.13003158083E+01 -0.30834236580E+01  0.23194568005E+01  0.40716339185E+01  0.51100000000E-03 0.  1.
        -12    1    4    4    0    0 -0.21552645804E+02  0.16155568867E+02 -0.81525711084E+01  0.28142198960E+02  0.00000000000E+00 0.  1.
</event>
<event>
 8    1  0.1262344E-006  0.9118800E+02  0.7816164E-02  0.1184000E+00
        -11   -1    0    0    0    0  0.00000000000E+00  0.00000000000E+00  0.45593999997E+02  0.45594000000E+02  0.51100000000E-03 0. -1.
         11   -1    0    0    0    0 -0.00000000000E+00 -0.00000000000E+00 -0.45593999997E+02  0.45594000000E+02  0.51100000000E-03 0.  1.
         23    2    1    2    0    0  0.00000000000E+00 -0.27755575616E-15  0.00000000000E+00  0.91188000000E+02  0.91188000000E+02 0.  0.
    9900012    2    3    3    0    0  0.11198802164E+02 -0.12647015969E+00 -0.35076347202E+02  0.54367091570E+02  0.40000016852E+02 0.  0.
         12    1    3    3    0    0 -0.11198802164E+02  0.12647015969E+00  0.35076347202E+02  0.36820908430E+02  0.00000000000E+00 0. -1.
         11    1    4    4    0    0 -0.13599008241E+01 -0.20431970410E+01  0.12243913335E+01  0.27428304356E+01  0.51100000000E-03 0. -1.
        -11    1    4    4    0    0  0.12763328563E+01 -0.36885229070E+01 -0.38618112662E+02  0.38814853505E+02  0.51100000000E-03 0.  1.
         12    1    4    4    0    0  0.11282370132E+02  0.56052497884E+01  0.23173741263E+01  0.12809407629E+02  0.00000000000E+00 0. -1.
</event>
<event>
 8    1  0.1262344E-006  0.9118800E+02  0.7816164E-02  0.1184000E+00
        -11   -1    0    0    0    0  0.00000000000E+00  0.00000000000E+00  0.45593999997E+02  0.45594000000E+02  0.51100000000E-03 0. -1.
         11   -1    0    0    0    0 -0.00000000000E+00 -0.00000000000E+00 -0.45593999997E+02  0.45594000000E+02  0.51100000000E-03 0.  1.
         23    2    1    2    0    0  0.35527136788E-14  0.53290705182E-14 -0.35527136788E-14  0.91188000000E+02  0.91188000000E+02 0.  0.
    9900012    2    3    3    0    0  0.30530935021E+02 -0.12045243414E+02  0.16689933821E+02  0.54367085113E+02  0.40000002132E+02 0.  0.
        -12    1    3    3    0    0 -0.30530935021E+02  0.12045243414E+02 -0.16689933821E+02  0.36820914887E+02  0.00000000000E+00 0.  1.
         11    1    4    4    0    0  0.10196978878E+01 -0.48861282947E+01  0.95579346309E+01  0.10782770895E+02  0.51100000000E-03 0. -1.
        -11    1    4    4    0    0  0.21760201625E+02  0.42863664567E+01 -0.75412414354E+01  0.23425405756E+02  0.51100000000E-03 0.  1.
        -12    1    4    4    0    0  0.77510355079E+01 -0.11445481576E+02  0.14673240626E+02  0.20158908463E+02  0.00000000000E+00 0.  1.
</event>
<event>
 8    1  0.1262344E-006  0.9118800E+02  0.7816164E-02  0.1184000E+00
        -11   -1    0    0    0    0  0.00000000000E+00  0.00000000000E+00  0.45593999997E+02  0.45594000000E+02  0.51100000000E-03 0. -1.
         11   -1    0    0    0    0 -0.00000000000E+00 -0.00000000000E+00 -0.45593999997E+02  0.45594000000E+02  0.51100000000E-03 0.  1.
         23    2    1    2    0    0 -0.44408920985E-15 -0.35527136788E-14 -0.35527136788E-14  0.91188000000E+02  0.91188000000E+02 0.  0.
    9900012    2    3    3    0    0 -0.21543759455E+01 -0.22201549183E+02 -0.29295566723E+02  0.54367077259E+02  0.39999984228E+02 0.  0.
         12    1    3    3    0    0  0.21543759455E+01  0.22201549183E+02  0.29295566723E+02  0.36820922741E+02  0.00000000000E+00 0. -1.
         11    1    4    4    0    0 -0.27292395599E+00 -0.51336005652E+01 -0.13953013265E+01  0.53268384903E+01  0.51100000000E-03 0. -1.
        -11    1    4    4    0    0  0.12310840865E+02 -0.21524132243E+02 -0.13047933381E+02  0.28019522433E+02  0.51100000000E-03 0.  1.
        -12    1    4    4    0    0 -0.14192292854E+02  0.44561836249E+01 -0.14852332016E+02  0.21020716336E+02  0.00000000000E+00 0.  1.
</event>
<event>
 8    1  0.1262344E-006  0.9118800E+02  0.7816164E-02  0.1184000E+00
        -11   -1    0    0    0    0  0.00000000000E+00  0.00000000000E+00  0.45593999997E+02  0.45594000000E+02  0.51100000000E-03 0.  1.
         11   -1    0    0    0    0 -0.00000000000E+00 -0.00000000000E+00 -0.45593999997E+02  0.45594000000E+02  0.51100000000E-03 0. -1.
         23    2    1    2    0    0  0.00000000000E+00  0.00000000000E+00  0.00000000000E+00  0.91188000000E+02  0.91188000000E+02 0.  0.
    9900012    2    3    3    0    0  0.34098614027E+02  0.13406892585E+02  0.36496336283E+01  0.54367081041E+02  0.39999992849E+02 0.  0.
         12    1    3    3    0    0 -0.34098614027E+02 -0.13406892585E+02 -0.36496336283E+01  0.36820918959E+02  0.00000000000E+00 0. -1.
         11    1    4    4    0    0  0.10627681245E+02  0.17466570950E+01 -0.14844566756E+02  0.18340108563E+02  0.51100000000E-03 0. -1.
        -11    1    4    4    0    0 -0.14867343465E+01  0.25551223300E+01 -0.94975878767E+00  0.31050074323E+01  0.51100000000E-03 0.  1.
        -12    1    4    4    0    0  0.24957667129E+02  0.91051131603E+01  0.19443959172E+02  0.32921965046E+02  0.00000000000E+00 0.  1.
</event>
<event>
 8    1  0.1262344E-006  0.9118800E+02  0.7816164E-02  0.1184000E+00
        -11   -1    0    0    0    0  0.00000000000E+00  0.00000000000E+00  0.45593999997E+02  0.45594000000E+02  0.51100000000E-03 0.  1.
         11   -1    0    0    0    0 -0.00000000000E+00 -0.00000000000E+00 -0.45593999997E+02  0.45594000000E+02  0.51100000000E-03 0. -1.
         23    2    1    2    0    0  0.00000000000E+00  0.35527136788E-14  0.00000000000E+00  0.91188000000E+02  0.91188000000E+02 0.  0.
    9900012    2    3    3    0    0  0.16514732813E+02  0.16138551448E+02 -0.28680814246E+02  0.54367104458E+02  0.40000046232E+02 0.  0.
        -12    1    3    3    0    0 -0.16514732813E+02 -0.16138551448E+02  0.28680814246E+02  0.36820895542E+02  0.00000000000E+00 0.  1.
         11    1    4    4    0    0  0.31078530365E+01  0.71079359724E+01 -0.15655106376E+02  0.17471801859E+02  0.51100000000E-03 0. -1.
        -11    1    4    4    0    0  0.15337278520E+02  0.78288559348E+01  0.56182446408E+01  0.18113193278E+02  0.51100000000E-03 0.  1.
         12    1    4    4    0    0 -0.19303987430E+01  0.12017595406E+01 -0.18643952511E+02  0.18782109320E+02  0.00000000000E+00 0. -1.
</event>
<event>
 8    1  0.1262344E-006  0.9118800E+02  0.7816164E-02  0.1184000E+00
        -11   -1    0    0    0    0  0.00000000000E+00  0.00000000000E+00  0.45593999997E+02  0.45594000000E+02  0.51100000000E-03 0. -1.
         11   -1    0    0    0    0 -0.00000000000E+00 -0.00000000000E+00 -0.45593999997E+02  0.45594000000E+02  0.51100000000E-03 0.  1.
         23    2    1    2    0    0  0.00000000000E+00  0.35527136788E-14  0.35527136788E-14  0.91188000000E+02  0.91188000000E+02 0.  0.
    9900012    2    3    3    0    0 -0.89151334116E+01 -0.21045177595E+02 -0.28868677168E+02  0.54367087121E+02  0.40000006711E+02 0.  0.
         12    1    3    3    0    0  0.89151334116E+01  0.21045177595E+02  0.28868677168E+02  0.36820912879E+02  0.00000000000E+00 0. -1.
         11    1    4    4    0    0 -0.15501106438E+02 -0.38391644373E+01 -0.21256085464E+02  0.26586550244E+02  0.51100000000E-03 0. -1.
        -11    1    4    4    0    0 -0.52022592138E+00 -0.17281340883E+02 -0.10366663761E+02  0.20158945794E+02  0.51100000000E-03 0.  1.
         12    1    4    4    0    0  0.71061989477E+01  0.75327724811E-01  0.27540720568E+01  0.76215910835E+01  0.00000000000E+00 0. -1.
</event>
<event>
 8    1  0.1262344E-006  0.9118800E+02  0.7816164E-02  0.1184000E+00
        -11   -1    0    0    0    0  0.00000000000E+00  0.00000000000E+00  0.45593999997E+02  0.45594000000E+02  0.51100000000E-03 0. -1.
         11   -1    0    0    0    0 -0.00000000000E+00 -0.00000000000E+00 -0.45593999997E+02  0.45594000000E+02  0.51100000000E-03 0.  1.
         23    2    1    2    0    0  0.35527136788E-14  0.00000000000E+00  0.00000000000E+00  0.91188000000E+02  0.91188000000E+02 0.  0.
    9900012    2    3    3    0    0 -0.21018467333E+02  0.22395737669E+02 -0.20308440968E+02  0.54367111780E+02  0.40000062925E+02 0.  0.
         12    1    3    3    0    0  0.21018467333E+02 -0.22395737669E+02  0.20308440968E+02  0.36820888220E+02  0.00000000000E+00 0. -1.
         11    1    4    4    0    0 -0.11288180505E+02  0.12689599046E+02 -0.27763861107E+02  0.32546596241E+02  0.51100000000E-03 0. -1.
        -11    1    4    4    0    0 -0.10357063783E+02  0.27077023875E+01 -0.10863057710E+01  0.10760133964E+02  0.51100000000E-03 0.  1.
         12    1    4    4    0    0  0.62677695491E+00  0.69984362350E+01  0.85417259095E+01  0.11060381576E+02  0.00000000000E+00 0. -1.
</event>
<event>
 8    1  0.1262344E-006  0.9118800E+02  0.7816164E-02  0.1184000E+00
        -11   -1    0    0    0    0  0.00000000000E+00  0.00000000000E+00  0.45593999997E+02  0.45594000000E+02  0.51100000000E-03 0.  1.
         11   -1    0    0    0    0 -0.00000000000E+00 -0.00000000000E+00 -0.45593999997E+02  0.45594000000E+02  0.51100000000E-03 0. -1.
         23    2    1    2    0    0  0.88817841970E-15  0.00000000000E+00 -0.35527136788E-14  0.91188000000E+02  0.91188000000E+02 0.  0.
    9900012    2    3    3    0    0  0.62429695709E+01  0.19679077147E+02 -0.30488285195E+02  0.54367132539E+02  0.40000110250E+02 0.  0.
        -12    1    3    3    0    0 -0.62429695709E+01 -0.19679077147E+02  0.30488285195E+02  0.36820867461E+02  0.00000000000E+00 0.  1.
         11    1    4    4    0    0 -0.51951260246E+01  0.13237608769E+02 -0.12818944656E+02  0.19145468464E+02  0.51100000000E-03 0. -1.
        -11    1    4    4    0    0  0.84708352607E+01 -0.52652355632E+01 -0.20517661736E+02  0.22813421465E+02  0.51100000000E-03 0.  1.
        -12    1    4    4    0    0  0.29672603349E+01  0.11706703941E+02  0.28483211969E+01  0.12408242611E+02  0.00000000000E+00 0.  1.
</event>
<event>
 8    1  0.1262344E-006  0.9118800E+02  0.7816164E-02  0.1184000E+00
        -11   -1    0    0    0    0  0.00000000000E+00  0.00000000000E+00  0.45593999997E+02  0.45594000000E+02  0.51100000000E-03 0.  1.
         11   -1    0    0    0    0 -0.00000000000E+00 -0.00000000000E+00 -0.45593999997E+02  0.45594000000E+02  0.51100000000E-03 0. -1.
         23    2    1    2    0    0 -0.13322676296E-14  0.55511151231E-15  0.00000000000E+00  0.91188000000E+02  0.91188000000E+02 0.  0.
    9900012    2    3    3    0    0 -0.25060709320E+01  0.91270313017E+00  0.36724183282E+02  0.54367094847E+02  0.40000024324E+02 0.  0.
         12    1    3    3    0    0  0.25060709320E+01 -0.91270313017E+00 -0.36724183282E+02  0.36820905153E+02  0.00000000000E+00 0. -1.
         11    1    4    4    0    0  0.74693854851E+01  0.21136569680E+01  0.93990010138E+01  0.12190179885E+02  0.51100000000E-03 0. -1.
        -11    1    4    4    0    0 -0.10489308993E+02 -0.44799429359E+01 -0.29009786837E+01  0.11769076831E+02  0.51100000000E-03 0.  1.
        -12    1    4    4    0    0  0.51385257594E+00  0.32789890981E+01  0.30226160952E+02  0.30407838132E+02  0.00000000000E+00 0.  1.
</event>
<event>
 8    1  0.1262344E-006  0.9118800E+02  0.7816164E-02  0.1184000E+00
        -11   -1    0    0    0    0  0.00000000000E+00  0.00000000000E+00  0.45593999997E+02  0.45594000000E+02  0.51100000000E-03 0.  1.
         11   -1    0    0    0    0 -0.00000000000E+00 -0.00000000000E+00 -0.45593999997E+02  0.45594000000E+02  0.51100000000E-03 0. -1.
         23    2    1    2    0    0  0.00000000000E+00  0.00000000000E+00  0.00000000000E+00  0.91188000000E+02  0.91188000000E+02 0.  0.
    9900012    2    3    3    0    0  0.30652057462E+02  0.17147865855E+02  0.11053554917E+02  0.54367095525E+02  0.40000025869E+02 0.  0.
        -12    1    3    3    0    0 -0.30652057462E+02 -0.17147865855E+02 -0.11053554917E+02  0.36820904475E+02  0.00000000000E+00 0.  1.
         11    1    4    4    0    0  0.98010048301E+01  0.11895643064E+02  0.10686050257E+02  0.18755204343E+02  0.51100000000E-03 0. -1.
        -11    1    4    4    0    0 -0.66044117063E+01 -0.24169233563E+01 -0.82189697231E+00  0.70806276128E+01  0.51100000000E-03 0.  1.
        -12    1    4    4    0    0  0.27455464338E+02  0.76691461470E+01  0.11894016325E+01  0.28531263570E+02  0.00000000000E+00 0.  1.
</event>
<event>
 8    1  0.1262344E-006  0.9118800E+02  0.7816164E-02  0.1184000E+00
        -11   -1    0    0    0    0  0.00000000000E+00  0.00000000000E+00  0.45593999997E+02  0.45594000000E+02  0.51100000000E-03 0.  1.
         11   -1    0    0    0    0 -0.00000000000E+00 -0.00000000000E+00 -0.45593999997E+02  0.45594000000E+02  0.51100000000E-03 0. -1.
         23    2    1    2    0    0  0.35527136788E-14  0.00000000000E+00 -0.35527136788E-14  0.91188000000E+02  0.91188000000E+02 0.  0.
    9900012    2    3    3    0    0  0.17541981031E+02  0.25108865355E+02 -0.20435321535E+02  0.54367101259E+02  0.40000038939E+02 0.  0.
        -12    1    3    3    0    0 -0.17541981031E+02 -0.25108865355E+02  0.20435321535E+02  0.36820898741E+02  0.00000000000E+00 0.  1.
         11    1    4    4    0    0 -0.16164958918E+01  0.13447769690E+02 -0.14673364827E+02  0.19969056167E+02  0.51100000000E-03 0. -1.
        -11    1    4    4    0    0  0.19940519831E+02 -0.26048130734E-01 -0.95202288932E+01  0.22096600826E+02  0.51100000000E-03 0.  1.
        -12    1    4    4    0    0 -0.78204290811E+00  0.11687143795E+02  0.37582721846E+01  0.12301444266E+02  0.00000000000E+00 0.  1.
</event>
<event>
 8    1  0.1262344E-006  0.9118800E+02  0.7816164E-02  0.1184000E+00
        -11   -1    0    0    0    0  0.00000000000E+00  0.00000000000E+00  0.45593999997E+02  0.45594000000E+02  0.51100000000E-03 0.  1.
         11   -1    0    0    0    0 -0.00000000000E+00 -0.00000000000E+00 -0.45593999997E+02  0.45594000000E+02  0.51100000000E-03 0. -1.
         23    2    1    2    0    0  0.00000000000E+00  0.00000000000E+00  0.35527136788E-14  0.91188000000E+02  0.91188000000E+02 0.  0.
    9900012    2    3    3    0    0 -0.14264958838E+02  0.16549896120E+02 -0.29637671781E+02  0.54367086095E+02  0.40000004370E+02 0.  0.
        -12    1    3    3    0    0  0.14264958838E+02 -0.16549896120E+02  0.29637671781E+02  0.36820913905E+02  0.00000000000E+00 0.  1.
         11    1    4    4    0    0 -0.11347708768E+02 -0.36136354045E+01 -0.22190899139E+02  0.25184615541E+02  0.51100000000E-03 0. -1.
        -11    1    4    4    0    0 -0.25559725687E+01  0.66230079949E+01 -0.12784556615E+02  0.14623341574E+02  0.51100000000E-03 0.  1.
        -12    1    4    4    0    0 -0.36127750200E+00  0.13540523530E+02  0.53377839735E+01  0.14559128980E+02  0.00000000000E+00 0.  1.
</event>
<event>
 8    1  0.1262344E-006  0.9118800E+02  0.7816164E-02  0.1184000E+00
        -11   -1    0    0    0    0  0.00000000000E+00  0.00000000000E+00  0.45593999997E+02  0.45594000000E+02  0.51100000000E-03 0.  1.
         11   -1    0    0    0    0 -0.00000000000E+00 -0.00000000000E+00 -0.45593999997E+02  0.45594000000E+02  0.51100000000E-03 0. -1.
         23    2    1    2    0    0 -0.35527136788E-14  0.00000000000E+00  0.00000000000E+00  0.91188000000E+02  0.91188000000E+02 0.  0.
    9900012    2    3    3    0    0  0.21306312900E+02 -0.21356984958E+02  0.21111604746E+02  0.54367087045E+02  0.40000006536E+02 0.  0.
         12    1    3    3    0    0 -0.21306312900E+02  0.21356984958E+02 -0.21111604746E+02  0.36820912955E+02  0.00000000000E+00 0. -1.
         11    1    4    4    0    0  0.16069534310E+02 -0.21432667036E+02  0.94861433396E+01  0.28417882837E+02  0.51100000000E-03 0. -1.
        -11    1    4    4    0    0  0.62855262931E+01 -0.99684288739E+01  0.10507564979E+02  0.15788804168E+02  0.51100000000E-03 0.  1.
         12    1    4    4    0    0 -0.10487477028E+01  0.10044110952E+02  0.11178964274E+01  0.10160400040E+02  0.00000000000E+00 0. -1.
</event>
<event>
 8    1  0.1262344E-006  0.9118800E+02  0.7816164E-02  0.1184000E+00
        -11   -1    0    0    0    0  0.00000000000E+00  0.00000000000E+00  0.45593999997E+02  0.45594000000E+02  0.51100000000E-03 0. -1.
         11   -1    0    0    0    0 -0.00000000000E+00 -0.00000000000E+00 -0.45593999997E+02  0.45594000000E+02  0.51100000000E-03 0.  1.
         23    2    1    2    0    0  0.17763568394E-14 -0.17763568394E-14  0.00000000000E+00  0.91188000000E+02  0.91188000000E+02 0.  0.
    9900012    2    3    3    0    0  0.12190228149E+02  0.11937919879E+02 -0.32629176479E+02  0.54367098992E+02  0.40000033772E+02 0.  0.
         12    1    3    3    0    0 -0.12190228149E+02 -0.11937919879E+02  0.32629176479E+02  0.36820901008E+02  0.00000000000E+00 0. -1.
         11    1    4    4    0    0 -0.41569774111E+01 -0.49814169079E+01 -0.22294431629E+02  0.23219316474E+02  0.51100000000E-03 0. -1.
        -11    1    4    4    0    0  0.49530526362E+01  0.57961734553E+01 -0.12933850589E+02  0.15013755309E+02  0.51100000000E-03 0.  1.
         12    1    4    4    0    0  0.11394152924E+02  0.11123163332E+02  0.25991057390E+01  0.16134027209E+02  0.00000000000E+00 0. -1.
</event>
<event>
 8    1  0.1262344E-006  0.9118800E+02  0.7816164E-02  0.1184000E+00
        -11   -1    0    0    0    0  0.00000000000E+00  0.00000000000E+00  0.45593999997E+02  0.45594000000E+02  0.51100000000E-03 0. -1.
         11   -1    0    0    0    0 -0.00000000000E+00 -0.00000000000E+00 -0.45593999997E+02  0.45594000000E+02  0.51100000000E-03 0.  1.
         23    2    1    2    0    0  0.17763568394E-14  0.00000000000E+00  0.35527136788E-14  0.91188000000E+02  0.91188000000E+02 0.  0.
    9900012    2    3    3    0    0 -0.10155354597E+02 -0.19953434281E+02 -0.29231975187E+02  0.54367093711E+02  0.40000021733E+02 0.  0.
         12    1    3    3    0    0  0.10155354597E+02  0.19953434281E+02  0.29231975187E+02  0.36820906289E+02  0.00000000000E+00 0. -1.
         11    1    4    4    0    0 -0.81953447777E+01 -0.79422041322E+01 -0.74909727944E+01  0.13651262072E+02  0.51100000000E-03 0. -1.
        -11    1    4    4    0    0 -0.90562764608E+00  0.41333146444E+01 -0.24008716972E+02  0.24378739555E+02  0.51100000000E-03 0.  1.
         12    1    4    4    0    0 -0.10543821734E+01 -0.16144544793E+02  0.22677145791E+01  0.16337092084E+02  0.00000000000E+00 0. -1.
</event>
<event>
 8    1  0.1262344E-006  0.9118800E+02  0.7816164E-02  0.1184000E+00
        -11   -1    0    0    0    0  0.00000000000E+00  0.00000000000E+00  0.45593999997E+02  0.45594000000E+02  0.51100000000E-03 0. -1.
         11   -1    0    0    0    0 -0.00000000000E+00 -0.00000000000E+00 -0.45593999997E+02  0.45594000000E+02  0.51100000000E-03 0.  1.
         23    2    1    2    0    0 -0.35527136788E-14  0.35527136788E-14  0.17763568394E-14  0.91188000000E+02  0.91188000000E+02 0.  0.
    9900012    2    3    3    0    0  0.17172999754E+02 -0.30576225317E+02 -0.11223131733E+02  0.54367134162E+02  0.40000113948E+02 0.  0.
        -12    1    3    3    0    0 -0.17172999754E+02  0.30576225317E+02  0.11223131733E+02  0.36820865838E+02  0.00000000000E+00 0.  1.
         11    1    4    4    0    0  0.13845711332E+02 -0.32622587131E+02 -0.63738578324E+01  0.36007818281E+02  0.51100000000E-03 0. -1.
        -11    1    4    4    0    0  0.25198970374E+01 -0.44470410802E+01 -0.91838627026E+01  0.10510441944E+02  0.51100000000E-03 0.  1.
         12    1    4    4    0    0  0.80739138387E+00  0.64934028944E+01  0.43345888021E+01  0.78488739370E+01  0.00000000000E+00 0. -1.
</event>
<event>
 8    1  0.1262344E-006  0.9118800E+02  0.7816164E-02  0.1184000E+00
        -11   -1    0    0    0    0  0.00000000000E+00  0.00000000000E+00  0.45593999997E+02  0.45594000000E+02  0.51100000000E-03 0. -1.
         11   -1    0    0    0    0 -0.00000000000E+00 -0.00000000000E+00 -0.45593999997E+02  0.45594000000E+02  0.51100000000E-03 0.  1.
         23    2    1    2    0    0  0.00000000000E+00 -0.44408920985E-15  0.00000000000E+00  0.91188000000E+02  0.91188000000E+02 0.  0.
    9900012    2    3    3    0    0  0.18898007303E+02 -0.39341379056E+01  0.31355498431E+02  0.54367090140E+02  0.40000013591E+02 0.  0.
        -12    1    3    3    0    0 -0.18898007303E+02  0.39341379056E+01 -0.31355498431E+02  0.36820909860E+02  0.00000000000E+00 0.  1.
         11    1    4    4    0    0  0.58070405817E+01 -0.56960415016E+01  0.20436195073E+01  0.83870727943E+01  0.51100000000E-03 0. -1.
        -11    1    4    4    0    0  0.44554263004E+01  0.26707723259E+01  0.35140222301E+02  0.35522092730E+02  0.51100000000E-03 0.  1.
        -12    1    4    4    0    0  0.86355404213E+01 -0.90886873000E+00 -0.58283433771E+01  0.10457924615E+02  0.00000000000E+00 0.  1.
</event>
<event>
 8    1  0.1262344E-006  0.9118800E+02  0.7816164E-02  0.1184000E+00
        -11   -1    0    0    0    0  0.00000000000E+00  0.00000000000E+00  0.45593999997E+02  0.45594000000E+02  0.51100000000E-03 0.  1.
         11   -1    0    0    0    0 -0.00000000000E+00 -0.00000000000E+00 -0.45593999997E+02  0.45594000000E+02  0.51100000000E-03 0. -1.
         23    2    1    2    0    0  0.00000000000E+00  0.00000000000E+00 -0.35527136788E-14  0.91188000000E+02  0.91188000000E+02 0.  0.
    9900012    2    3    3    0    0  0.16673206989E+02 -0.13183779898E+02  0.30066126943E+02  0.54367083756E+02  0.39999999038E+02 0.  0.
         12    1    3    3    0    0 -0.16673206989E+02  0.13183779898E+02 -0.30066126943E+02  0.36820916244E+02  0.00000000000E+00 0. -1.
         11    1    4    4    0    0  0.71814917837E+01  0.99650285842E+01  0.11513023776E+02  0.16835240885E+02  0.51100000000E-03 0. -1.
        -11    1    4    4    0    0  0.13883444232E+02 -0.16199045295E+02  0.19931135539E+02  0.29196048643E+02  0.51100000000E-03 0.  1.
        -12    1    4    4    0    0 -0.43917290270E+01 -0.69497631873E+01 -0.13780323712E+01  0.83357942287E+01  0.00000000000E+00 0.  1.
</event>
<event>
 8    1  0.1262344E-006  0.9118800E+02  0.7816164E-02  0.1184000E+00
        -11   -1    0    0    0    0  0.00000000000E+00  0.00000000000E+00  0.45593999997E+02  0.45594000000E+02  0.51100000000E-03 0.  1.
         11   -1    0    0    0    0 -0.00000000000E+00 -0.00000000000E+00 -0.45593999997E+02  0.45594000000E+02  0.51100000000E-03 0. -1.
         23    2    1    2    0    0 -0.17763568394E-14  0.11102230246E-14  0.71054273576E-14  0.91188000000E+02  0.91188000000E+02 0.  0.
    9900012    2    3    3    0    0 -0.12658426333E+02 -0.10423740453E+01  0.34560935471E+02  0.54367074407E+02  0.39999977726E+02 0.  0.
         12    1    3    3    0    0  0.12658426333E+02  0.10423740453E+01 -0.34560935471E+02  0.36820925593E+02  0.00000000000E+00 0. -1.
         11    1    4    4    0    0 -0.32902345965E+01  0.31521814933E+01  0.14431058524E+02  0.15133318944E+02  0.51100000000E-03 0. -1.
        -11    1    4    4    0    0 -0.17918502110E+02  0.39233745234E+01  0.20408408072E+02  0.27440275250E+02  0.51100000000E-03 0.  1.
         12    1    4    4    0    0  0.85503103730E+01 -0.81179300620E+01 -0.27853112493E+00  0.11793480214E+02  0.00000000000E+00 0. -1.
</event>
<event>
 8    1  0.1262344E-006  0.9118800E+02  0.7816164E-02  0.1184000E+00
        -11   -1    0    0    0    0  0.00000000000E+00  0.00000000000E+00  0.45593999997E+02  0.45594000000E+02  0.51100000000E-03 0. -1.
         11   -1    0    0    0    0 -0.00000000000E+00 -0.00000000000E+00 -0.45593999997E+02  0.45594000000E+02  0.51100000000E-03 0.  1.
         23    2    1    2    0    0  0.00000000000E+00  0.00000000000E+00  0.00000000000E+00  0.91188000000E+02  0.91188000000E+02 0.  0.
    9900012    2    3    3    0    0  0.16950633054E+02  0.87889487875E+01 -0.31483483748E+02  0.54367091122E+02  0.40000015830E+02 0.  0.
         12    1    3    3    0    0 -0.16950633054E+02 -0.87889487875E+01  0.31483483748E+02  0.36820908878E+02  0.00000000000E+00 0. -1.
         11    1    4    4    0    0  0.26985967940E+01 -0.63064421543E+01 -0.30407793125E+01  0.75033310197E+01  0.51100000000E-03 0. -1.
        -11    1    4    4    0    0 -0.98787754797E+01  0.43831199222E+01 -0.73337814834E+01  0.13060868897E+02  0.51100000000E-03 0.  1.
        -12    1    4    4    0    0  0.24130811740E+02  0.10712271020E+02 -0.21108922952E+02  0.33802891205E+02  0.00000000000E+00 0.  1.
</event>
<event>
 8    1  0.1262344E-006  0.9118800E+02  0.7816164E-02  0.1184000E+00
        -11   -1    0    0    0    0  0.00000000000E+00  0.00000000000E+00  0.45593999997E+02  0.45594000000E+02  0.51100000000E-03 0. -1.
         11   -1    0    0    0    0 -0.00000000000E+00 -0.00000000000E+00 -0.45593999997E+02  0.45594000000E+02  0.51100000000E-03 0.  1.
         23    2    1    2    0    0 -0.17763568394E-14  0.00000000000E+00  0.00000000000E+00  0.91188000000E+02  0.91188000000E+02 0.  0.
    9900012    2    3    3    0    0  0.12704463020E+02 -0.33335296278E+02  0.91178431401E+01  0.54367076300E+02  0.39999982041E+02 0.  0.
        -12    1    3    3    0    0 -0.12704463020E+02  0.33335296278E+02 -0.91178431401E+01  0.36820923700E+02  0.00000000000E+00 0.  1.
         11    1    4    4    0    0 -0.52045068349E+01 -0.23307576225E+02  0.15694760850E+02  0.28577185293E+02  0.51100000000E-03 0. -1.
        -11    1    4    4    0    0  0.23938875570E+01 -0.90066401250E+01 -0.33986883685E+01  0.99197453024E+01  0.51100000000E-03 0.  1.
        -12    1    4    4    0    0  0.15515082298E+02 -0.10210799282E+01 -0.31782293413E+01  0.15870145704E+02  0.00000000000E+00 0.  1.
</event>
<event>
 8    1  0.1262344E-006  0.9118800E+02  0.7816164E-02  0.1184000E+00
        -11   -1    0    0    0    0  0.00000000000E+00  0.00000000000E+00  0.45593999997E+02  0.45594000000E+02  0.51100000000E-03 0.  1.
         11   -1    0    0    0    0 -0.00000000000E+00 -0.00000000000E+00 -0.45593999997E+02  0.45594000000E+02  0.51100000000E-03 0. -1.
         23    2    1    2    0    0  0.00000000000E+00 -0.17763568394E-14 -0.71054273576E-14  0.91188000000E+02  0.91188000000E+02 0.  0.
    9900012    2    3    3    0    0 -0.16197260725E+02 -0.93374542581E+01  0.31721296292E+02  0.54367082773E+02  0.39999996797E+02 0.  0.
         12    1    3    3    0    0  0.16197260725E+02  0.93374542581E+01 -0.31721296292E+02  0.36820917227E+02  0.00000000000E+00 0. -1.
         11    1    4    4    0    0  0.33257473888E+01  0.31150315647E+01 -0.48644940236E+01  0.66653821878E+01  0.51100000000E-03 0. -1.
        -11    1    4    4    0    0 -0.13786068012E+02 -0.16999929596E+02  0.32874318933E+02  0.39493975782E+02  0.51100000000E-03 0.  1.
         12    1    4    4    0    0 -0.57369401023E+01  0.45474437737E+01  0.37114713828E+01  0.82077248027E+01  0.00000000000E+00 0. -1.
</event>
<event>
 8    1  0.1262344E-006  0.9118800E+02  0.7816164E-02  0.1184000E+00
        -11   -1    0    0    0    0  0.00000000000E+00  0.00000000000E+00  0.45593999997E+02  0.45594000000E+02  0.51100000000E-03 0. -1.
         11   -1    0    0    0    0 -0.00000000000E+00 -0.00000000000E+00 -0.45593999997E+02  0.45594000000E+02  0.51100000000E-03 0.  1.
         23    2    1    2    0    0 -0.35527136788E-14  0.00000000000E+00  0.00000000000E+00  0.91188000000E+02  0.91188000000E+02 0.  0.
    9900012    2    3    3    0    0 -0.15849095784E+02  0.31867669659E+02  0.94359478525E+01  0.54367091286E+02  0.40000016204E+02 0.  0.
         12    1    3    3    0    0  0.15849095784E+02 -0.31867669659E+02 -0.94359478525E+01  0.36820908714E+02  0.00000000000E+00 0. -1.
         11    1    4    4    0    0 -0.18706640255E+02  0.96898968688E+01  0.70431000017E+01  0.22213458733E+02  0.51100000000E-03 0. -1.
        -11    1    4    4    0    0  0.66436528142E+01  0.18530901306E+02 -0.74067233606E+01  0.21033116201E+02  0.51100000000E-03 0.  1.
         12    1    4    4    0    0 -0.37861083431E+01  0.36468714847E+01  0.97995712113E+01  0.11120516352E+02  0.00000000000E+00 0. -1.
</event>
<event>
 8    1  0.1262344E-006  0.9118800E+02  0.7816164E-02  0.1184000E+00
        -11   -1    0    0    0    0  0.00000000000E+00  0.00000000000E+00  0.45593999997E+02  0.45594000000E+02  0.51100000000E-03 0. -1.
         11   -1    0    0    0    0 -0.00000000000E+00 -0.00000000000E+00 -0.45593999997E+02  0.45594000000E+02  0.51100000000E-03 0.  1.
         23    2    1    2    0    0 -0.44408920985E-15  0.00000000000E+00  0.00000000000E+00  0.91188000000E+02  0.91188000000E+02 0.  0.
    9900012    2    3    3    0    0  0.38566374627E+01  0.26512700201E+02  0.25258327974E+02  0.54367081265E+02  0.39999993359E+02 0.  0.
        -12    1    3    3    0    0 -0.38566374627E+01 -0.26512700201E+02 -0.25258327974E+02  0.36820918735E+02  0.00000000000E+00 0.  1.
         11    1    4    4    0    0 -0.52690710156E+01  0.15993600547E+01  0.10448343981E+02  0.11810544194E+02  0.51100000000E-03 0. -1.
        -11    1    4    4    0    0 -0.23999045660E+01  0.21229257961E+02  0.20115800920E+02  0.29344273418E+02  0.51100000000E-03 0.  1.
        -12    1    4    4    0    0  0.11525613044E+02  0.36840821855E+01 -0.53058169266E+01  0.13212263654E+02  0.00000000000E+00 0.  1.
</event>
<event>
 8    1  0.1262344E-006  0.9118800E+02  0.7816164E-02  0.1184000E+00
        -11   -1    0    0    0    0  0.00000000000E+00  0.00000000000E+00  0.45593999997E+02  0.45594000000E+02  0.51100000000E-03 0. -1.
         11   -1    0    0    0    0 -0.00000000000E+00 -0.00000000000E+00 -0.45593999997E+02  0.45594000000E+02  0.51100000000E-03 0.  1.
         23    2    1    2    0    0 -0.17763568394E-14 -0.35527136788E-14  0.00000000000E+00  0.91188000000E+02  0.91188000000E+02 0.  0.
    9900012    2    3    3    0    0  0.15179178607E+02  0.75907903950E+01 -0.32676502469E+02  0.54367063352E+02  0.39999952524E+02 0.  0.
         12    1    3    3    0    0 -0.15179178607E+02 -0.75907903950E+01  0.32676502469E+02  0.36820936648E+02  0.00000000000E+00 0. -1.
         11    1    4    4    0    0 -0.67823889761E+01 -0.63590441008E+01 -0.23611104189E+02  0.25375627744E+02  0.51100000000E-03 0. -1.
        -11    1    4    4    0    0  0.77784440168E+01  0.39038618113E+01  0.12313717020E+01  0.87898011862E+01  0.51100000000E-03 0.  1.
         12    1    4    4    0    0  0.14183123566E+02  0.10045972685E+02 -0.10296769982E+02  0.20201634422E+02  0.00000000000E+00 0. -1.
</event>
<event>
 8    1  0.1262344E-006  0.9118800E+02  0.7816164E-02  0.1184000E+00
        -11   -1    0    0    0    0  0.00000000000E+00  0.00000000000E+00  0.45593999997E+02  0.45594000000E+02  0.51100000000E-03 0.  1.
         11   -1    0    0    0    0 -0.00000000000E+00 -0.00000000000E+00 -0.45593999997E+02  0.45594000000E+02  0.51100000000E-03 0. -1.
         23    2    1    2    0    0 -0.44408920985E-15 -0.35527136788E-14 -0.71054273576E-14  0.91188000000E+02  0.91188000000E+02 0.  0.
    9900012    2    3    3    0    0 -0.26289485581E+01  0.14405000856E+02  0.33784088326E+02  0.54367081432E+02  0.39999993741E+02 0.  0.
         12    1    3    3    0    0  0.26289485581E+01 -0.14405000856E+02 -0.33784088326E+02  0.36820918568E+02  0.00000000000E+00 0. -1.
         11    1    4    4    0    0 -0.28343783996E+01  0.16512945597E+02  0.89399404552E+01  0.18990355679E+02  0.51100000000E-03 0. -1.
        -11    1    4    4    0    0 -0.95739596086E+01  0.53481999110E+00  0.23213682967E+02  0.25116166351E+02  0.51100000000E-03 0.  1.
         12    1    4    4    0    0  0.97793894501E+01 -0.26427647329E+01  0.16304649035E+01  0.10260559403E+02  0.00000000000E+00 0. -1.
</event>
<event>
 8    1  0.1262344E-006  0.9118800E+02  0.7816164E-02  0.1184000E+00
        -11   -1    0    0    0    0  0.00000000000E+00  0.00000000000E+00  0.45593999997E+02  0.45594000000E+02  0.51100000000E-03 0.  1.
         11   -1    0    0    0    0 -0.00000000000E+00 -0.00000000000E+00 -0.45593999997E+02  0.45594000000E+02  0.51100000000E-03 0. -1.
         23    2    1    2    0    0  0.00000000000E+00  0.00000000000E+00  0.35527136788E-14  0.91188000000E+02  0.91188000000E+02 0.  0.
    9900012    2    3    3    0    0 -0.24267276361E+02  0.20917002407E+02  0.18148228052E+02  0.54367083756E+02  0.39999999038E+02 0.  0.
         12    1    3    3    0    0  0.24267276361E+02 -0.20917002407E+02 -0.18148228052E+02  0.36820916244E+02  0.00000000000E+00 0. -1.
         11    1    4    4    0    0 -0.51770674243E+01  0.15772998611E+02 -0.20497638092E+01  0.16726955618E+02  0.51100000000E-03 0. -1.
        -11    1    4    4    0    0 -0.63304711525E+01  0.10919189473E+02  0.19979878181E+02  0.23632585473E+02  0.51100000000E-03 0.  1.
         12    1    4    4    0    0 -0.12759737784E+02 -0.57751856772E+01  0.21811367962E+00  0.14007542664E+02  0.00000000000E+00 0. -1.
</event>
<event>
 8    1  0.1262344E-006  0.9118800E+02  0.7816164E-02  0.1184000E+00
        -11   -1    0    0    0    0  0.00000000000E+00  0.00000000000E+00  0.45593999997E+02  0.45594000000E+02  0.51100000000E-03 0. -1.
         11   -1    0    0    0    0 -0.00000000000E+00 -0.00000000000E+00 -0.45593999997E+02  0.45594000000E+02  0.51100000000E-03 0.  1.
         23    2    1    2    0    0  0.00000000000E+00  0.00000000000E+00  0.35527136788E-14  0.91188000000E+02  0.91188000000E+02 0.  0.
    9900012    2    3    3    0    0  0.21266788233E+02  0.57746379822E+01 -0.29498118317E+02  0.54367330400E+02  0.40000561308E+02 0.  0.
         12    1    3    3    0    0 -0.21266788233E+02 -0.57746379822E+01  0.29498118317E+02  0.36820669600E+02  0.00000000000E+00 0. -1.
         11    1    4    4    0    0 -0.19113128304E+01  0.89831250081E+01  0.38575288018E+01  0.99614346540E+01  0.51100000000E-03 0. -1.
        -11    1    4    4    0    0  0.14862856640E+02  0.60253541231E+01 -0.23939849923E+02  0.28815374619E+02  0.51100000000E-03 0.  1.
        -12    1    4    4    0    0  0.83152444241E+01 -0.92338411490E+01 -0.94157971950E+01  0.15590521127E+02  0.00000000000E+00 0.  1.
</event>
<event>
 8    1  0.1262344E-006  0.9118800E+02  0.7816164E-02  0.1184000E+00
        -11   -1    0    0    0    0  0.00000000000E+00  0.00000000000E+00  0.45593999997E+02  0.45594000000E+02  0.51100000000E-03 0. -1.
         11   -1    0    0    0    0 -0.00000000000E+00 -0.00000000000E+00 -0.45593999997E+02  0.45594000000E+02  0.51100000000E-03 0.  1.
         23    2    1    2    0    0  0.00000000000E+00  0.00000000000E+00 -0.88817841970E-15  0.91188000000E+02  0.91188000000E+02 0.  0.
    9900012    2    3    3    0    0 -0.16638113333E+02 -0.31869599426E+02  0.79548427572E+01  0.54367113180E+02  0.40000066117E+02 0.  0.
        -12    1    3    3    0    0  0.16638113333E+02  0.31869599426E+02 -0.79548427572E+01  0.36820886820E+02  0.00000000000E+00 0.  1.
         11    1    4    4    0    0 -0.61905121806E+01 -0.14381684846E+02 -0.10853662795E+02  0.19051438171E+02  0.51100000000E-03 0. -1.
        -11    1    4    4    0    0 -0.19783749873E+01  0.52477000397E+01  0.30302298711E+01  0.63745287378E+01  0.51100000000E-03 0.  1.
        -12    1    4    4    0    0 -0.84692261654E+01 -0.22735614620E+02  0.15778275682E+02  0.28941146271E+02  0.00000000000E+00 0.  1.
</event>
<event>
 8    1  0.1262344E-006  0.9118800E+02  0.7816164E-02  0.1184000E+00
        -11   -1    0    0    0    0  0.00000000000E+00  0.00000000000E+00  0.45593999997E+02  0.45594000000E+02  0.51100000000E-03 0.  1.
         11   -1    0    0    0    0 -0.00000000000E+00 -0.00000000000E+00 -0.45593999997E+02  0.45594000000E+02  0.51100000000E-03 0. -1.
         23    2    1    2    0    0 -0.35527136788E-14  0.00000000000E+00  0.00000000000E+00  0.91188000000E+02  0.91188000000E+02 0.  0.
    9900012    2    3    3    0    0 -0.30108571095E+02 -0.20773600722E+02  0.42085029137E+01  0.54367081528E+02  0.39999993960E+02 0.  0.
         12    1    3    3    0    0  0.30108571095E+02  0.20773600722E+02 -0.42085029137E+01  0.36820918472E+02  0.00000000000E+00 0. -1.
         11    1    4    4    0    0  0.17984330131E+01 -0.12433563230E+02  0.39640901762E+01  0.13173529029E+02  0.51100000000E-03 0. -1.
        -11    1    4    4    0    0 -0.60740029681E+01 -0.13377530396E+02 -0.17641943903E+01  0.14797439429E+02  0.51100000000E-03 0.  1.
        -12    1    4    4    0    0 -0.25833001140E+02  0.50374929033E+01  0.20086071277E+01  0.26396113070E+02  0.00000000000E+00 0.  1.
</event>
<event>
 8    1  0.1262344E-006  0.9118800E+02  0.7816164E-02  0.1184000E+00
        -11   -1    0    0    0    0  0.00000000000E+00  0.00000000000E+00  0.45593999997E+02  0.45594000000E+02  0.51100000000E-03 0.  1.
         11   -1    0    0    0    0 -0.00000000000E+00 -0.00000000000E+00 -0.45593999997E+02  0.45594000000E+02  0.51100000000E-03 0. -1.
         23    2    1    2    0    0 -0.35527136788E-14 -0.35527136788E-14  0.00000000000E+00  0.91188000000E+02  0.91188000000E+02 0.  0.
    9900012    2    3    3    0    0  0.20850741160E+02  0.13604859127E+02 -0.27128103657E+02  0.54367087371E+02  0.40000007279E+02 0.  0.
        -12    1    3    3    0    0 -0.20850741160E+02 -0.13604859127E+02  0.27128103657E+02  0.36820912629E+02  0.00000000000E+00 0.  1.
         11    1    4    4    0    0  0.48550185649E+00 -0.52997221211E+01 -0.20432928200E+02  0.21114623409E+02  0.51100000000E-03 0. -1.
        -11    1    4    4    0    0  0.90562877321E+01 -0.15569475209E+01 -0.16679787159E+01  0.93393033106E+01  0.51100000000E-03 0.  1.
        -12    1    4    4    0    0  0.11308951572E+02  0.20461528770E+02 -0.50271967410E+01  0.23913160651E+02  0.00000000000E+00 0.  1.
</event>
<event>
 8    1  0.1262344E-006  0.9118800E+02  0.7816164E-02  0.1184000E+00
        -11   -1    0    0    0    0  0.00000000000E+00  0.00000000000E+00  0.45593999997E+02  0.45594000000E+02  0.51100000000E-03 0. -1.
         11   -1    0    0    0    0 -0.00000000000E+00 -0.00000000000E+00 -0.45593999997E+02  0.45594000000E+02  0.51100000000E-03 0.  1.
         23    2    1    2    0    0 -0.17763568394E-14  0.00000000000E+00  0.00000000000E+00  0.91188000000E+02  0.91188000000E+02 0.  0.
    9900012    2    3    3    0    0  0.11064839343E+02  0.25443280185E+02  0.24207192289E+02  0.54367091066E+02  0.40000015703E+02 0.  0.
        -12    1    3    3    0    0 -0.11064839343E+02 -0.25443280185E+02 -0.24207192289E+02  0.36820908934E+02  0.00000000000E+00 0.  1.
         11    1    4    4    0    0 -0.13100684656E+02  0.60304781349E+01  0.54258856262E+01  0.15408920796E+02  0.51100000000E-03 0. -1.
        -11    1    4    4    0    0  0.13971297635E+02  0.28637343633E+01  0.49262873709E+01  0.15088619540E+02  0.51100000000E-03 0.  1.
         12    1    4    4    0    0  0.10194226364E+02  0.16549067687E+02  0.13855019291E+02  0.23869550729E+02  0.00000000000E+00 0. -1.
</event>
<event>
 8    1  0.1262344E-006  0.9118800E+02  0.7816164E-02  0.1184000E+00
        -11   -1    0    0    0    0  0.00000000000E+00  0.00000000000E+00  0.45593999997E+02  0.45594000000E+02  0.51100000000E-03 0.  1.
         11   -1    0    0    0    0 -0.00000000000E+00 -0.00000000000E+00 -0.45593999997E+02  0.45594000000E+02  0.51100000000E-03 0. -1.
         23    2    1    2    0    0  0.35527136788E-14  0.88817841970E-15 -0.35527136788E-14  0.91188000000E+02  0.91188000000E+02 0.  0.
    9900012    2    3    3    0    0 -0.19568843167E+02  0.58261676542E+01  0.30641548996E+02  0.54366968275E+02  0.39999735775E+02 0.  0.
         12    1    3    3    0    0  0.19568843167E+02 -0.58261676542E+01 -0.30641548996E+02  0.36821031725E+02  0.00000000000E+00 0. -1.
         11    1    4    4    0    0 -0.21903923826E+02 -0.60335045120E+01  0.18215999735E+02  0.29120571806E+02  0.51100000000E-03 0. -1.
        -11    1    4    4    0    0  0.89847036767E+00  0.41977721461E+01  0.16075488218E+02  0.16638805898E+02  0.51100000000E-03 0.  1.
         12    1    4    4    0    0  0.14366102913E+01  0.76619000201E+01 -0.36499389573E+01  0.86075905711E+01  0.00000000000E+00 0. -1.
</event>
<event>
 8    1  0.1262344E-006  0.9118800E+02  0.7816164E-02  0.1184000E+00
        -11   -1    0    0    0    0  0.00000000000E+00  0.00000000000E+00  0.45593999997E+02  0.45594000000E+02  0.51100000000E-03 0. -1.
         11   -1    0    0    0    0 -0.00000000000E+00 -0.00000000000E+00 -0.45593999997E+02  0.45594000000E+02  0.51100000000E-03 0.  1.
         23    2    1    2    0    0  0.35527136788E-14 -0.71054273576E-14 -0.17763568394E-14  0.91188000000E+02  0.91188000000E+02 0.  0.
    9900012    2    3    3    0    0 -0.23789369036E+02  0.26507866923E+02 -0.93371110972E+01  0.54367044939E+02  0.39999910547E+02 0.  0.
        -12    1    3    3    0    0  0.23789369036E+02 -0.26507866923E+02  0.93371110972E+01  0.36820955061E+02  0.00000000000E+00 0.  1.
         11    1    4    4    0    0 -0.14122181460E+02  0.18790405161E+02  0.18013111860E+01  0.23574563783E+02  0.51100000000E-03 0. -1.
        -11    1    4    4    0    0 -0.35575806598E+01  0.58717468031E+01  0.80444319764E+01  0.10575758921E+02  0.51100000000E-03 0.  1.
        -12    1    4    4    0    0 -0.61096069160E+01  0.18457149594E+01 -0.19182854260E+02  0.20216722235E+02  0.00000000000E+00 0.  1.
</event>
<event>
 8    1  0.1262344E-006  0.9118800E+02  0.7816164E-02  0.1184000E+00
        -11   -1    0    0    0    0  0.00000000000E+00  0.00000000000E+00  0.45593999997E+02  0.45594000000E+02  0.51100000000E-03 0. -1.
         11   -1    0    0    0    0 -0.00000000000E+00 -0.00000000000E+00 -0.45593999997E+02  0.45594000000E+02  0.51100000000E-03 0.  1.
         23    2    1    2    0    0 -0.35527136788E-14 -0.35527136788E-14  0.00000000000E+00  0.91188000000E+02  0.91188000000E+02 0.  0.
    9900012    2    3    3    0    0 -0.23248320222E+02 -0.21272281528E+02  0.19046819276E+02  0.54367140707E+02  0.40000128869E+02 0.  0.
        -12    1    3    3    0    0  0.23248320222E+02  0.21272281528E+02 -0.19046819276E+02  0.36820859293E+02  0.00000000000E+00 0.  1.
         11    1    4    4    0    0  0.36758345273E+01 -0.30397024603E+01  0.14149119985E+02  0.14931481746E+02  0.51100000000E-03 0. -1.
        -11    1    4    4    0    0 -0.54423740830E+01 -0.69589657879E+01 -0.80364852045E+01  0.11942852892E+02  0.51100000000E-03 0.  1.
        -12    1    4    4    0    0 -0.21481780667E+02 -0.11273613279E+02  0.12934184496E+02  0.27492806069E+02  0.00000000000E+00 0.  1.
</event>
<event>
 8    1  0.1262344E-006  0.9118800E+02  0.7816164E-02  0.1184000E+00
        -11   -1    0    0    0    0  0.00000000000E+00  0.00000000000E+00  0.45593999997E+02  0.45594000000E+02  0.51100000000E-03 0. -1.
         11   -1    0    0    0    0 -0.00000000000E+00 -0.00000000000E+00 -0.45593999997E+02  0.45594000000E+02  0.51100000000E-03 0.  1.
         23    2    1    2    0    0  0.71054273576E-14  0.00000000000E+00 -0.35527136788E-14  0.91188000000E+02  0.91188000000E+02 0.  0.
    9900012    2    3    3    0    0 -0.26248360313E+02 -0.12497037035E+02 -0.22597090760E+02  0.54367070292E+02  0.39999968344E+02 0.  0.
         12    1    3    3    0    0  0.26248360313E+02  0.12497037035E+02  0.22597090760E+02  0.36820929708E+02  0.00000000000E+00 0. -1.
         11    1    4    4    0    0 -0.13938580348E+00 -0.14063840031E+01  0.49560278687E+01  0.51535964979E+01  0.51100000000E-03 0. -1.
        -11    1    4    4    0    0 -0.23766704619E+02 -0.19703712017E+02 -0.25530801662E+02  0.40061382272E+02  0.51100000000E-03 0.  1.
         12    1    4    4    0    0 -0.23422698899E+01  0.86130589851E+01 -0.20223169663E+01  0.91520915221E+01  0.00000000000E+00 0. -1.
</event>
<event>
 8    1  0.1262344E-006  0.9118800E+02  0.7816164E-02  0.1184000E+00
        -11   -1    0    0    0    0  0.00000000000E+00  0.00000000000E+00  0.45593999997E+02  0.45594000000E+02  0.51100000000E-03 0.  1.
         11   -1    0    0    0    0 -0.00000000000E+00 -0.00000000000E+00 -0.45593999997E+02  0.45594000000E+02  0.51100000000E-03 0. -1.
         23    2    1    2    0    0  0.35527136788E-14  0.00000000000E+00  0.35527136788E-14  0.91188000000E+02  0.91188000000E+02 0.  0.
    9900012    2    3    3    0    0 -0.29115069092E+02  0.28151712910E+01  0.22364388930E+02  0.54367104712E+02  0.40000046811E+02 0.  0.
         12    1    3    3    0    0  0.29115069092E+02 -0.28151712910E+01 -0.22364388930E+02  0.36820895288E+02  0.00000000000E+00 0. -1.
         11    1    4    4    0    0 -0.61378268470E+01 -0.10357597718E+02  0.48455590433E+01  0.12978142841E+02  0.51100000000E-03 0. -1.
        -11    1    4    4    0    0 -0.75094130408E+01 -0.52318998943E+01  0.14516630929E+02  0.17160904245E+02  0.51100000000E-03 0.  1.
         12    1    4    4    0    0 -0.15467829204E+02  0.18404668904E+02  0.30021989581E+01  0.24228057626E+02  0.00000000000E+00 0. -1.
</event>
<event>
 8    1  0.1262344E-006  0.9118800E+02  0.7816164E-02  0.1184000E+00
        -11   -1    0    0    0    0  0.00000000000E+00  0.00000000000E+00  0.45593999997E+02  0.45594000000E+02  0.51100000000E-03 0.  1.
         11   -1    0    0    0    0 -0.00000000000E+00 -0.00000000000E+00 -0.45593999997E+02  0.45594000000E+02  0.51100000000E-03 0. -1.
         23    2    1    2    0    0  0.17763568394E-14 -0.88817841970E-15  0.71054273576E-14  0.91188000000E+02  0.91188000000E+02 0.  0.
    9900012    2    3    3    0    0 -0.12839349747E+02  0.18000886622E+01 -0.34462900019E+02  0.54367072542E+02  0.39999973474E+02 0.  0.
        -12    1    3    3    0    0  0.12839349747E+02 -0.18000886622E+01  0.34462900019E+02  0.36820927458E+02  0.00000000000E+00 0.  1.
         11    1    4    4    0    0  0.28755723861E+01  0.45502024153E+01 -0.34575775692E+01  0.63975074425E+01  0.51100000000E-03 0.  1.
        -11    1    4    4    0    0 -0.42127698246E+01  0.97645462200E+01  0.20219099031E+01  0.10825059464E+02  0.51100000000E-03 0. -1.
         12    1    4    4    0    0 -0.11502152309E+02 -0.12514659973E+02 -0.33027232353E+02  0.37144505636E+02  0.00000000000E+00 0. -1.
</event>
<event>
 8    1  0.1262344E-006  0.9118800E+02  0.7816164E-02  0.1184000E+00
        -11   -1    0    0    0    0  0.00000000000E+00  0.00000000000E+00  0.45593999997E+02  0.45594000000E+02  0.51100000000E-03 0.  1.
         11   -1    0    0    0    0 -0.00000000000E+00 -0.00000000000E+00 -0.45593999997E+02  0.45594000000E+02  0.51100000000E-03 0. -1.
         23    2    1    2    0    0  0.71054273576E-14  0.00000000000E+00  0.00000000000E+00  0.91188000000E+02  0.91188000000E+02 0.  0.
    9900012    2    3    3    0    0 -0.34863301804E+02 -0.24287596599E+01  0.11594418186E+02  0.54367092634E+02  0.40000019278E+02 0.  0.
         12    1    3    3    0    0  0.34863301804E+02  0.24287596599E+01 -0.11594418186E+02  0.36820907366E+02  0.00000000000E+00 0. -1.
         11    1    4    4    0    0 -0.24739054021E+02 -0.68757579555E+01  0.83311214123E+01  0.26994525845E+02  0.51100000000E-03 0. -1.
        -11    1    4    4    0    0 -0.17776499273E+02 -0.86775680018E+00  0.12559163751E+01  0.17841924069E+02  0.51100000000E-03 0.  1.
         12    1    4    4    0    0  0.76522514905E+01  0.53147550958E+01  0.20073803989E+01  0.95306427206E+01  0.00000000000E+00 0. -1.
</event>
<event>
 8    1  0.1262344E-006  0.9118800E+02  0.7816164E-02  0.1184000E+00
        -11   -1    0    0    0    0  0.00000000000E+00  0.00000000000E+00  0.45593999997E+02  0.45594000000E+02  0.51100000000E-03 0. -1.
         11   -1    0    0    0    0 -0.00000000000E+00 -0.00000000000E+00 -0.45593999997E+02  0.45594000000E+02  0.51100000000E-03 0.  1.
         23    2    1    2    0    0  0.00000000000E+00  0.00000000000E+00 -0.44408920985E-15  0.91188000000E+02  0.91188000000E+02 0.  0.
    9900012    2    3    3    0    0  0.53709121424E+01  0.36369244230E+02 -0.20518486451E+01  0.54367099604E+02  0.40000035167E+02 0.  0.
        -12    1    3    3    0    0 -0.53709121424E+01 -0.36369244230E+02  0.20518486451E+01  0.36820900396E+02  0.00000000000E+00 0.  1.
         11    1    4    4    0    0 -0.74847590810E+01 -0.25777168635E+01 -0.17768808593E+01  0.81131713021E+01  0.51100000000E-03 0. -1.
        -11    1    4    4    0    0  0.15030830358E+02  0.34605552311E+02 -0.65772650941E+01  0.38297918068E+02  0.51100000000E-03 0.  1.
         12    1    4    4    0    0 -0.21751591341E+01  0.43414087824E+01  0.63022973082E+01  0.79560102335E+01  0.00000000000E+00 0. -1.
</event>
<event>
 8    1  0.1262344E-006  0.9118800E+02  0.7816164E-02  0.1184000E+00
        -11   -1    0    0    0    0  0.00000000000E+00  0.00000000000E+00  0.45593999997E+02  0.45594000000E+02  0.51100000000E-03 0. -1.
         11   -1    0    0    0    0 -0.00000000000E+00 -0.00000000000E+00 -0.45593999997E+02  0.45594000000E+02  0.51100000000E-03 0.  1.
         23    2    1    2    0    0 -0.35527136788E-14  0.35527136788E-14 -0.55511151231E-16  0.91188000000E+02  0.91188000000E+02 0.  0.
    9900012    2    3    3    0    0 -0.21936040903E+02 -0.29571004115E+02 -0.38113540151E+00  0.54367089649E+02  0.40000012472E+02 0.  0.
        -12    1    3    3    0    0  0.21936040903E+02  0.29571004115E+02  0.38113540151E+00  0.36820910351E+02  0.00000000000E+00 0.  1.
         11    1    4    4    0    0 -0.28134109957E+02 -0.22943337529E+02  0.84751549675E+00  0.36313126592E+02  0.51100000000E-03 0. -1.
        -11    1    4    4    0    0  0.24701766166E+01  0.39587764967E+01 -0.43762867359E+01  0.63973095692E+01  0.51100000000E-03 0.  1.
         12    1    4    4    0    0  0.37278924374E+01 -0.10586443083E+02  0.31476358376E+01  0.11656653488E+02  0.00000000000E+00 0. -1.
</event>
<event>
 8    1  0.1262344E-006  0.9118800E+02  0.7816164E-02  0.1184000E+00
        -11   -1    0    0    0    0  0.00000000000E+00  0.00000000000E+00  0.45593999997E+02  0.45594000000E+02  0.51100000000E-03 0.  1.
         11   -1    0    0    0    0 -0.00000000000E+00 -0.00000000000E+00 -0.45593999997E+02  0.45594000000E+02  0.51100000000E-03 0. -1.
         23    2    1    2    0    0 -0.35527136788E-14  0.00000000000E+00 -0.35527136788E-14  0.91188000000E+02  0.91188000000E+02 0.  0.
    9900012    2    3    3    0    0  0.25490391956E+02  0.10796042731E+02 -0.24278889185E+02  0.54367094515E+02  0.40000023565E+02 0.  0.
        -12    1    3    3    0    0 -0.25490391956E+02 -0.10796042731E+02  0.24278889185E+02  0.36820905485E+02  0.00000000000E+00 0.  1.
         11    1    4    4    0    0  0.32188811929E+02  0.20152802471E+01 -0.26439769684E+02  0.41704225074E+02  0.51100000000E-03 0. -1.
        -11    1    4    4    0    0 -0.12212998033E+01  0.63819005001E+01  0.11335815060E+01  0.65958497932E+01  0.51100000000E-03 0.  1.
         12    1    4    4    0    0 -0.54771201700E+01  0.23988619842E+01  0.10272989929E+01  0.60670196470E+01  0.00000000000E+00 0. -1.
</event>
<event>
 8    1  0.1262344E-006  0.9118800E+02  0.7816164E-02  0.1184000E+00
        -11   -1    0    0    0    0  0.00000000000E+00  0.00000000000E+00  0.45593999997E+02  0.45594000000E+02  0.51100000000E-03 0.  1.
         11   -1    0    0    0    0 -0.00000000000E+00 -0.00000000000E+00 -0.45593999997E+02  0.45594000000E+02  0.51100000000E-03 0. -1.
         23    2    1    2    0    0  0.00000000000E+00  0.44408920985E-15  0.00000000000E+00  0.91188000000E+02  0.91188000000E+02 0.  0.
    9900012    2    3    3    0    0 -0.67837784567E+01 -0.87688534271E+00 -0.36179988044E+02  0.54367080499E+02  0.39999991614E+02 0.  0.
        -12    1    3    3    0    0  0.67837784567E+01  0.87688534271E+00  0.36179988044E+02  0.36820919501E+02  0.00000000000E+00 0.  1.
         11    1    4    4    0    0  0.30742473085E+01  0.13277980145E+01  0.58165294894E+01  0.67116361376E+01  0.51100000000E-03 0. -1.
        -11    1    4    4    0    0 -0.14633232047E+02 -0.37383523016E+01 -0.19818886270E+02  0.24917764974E+02  0.51100000000E-03 0.  1.
         12    1    4    4    0    0  0.47752062820E+01  0.15336689444E+01 -0.22177631263E+02  0.22737679387E+02  0.00000000000E+00 0. -1.
</event>
<event>
 8    1  0.1262344E-006  0.9118800E+02  0.7816164E-02  0.1184000E+00
        -11   -1    0    0    0    0  0.00000000000E+00  0.00000000000E+00  0.45593999997E+02  0.45594000000E+02  0.51100000000E-03 0. -1.
         11   -1    0    0    0    0 -0.00000000000E+00 -0.00000000000E+00 -0.45593999997E+02  0.45594000000E+02  0.51100000000E-03 0.  1.
         23    2    1    2    0    0  0.35527136788E-14  0.88817841970E-15  0.00000000000E+00  0.91188000000E+02  0.91188000000E+02 0.  0.
    9900012    2    3    3    0    0 -0.21987575885E+02 -0.61440288519E+01 -0.28889037840E+02  0.54367094374E+02  0.40000023244E+02 0.  0.
         12    1    3    3    0    0  0.21987575885E+02  0.61440288519E+01  0.28889037840E+02  0.36820905626E+02  0.00000000000E+00 0. -1.
         11    1    4    4    0    0 -0.28272128715E+01  0.67479692145E+01 -0.21465724177E+01  0.76246963576E+01  0.51100000000E-03 0. -1.
        -11    1    4    4    0    0  0.39315643625E+01 -0.86620140088E+01  0.19082023193E+01  0.97020060491E+01  0.51100000000E-03 0.  1.
         12    1    4    4    0    0 -0.23091927376E+02 -0.42299840577E+01 -0.28650667741E+02  0.37040391967E+02  0.00000000000E+00 0. -1.
</event>
<event>
 8    1  0.1262344E-006  0.9118800E+02  0.7816164E-02  0.1184000E+00
        -11   -1    0    0    0    0  0.00000000000E+00  0.00000000000E+00  0.45593999997E+02  0.45594000000E+02  0.51100000000E-03 0.  1.
         11   -1    0    0    0    0 -0.00000000000E+00 -0.00000000000E+00 -0.45593999997E+02  0.45594000000E+02  0.51100000000E-03 0. -1.
         23    2    1    2    0    0  0.00000000000E+00  0.00000000000E+00  0.44408920985E-15  0.91188000000E+02  0.91188000000E+02 0.  0.
    9900012    2    3    3    0    0 -0.28050040488E+02  0.23774419695E+02  0.19370805935E+01  0.54367080886E+02  0.39999992495E+02 0.  0.
        -12    1    3    3    0    0  0.28050040488E+02 -0.23774419695E+02 -0.19370805935E+01  0.36820919114E+02  0.00000000000E+00 0.  1.
         11    1    4    4    0    0 -0.72139205618E+01  0.35778980627E+01  0.44052627921E+00  0.80644942856E+01  0.51100000000E-03 0. -1.
        -11    1    4    4    0    0 -0.23947021342E+02 -0.16550176052E+01  0.29402675450E+01  0.24183549945E+02  0.51100000000E-03 0.  1.
        -12    1    4    4    0    0  0.31109014163E+01  0.21851539237E+02 -0.14437132307E+01  0.22119036655E+02  0.00000000000E+00 0.  1.
</event>
<event>
 8    1  0.1262344E-006  0.9118800E+02  0.7816164E-02  0.1184000E+00
        -11   -1    0    0    0    0  0.00000000000E+00  0.00000000000E+00  0.45593999997E+02  0.45594000000E+02  0.51100000000E-03 0. -1.
         11   -1    0    0    0    0 -0.00000000000E+00 -0.00000000000E+00 -0.45593999997E+02  0.45594000000E+02  0.51100000000E-03 0.  1.
         23    2    1    2    0    0 -0.35527136788E-14  0.00000000000E+00  0.00000000000E+00  0.91188000000E+02  0.91188000000E+02 0.  0.
    9900012    2    3    3    0    0  0.25720211807E+02 -0.85877088537E+01  0.24910061726E+02  0.54366956914E+02  0.39999709876E+02 0.  0.
        -12    1    3    3    0    0 -0.25720211807E+02  0.85877088537E+01 -0.24910061726E+02  0.36821043086E+02  0.00000000000E+00 0.  1.
         11    1    4    4    0    0  0.29675840562E+02  0.41397586344E+01  0.26844133749E+02  0.40229350376E+02  0.51100000000E-03 0. -1.
        -11    1    4    4    0    0 -0.21454363244E+01 -0.39826863316E+01  0.11883894743E+01  0.46772809667E+01  0.51100000000E-03 0.  1.
         12    1    4    4    0    0 -0.18101924305E+01 -0.87447811566E+01 -0.31224614981E+01  0.94603255715E+01  0.00000000000E+00 0. -1.
</event>
<event>
 8    1  0.1262344E-006  0.9118800E+02  0.7816164E-02  0.1184000E+00
        -11   -1    0    0    0    0  0.00000000000E+00  0.00000000000E+00  0.45593999997E+02  0.45594000000E+02  0.51100000000E-03 0.  1.
         11   -1    0    0    0    0 -0.00000000000E+00 -0.00000000000E+00 -0.45593999997E+02  0.45594000000E+02  0.51100000000E-03 0. -1.
         23    2    1    2    0    0  0.17763568394E-14  0.44408920985E-15  0.00000000000E+00  0.91188000000E+02  0.91188000000E+02 0.  0.
    9900012    2    3    3    0    0  0.11249112035E+02  0.11703835142E+01 -0.35040949367E+02  0.54367075898E+02  0.39999981126E+02 0.  0.
        -12    1    3    3    0    0 -0.11249112035E+02 -0.11703835142E+01  0.35040949367E+02  0.36820924102E+02  0.00000000000E+00 0.  1.
         11    1    4    4    0    0  0.72194148576E+01  0.15158513202E+02 -0.14741395712E+02  0.22342990426E+02  0.51100000000E-03 0. -1.
        -11    1    4    4    0    0  0.28591437692E+01  0.40811166251E+01 -0.10049525155E+02  0.11217092854E+02  0.51100000000E-03 0.  1.
         12    1    4    4    0    0  0.11705534084E+01 -0.18069246312E+02 -0.10250028500E+02  0.20806992619E+02  0.00000000000E+00 0. -1.
</event>
<event>
 8    1  0.1262344E-006  0.9118800E+02  0.7816164E-02  0.1184000E+00
        -11   -1    0    0    0    0  0.00000000000E+00  0.00000000000E+00  0.45593999997E+02  0.45594000000E+02  0.51100000000E-03 0.  1.
         11   -1    0    0    0    0 -0.00000000000E+00 -0.00000000000E+00 -0.45593999997E+02  0.45594000000E+02  0.51100000000E-03 0. -1.
         23    2    1    2    0    0 -0.27755575616E-15 -0.35527136788E-14  0.00000000000E+00  0.91188000000E+02  0.91188000000E+02 0.  0.
    9900012    2    3    3    0    0 -0.45481615556E+00  0.26405447966E+02 -0.25657849574E+02  0.54367084954E+02  0.40000001770E+02 0.  0.
        -12    1    3    3    0    0  0.45481615556E+00 -0.26405447966E+02  0.25657849574E+02  0.36820915046E+02  0.00000000000E+00 0.  1.
         11    1    4    4    0    0 -0.21910151963E+01  0.32208190603E+02 -0.88811081475E+01  0.33481967859E+02  0.51100000000E-03 0. -1.
        -11    1    4    4    0    0  0.46415524192E+00 -0.64070217884E+01 -0.30939955959E+01  0.71300895713E+01  0.51100000000E-03 0.  1.
         12    1    4    4    0    0  0.12720437988E+01  0.60427915165E+00 -0.13682745831E+02  0.13755027524E+02  0.00000000000E+00 0. -1.
</event>
<event>
 8    1  0.1262344E-006  0.9118800E+02  0.7816164E-02  0.1184000E+00
        -11   -1    0    0    0    0  0.00000000000E+00  0.00000000000E+00  0.45593999997E+02  0.45594000000E+02  0.51100000000E-03 0. -1.
         11   -1    0    0    0    0 -0.00000000000E+00 -0.00000000000E+00 -0.45593999997E+02  0.45594000000E+02  0.51100000000E-03 0.  1.
         23    2    1    2    0    0  0.00000000000E+00  0.88817841970E-15  0.44408920985E-15  0.91188000000E+02  0.91188000000E+02 0.  0.
    9900012    2    3    3    0    0 -0.35854475557E+02 -0.77950527077E+01 -0.30780704746E+01  0.54367071413E+02  0.39999970900E+02 0.  0.
         12    1    3    3    0    0  0.35854475557E+02  0.77950527077E+01  0.30780704746E+01  0.36820928587E+02  0.00000000000E+00 0. -1.
         11    1    4    4    0    0 -0.10174130346E+02 -0.86039525390E+01 -0.95173779422E+00  0.13358395588E+02  0.51100000000E-03 0. -1.
        -11    1    4    4    0    0 -0.14205101870E+02  0.11134847374E+02 -0.12898797733E+02  0.22184425357E+02  0.51100000000E-03 0.  1.
         12    1    4    4    0    0 -0.11475243341E+02 -0.10325947543E+02  0.10772465053E+02  0.18824250469E+02  0.00000000000E+00 0. -1.
</event>
<event>
 8    1  0.1262344E-006  0.9118800E+02  0.7816164E-02  0.1184000E+00
        -11   -1    0    0    0    0  0.00000000000E+00  0.00000000000E+00  0.45593999997E+02  0.45594000000E+02  0.51100000000E-03 0.  1.
         11   -1    0    0    0    0 -0.00000000000E+00 -0.00000000000E+00 -0.45593999997E+02  0.45594000000E+02  0.51100000000E-03 0. -1.
         23    2    1    2    0    0  0.44408920985E-15  0.00000000000E+00 -0.35527136788E-14  0.91188000000E+02  0.91188000000E+02 0.  0.
    9900012    2    3    3    0    0 -0.20773121776E+01 -0.22384914493E+02  0.29161281877E+02  0.54367082257E+02  0.39999995622E+02 0.  0.
         12    1    3    3    0    0  0.20773121776E+01  0.22384914493E+02 -0.29161281877E+02  0.36820917743E+02  0.00000000000E+00 0. -1.
         11    1    4    4    0    0  0.40225103206E+01 -0.91417201655E+01 -0.81542859209E+01  0.12893564907E+02  0.51100000000E-03 0. -1.
        -11    1    4    4    0    0 -0.43039060347E+01 -0.28517143727E+01  0.23677621503E+02  0.24233977023E+02  0.51100000000E-03 0.  1.
        -12    1    4    4    0    0 -0.17959164635E+01 -0.10391479955E+02  0.13637946294E+02  0.17239540328E+02  0.00000000000E+00 0.  1.
</event>
<event>
 8    1  0.1262344E-006  0.9118800E+02  0.7816164E-02  0.1184000E+00
        -11   -1    0    0    0    0  0.00000000000E+00  0.00000000000E+00  0.45593999997E+02  0.45594000000E+02  0.51100000000E-03 0. -1.
         11   -1    0    0    0    0 -0.00000000000E+00 -0.00000000000E+00 -0.45593999997E+02  0.45594000000E+02  0.51100000000E-03 0.  1.
         23    2    1    2    0    0  0.00000000000E+00  0.00000000000E+00  0.44408920985E-15  0.91188000000E+02  0.91188000000E+02 0.  0.
    9900012    2    3    3    0    0 -0.19277176264E+02 -0.31204563408E+02 -0.32316957171E+01  0.54367107025E+02  0.40000052086E+02 0.  0.
        -12    1    3    3    0    0  0.19277176264E+02  0.31204563408E+02  0.32316957171E+01  0.36820892975E+02  0.00000000000E+00 0.  1.
         11    1    4    4    0    0 -0.91144207160E+01 -0.11671157410E+02 -0.83311687171E+01  0.16991084507E+02  0.51100000000E-03 0. -1.
        -11    1    4    4    0    0 -0.94676910097E+01 -0.17742509806E+02 -0.97873696933E+01  0.22365742399E+02  0.51100000000E-03 0.  1.
         12    1    4    4    0    0 -0.69506453876E+00 -0.17908961920E+01  0.14886842693E+02  0.15010280119E+02  0.00000000000E+00 0. -1.
</event>
<event>
 8    1  0.1262344E-006  0.9118800E+02  0.7816164E-02  0.1184000E+00
        -11   -1    0    0    0    0  0.00000000000E+00  0.00000000000E+00  0.45593999997E+02  0.45594000000E+02  0.51100000000E-03 0. -1.
         11   -1    0    0    0    0 -0.00000000000E+00 -0.00000000000E+00 -0.45593999997E+02  0.45594000000E+02  0.51100000000E-03 0.  1.
         23    2    1    2    0    0  0.00000000000E+00  0.00000000000E+00  0.71054273576E-14  0.91188000000E+02  0.91188000000E+02 0.  0.
    9900012    2    3    3    0    0 -0.10615127656E+02 -0.10092587562E+02 -0.33782214467E+02  0.54367091903E+02  0.40000017610E+02 0.  0.
         12    1    3    3    0    0  0.10615127656E+02  0.10092587562E+02  0.33782214467E+02  0.36820908097E+02  0.00000000000E+00 0. -1.
         11    1    4    4    0    0 -0.93889214312E+01 -0.17465349227E+01 -0.16483718288E+02  0.19050333297E+02  0.51100000000E-03 0. -1.
        -11    1    4    4    0    0 -0.11226421743E+01 -0.17695982606E+01 -0.25057567762E+02  0.25145049331E+02  0.51100000000E-03 0.  1.
         12    1    4    4    0    0 -0.10356405031E+00 -0.65764543789E+01  0.77590715837E+01  0.10171709274E+02  0.00000000000E+00 0. -1.
</event>
<event>
 8    1  0.1262344E-006  0.9118800E+02  0.7816164E-02  0.1184000E+00
        -11   -1    0    0    0    0  0.00000000000E+00  0.00000000000E+00  0.45593999997E+02  0.45594000000E+02  0.51100000000E-03 0.  1.
         11   -1    0    0    0    0 -0.00000000000E+00 -0.00000000000E+00 -0.45593999997E+02  0.45594000000E+02  0.51100000000E-03 0. -1.
         23    2    1    2    0    0  0.88817841970E-15 -0.71054273576E-14  0.00000000000E+00  0.91188000000E+02  0.91188000000E+02 0.  0.
    9900012    2    3    3    0    0 -0.78488270575E+01 -0.34004917259E+02 -0.11740603218E+02  0.54367078666E+02  0.39999987434E+02 0.  0.
        -12    1    3    3    0    0  0.78488270575E+01  0.34004917259E+02  0.11740603218E+02  0.36820921334E+02  0.00000000000E+00 0.  1.
         11    1    4    4    0    0 -0.11964835721E+02 -0.14244995315E+02 -0.69200742439E+01  0.19848541840E+02  0.51100000000E-03 0. -1.
        -11    1    4    4    0    0 -0.57181053847E+01  0.48792307977E+01  0.19493329555E+00  0.75194163084E+01  0.51100000000E-03 0.  1.
         12    1    4    4    0    0  0.98341140484E+01 -0.24639152742E+02 -0.50154622692E+01  0.26999120518E+02  0.00000000000E+00 0. -1.
</event>
<event>
 8    1  0.1262344E-006  0.9118800E+02  0.7816164E-02  0.1184000E+00
        -11   -1    0    0    0    0  0.00000000000E+00  0.00000000000E+00  0.45593999997E+02  0.45594000000E+02  0.51100000000E-03 0. -1.
         11   -1    0    0    0    0 -0.00000000000E+00 -0.00000000000E+00 -0.45593999997E+02  0.45594000000E+02  0.51100000000E-03 0.  1.
         23    2    1    2    0    0 -0.44408920985E-15  0.00000000000E+00  0.00000000000E+00  0.91188000000E+02  0.91188000000E+02 0.  0.
    9900012    2    3    3    0    0 -0.33622752879E+01  0.35753542272E+02  0.81338239866E+01  0.54367085117E+02  0.40000002142E+02 0.  0.
        -12    1    3    3    0    0  0.33622752879E+01 -0.35753542272E+02 -0.81338239866E+01  0.36820914883E+02  0.00000000000E+00 0.  1.
         11    1    4    4    0    0  0.44678684264E+01  0.10597035197E+02 -0.35300292168E+01  0.12029967156E+02  0.51100000000E-03 0. -1.
        -11    1    4    4    0    0  0.17237350956E+00 -0.70824210664E+01  0.43846354287E+01  0.83315922183E+01  0.51100000000E-03 0.  1.
        -12    1    4    4    0    0 -0.80025172239E+01  0.32238928142E+02  0.72792177746E+01  0.34005525743E+02  0.00000000000E+00 0.  1.
</event>
<event>
 8    1  0.1262344E-006  0.9118800E+02  0.7816164E-02  0.1184000E+00
        -11   -1    0    0    0    0  0.00000000000E+00  0.00000000000E+00  0.45593999997E+02  0.45594000000E+02  0.51100000000E-03 0. -1.
         11   -1    0    0    0    0 -0.00000000000E+00 -0.00000000000E+00 -0.45593999997E+02  0.45594000000E+02  0.51100000000E-03 0.  1.
         23    2    1    2    0    0  0.35527136788E-14  0.35527136788E-14 -0.88817841970E-15  0.91188000000E+02  0.91188000000E+02 0.  0.
    9900012    2    3    3    0    0 -0.21370460588E+02 -0.29941013066E+02  0.16184446343E+01  0.54367079151E+02  0.39999988540E+02 0.  0.
        -12    1    3    3    0    0  0.21370460588E+02  0.29941013066E+02 -0.16184446343E+01  0.36820920849E+02  0.00000000000E+00 0.  1.
         11    1    4    4    0    0 -0.79337792304E+01  0.54867322656E+01  0.54268802857E+01  0.11067976948E+02  0.51100000000E-03 0.  1.
        -11    1    4    4    0    0 -0.35005774112E+01 -0.13299230352E+02  0.84293187819E+01  0.16130002652E+02  0.51100000000E-03 0. -1.
        -12    1    4    4    0    0 -0.99361039466E+01 -0.22128514980E+02 -0.12237754433E+02  0.27169099551E+02  0.00000000000E+00 0.  1.
</event>
<event>
 8    1  0.1262344E-006  0.9118800E+02  0.7816164E-02  0.1184000E+00
        -11   -1    0    0    0    0  0.00000000000E+00  0.00000000000E+00  0.45593999997E+02  0.45594000000E+02  0.51100000000E-03 0.  1.
         11   -1    0    0    0    0 -0.00000000000E+00 -0.00000000000E+00 -0.45593999997E+02  0.45594000000E+02  0.51100000000E-03 0. -1.
         23    2    1    2    0    0  0.00000000000E+00  0.00000000000E+00  0.00000000000E+00  0.91188000000E+02  0.91188000000E+02 0.  0.
    9900012    2    3    3    0    0  0.85915502901E+01  0.19470726739E+02  0.30047558187E+02  0.54367086253E+02  0.40000004732E+02 0.  0.
         12    1    3    3    0    0 -0.85915502901E+01 -0.19470726739E+02 -0.30047558187E+02  0.36820913747E+02  0.00000000000E+00 0. -1.
         11    1    4    4    0    0  0.71378500544E+00  0.15411121620E+01  0.31438947039E+02  0.31484788501E+02  0.51100000000E-03 0. -1.
        -11    1    4    4    0    0 -0.17919712016E+01  0.10347270026E+02  0.11765171931E+00  0.10501952198E+02  0.51100000000E-03 0.  1.
         12    1    4    4    0    0  0.96697364862E+01  0.75823445508E+01 -0.15090405718E+01  0.12380345554E+02  0.00000000000E+00 0. -1.
</event>
<event>
 8    1  0.1262344E-006  0.9118800E+02  0.7816164E-02  0.1184000E+00
        -11   -1    0    0    0    0  0.00000000000E+00  0.00000000000E+00  0.45593999997E+02  0.45594000000E+02  0.51100000000E-03 0. -1.
         11   -1    0    0    0    0 -0.00000000000E+00 -0.00000000000E+00 -0.45593999997E+02  0.45594000000E+02  0.51100000000E-03 0.  1.
         23    2    1    2    0    0  0.17763568394E-14 -0.85521867366E-15  0.00000000000E+00  0.91188000000E+02  0.91188000000E+02 0.  0.
    9900012    2    3    3    0    0  0.11085329876E+02 -0.92267071200E-02  0.35112630139E+02  0.54367062765E+02  0.39999951185E+02 0.  0.
        -12    1    3    3    0    0 -0.11085329876E+02  0.92267071200E-02 -0.35112630139E+02  0.36820937235E+02  0.00000000000E+00 0.  1.
         11    1    4    4    0    0  0.66196746407E+01  0.52602349415E+00  0.27548218069E+02  0.28337274253E+02  0.51100000000E-03 0. -1.
        -11    1    4    4    0    0 -0.85305715161E+01  0.32172155330E+01 -0.21607203072E+01  0.93696231880E+01  0.51100000000E-03 0.  1.
        -12    1    4    4    0    0  0.12996226752E+02 -0.37524657343E+01  0.97251323775E+01  0.16660165324E+02  0.00000000000E+00 0.  1.
</event>
<event>
 8    1  0.1262344E-006  0.9118800E+02  0.7816164E-02  0.1184000E+00
        -11   -1    0    0    0    0  0.00000000000E+00  0.00000000000E+00  0.45593999997E+02  0.45594000000E+02  0.51100000000E-03 0.  1.
         11   -1    0    0    0    0 -0.00000000000E+00 -0.00000000000E+00 -0.45593999997E+02  0.45594000000E+02  0.51100000000E-03 0. -1.
         23    2    1    2    0    0  0.00000000000E+00 -0.35527136788E-14  0.00000000000E+00  0.91188000000E+02  0.91188000000E+02 0.  0.
    9900012    2    3    3    0    0  0.25465922092E+02 -0.20374774428E+02  0.17091960499E+02  0.54367085635E+02  0.40000003321E+02 0.  0.
        -12    1    3    3    0    0 -0.25465922092E+02  0.20374774428E+02 -0.17091960499E+02  0.36820914365E+02  0.00000000000E+00 0.  1.
         11    1    4    4    0    0  0.59886055815E+01  0.69377798158E+00 -0.55238727461E+01  0.81766677244E+01  0.51100000000E-03 0. -1.
        -11    1    4    4    0    0 -0.56950218595E+01  0.59683616101E+00 -0.46626035582E+00  0.57451619963E+01  0.51100000000E-03 0.  1.
        -12    1    4    4    0    0  0.25172338370E+02 -0.21665388571E+02  0.23082093601E+02  0.40445255914E+02  0.00000000000E+00 0.  1.
</event>
<event>
 8    1  0.1262344E-006  0.9118800E+02  0.7816164E-02  0.1184000E+00
        -11   -1    0    0    0    0  0.00000000000E+00  0.00000000000E+00  0.45593999997E+02  0.45594000000E+02  0.51100000000E-03 0.  1.
         11   -1    0    0    0    0 -0.00000000000E+00 -0.00000000000E+00 -0.45593999997E+02  0.45594000000E+02  0.51100000000E-03 0. -1.
         23    2    1    2    0    0  0.00000000000E+00  0.00000000000E+00  0.00000000000E+00  0.91188000000E+02  0.91188000000E+02 0.  0.
    9900012    2    3    3    0    0  0.23534029399E+02 -0.21178805020E+02  0.18798595924E+02  0.54367088407E+02  0.40000009642E+02 0.  0.
         12    1    3    3    0    0 -0.23534029399E+02  0.21178805020E+02 -0.18798595924E+02  0.36820911593E+02  0.00000000000E+00 0. -1.
         11    1    4    4    0    0  0.16883808795E+01 -0.10351396526E+02 -0.81685935013E+01  0.13293906878E+02  0.51100000000E-03 0. -1.
        -11    1    4    4    0    0 -0.25079790169E+01 -0.47242544772E+01  0.21306639027E+01  0.57574532601E+01  0.51100000000E-03 0.  1.
        -12    1    4    4    0    0  0.24353627536E+02 -0.61031540167E+01  0.24836525523E+02  0.35315728269E+02  0.00000000000E+00 0.  1.
</event>
<event>
 8    1  0.1262344E-006  0.9118800E+02  0.7816164E-02  0.1184000E+00
        -11   -1    0    0    0    0  0.00000000000E+00  0.00000000000E+00  0.45593999997E+02  0.45594000000E+02  0.51100000000E-03 0.  1.
         11   -1    0    0    0    0 -0.00000000000E+00 -0.00000000000E+00 -0.45593999997E+02  0.45594000000E+02  0.51100000000E-03 0. -1.
         23    2    1    2    0    0 -0.71054273576E-14 -0.35527136788E-14  0.17763568394E-14  0.91188000000E+02  0.91188000000E+02 0.  0.
    9900012    2    3    3    0    0 -0.34085631410E+02 -0.10876543336E+02  0.86974564232E+01  0.54367147053E+02  0.40000143335E+02 0.  0.
         12    1    3    3    0    0  0.34085631410E+02  0.10876543336E+02 -0.86974564232E+01  0.36820852947E+02  0.00000000000E+00 0. -1.
         11    1    4    4    0    0 -0.19956219410E+02 -0.16048141719E+02  0.45808848558E+01  0.26014958237E+02  0.51100000000E-03 0.  1.
        -11    1    4    4    0    0  0.62814942784E+00 -0.60478520535E+01 -0.48326865534E+01  0.77669779032E+01  0.51100000000E-03 0. -1.
        -12    1    4    4    0    0 -0.14757561428E+02  0.11219450436E+02  0.89492581209E+01  0.20585210912E+02  0.00000000000E+00 0.  1.
</event>
<event>
 8    1  0.1262344E-006  0.9118800E+02  0.7816164E-02  0.1184000E+00
        -11   -1    0    0    0    0  0.00000000000E+00  0.00000000000E+00  0.45593999997E+02  0.45594000000E+02  0.51100000000E-03 0.  1.
         11   -1    0    0    0    0 -0.00000000000E+00 -0.00000000000E+00 -0.45593999997E+02  0.45594000000E+02  0.51100000000E-03 0. -1.
         23    2    1    2    0    0 -0.44408920985E-15  0.00000000000E+00  0.00000000000E+00  0.91188000000E+02  0.91188000000E+02 0.  0.
    9900012    2    3    3    0    0  0.24116138131E+01  0.96266812024E+01  0.35458299841E+02  0.54367083393E+02  0.39999998212E+02 0.  0.
         12    1    3    3    0    0 -0.24116138131E+01 -0.96266812024E+01 -0.35458299841E+02  0.36820916607E+02  0.00000000000E+00 0. -1.
         11    1    4    4    0    0  0.60145397660E+01  0.80296706979E+01  0.18998307176E+01  0.10210761829E+02  0.51100000000E-03 0. -1.
        -11    1    4    4    0    0 -0.63737015768E+01  0.12838962719E+02  0.87880956841E+01  0.16813496409E+02  0.51100000000E-03 0.  1.
        -12    1    4    4    0    0  0.27707756238E+01 -0.11241952215E+02  0.24770373439E+02  0.27342825155E+02  0.00000000000E+00 0.  1.
</event>
<event>
 8    1  0.1262344E-006  0.9118800E+02  0.7816164E-02  0.1184000E+00
        -11   -1    0    0    0    0  0.00000000000E+00  0.00000000000E+00  0.45593999997E+02  0.45594000000E+02  0.51100000000E-03 0. -1.
         11   -1    0    0    0    0 -0.00000000000E+00 -0.00000000000E+00 -0.45593999997E+02  0.45594000000E+02  0.51100000000E-03 0.  1.
         23    2    1    2    0    0  0.00000000000E+00 -0.17763568394E-14 -0.44408920985E-15  0.91188000000E+02  0.91188000000E+02 0.  0.
    9900012    2    3    3    0    0 -0.33208380699E+02 -0.15705271450E+02  0.25180115318E+01  0.54366912536E+02  0.39999608705E+02 0.  0.
         12    1    3    3    0    0  0.33208380699E+02  0.15705271450E+02 -0.25180115318E+01  0.36821087464E+02  0.00000000000E+00 0. -1.
         11    1    4    4    0    0 -0.17684375291E+02 -0.17481664264E+02 -0.65959367480E+01  0.25726486287E+02  0.51100000000E-03 0. -1.
        -11    1    4    4    0    0  0.93913585687E+00  0.10121865828E+01 -0.60737422094E+01  0.62287111446E+01  0.51100000000E-03 0.  1.
         12    1    4    4    0    0 -0.16463141265E+02  0.76420623044E+00  0.15187690489E+02  0.22411715103E+02  0.00000000000E+00 0. -1.
</event>
<event>
 8    1  0.1262344E-006  0.9118800E+02  0.7816164E-02  0.1184000E+00
        -11   -1    0    0    0    0  0.00000000000E+00  0.00000000000E+00  0.45593999997E+02  0.45594000000E+02  0.51100000000E-03 0. -1.
         11   -1    0    0    0    0 -0.00000000000E+00 -0.00000000000E+00 -0.45593999997E+02  0.45594000000E+02  0.51100000000E-03 0.  1.
         23    2    1    2    0    0  0.17763568394E-14  0.71054273576E-14  0.00000000000E+00  0.91188000000E+02  0.91188000000E+02 0.  0.
    9900012    2    3    3    0    0 -0.14503964462E+02  0.33035133201E+02  0.73548870166E+01  0.54367090536E+02  0.40000014495E+02 0.  0.
         12    1    3    3    0    0  0.14503964462E+02 -0.33035133201E+02 -0.73548870166E+01  0.36820909464E+02  0.00000000000E+00 0. -1.
         11    1    4    4    0    0  0.89851906572E+01  0.65458910859E+01  0.94982572305E+01  0.14621875117E+02  0.51100000000E-03 0. -1.
        -11    1    4    4    0    0  0.16201659638E+00  0.98382088068E+01 -0.43046217445E+01  0.10739942762E+02  0.51100000000E-03 0.  1.
         12    1    4    4    0    0 -0.23651171716E+02  0.16651033308E+02  0.21612515306E+01  0.29005272658E+02  0.00000000000E+00 0. -1.
</event>
<event>
 8    1  0.1262344E-006  0.9118800E+02  0.7816164E-02  0.1184000E+00
        -11   -1    0    0    0    0  0.00000000000E+00  0.00000000000E+00  0.45593999997E+02  0.45594000000E+02  0.51100000000E-03 0. -1.
         11   -1    0    0    0    0 -0.00000000000E+00 -0.00000000000E+00 -0.45593999997E+02  0.45594000000E+02  0.51100000000E-03 0.  1.
         23    2    1    2    0    0  0.17763568394E-14 -0.35527136788E-14 -0.35527136788E-14  0.91188000000E+02  0.91188000000E+02 0.  0.
    9900012    2    3    3    0    0 -0.13000869981E+02 -0.23935372352E+02  0.24776123860E+02  0.54367068678E+02  0.39999964666E+02 0.  0.
        -12    1    3    3    0    0  0.13000869981E+02  0.23935372352E+02 -0.24776123860E+02  0.36820931322E+02  0.00000000000E+00 0.  1.
         11    1    4    4    0    0 -0.15582675363E+02  0.49965949234E+01  0.67329068749E+01  0.17695134008E+02  0.51100000000E-03 0. -1.
        -11    1    4    4    0    0  0.20405581512E+01  0.30867477226E+00 -0.39213854985E+00  0.21006976429E+01  0.51100000000E-03 0.  1.
         12    1    4    4    0    0  0.54124723114E+00 -0.29240642048E+02  0.18435355535E+02  0.34571237028E+02  0.00000000000E+00 0. -1.
</event>
<event>
 8    1  0.1262344E-006  0.9118800E+02  0.7816164E-02  0.1184000E+00
        -11   -1    0    0    0    0  0.00000000000E+00  0.00000000000E+00  0.45593999997E+02  0.45594000000E+02  0.51100000000E-03 0. -1.
         11   -1    0    0    0    0 -0.00000000000E+00 -0.00000000000E+00 -0.45593999997E+02  0.45594000000E+02  0.51100000000E-03 0.  1.
         23    2    1    2    0    0  0.00000000000E+00  0.00000000000E+00  0.00000000000E+00  0.91188000000E+02  0.91188000000E+02 0.  0.
    9900012    2    3    3    0    0  0.26695243820E+02  0.62402190084E+01  0.24580573406E+02  0.54367068930E+02  0.39999965240E+02 0.  0.
        -12    1    3    3    0    0 -0.26695243820E+02 -0.62402190084E+01 -0.24580573406E+02  0.36820931070E+02  0.00000000000E+00 0.  1.
         11    1    4    4    0    0  0.60146171349E+01  0.30782787681E+01  0.17842539511E+02  0.19078984143E+02  0.51100000000E-03 0. -1.
        -11    1    4    4    0    0 -0.23357727231E+01 -0.46740702183E+01 -0.59039450790E+01  0.78841191250E+01  0.51100000000E-03 0.  1.
        -12    1    4    4    0    0  0.23016399409E+02  0.78360104586E+01  0.12641978974E+02  0.27403965662E+02  0.00000000000E+00 0.  1.
</event>
<event>
 8    1  0.1262344E-006  0.9118800E+02  0.7816164E-02  0.1184000E+00
        -11   -1    0    0    0    0  0.00000000000E+00  0.00000000000E+00  0.45593999997E+02  0.45594000000E+02  0.51100000000E-03 0.  1.
         11   -1    0    0    0    0 -0.00000000000E+00 -0.00000000000E+00 -0.45593999997E+02  0.45594000000E+02  0.51100000000E-03 0. -1.
         23    2    1    2    0    0  0.71054273576E-14  0.00000000000E+00 -0.17763568394E-14  0.91188000000E+02  0.91188000000E+02 0.  0.
    9900012    2    3    3    0    0  0.33217250164E+02  0.14007220869E+02 -0.74960784527E+01  0.54367093750E+02  0.40000021821E+02 0.  0.
        -12    1    3    3    0    0 -0.33217250164E+02 -0.14007220869E+02  0.74960784527E+01  0.36820906250E+02  0.00000000000E+00 0.  1.
         11    1    4    4    0    0  0.60761232264E+01 -0.62916125873E+01 -0.11118501121E+02  0.14146544802E+02  0.51100000000E-03 0. -1.
        -11    1    4    4    0    0  0.89102359840E+01 -0.39184708512E+01  0.47901750930E+00  0.97455721812E+01  0.51100000000E-03 0.  1.
        -12    1    4    4    0    0  0.18230890953E+02  0.24217304308E+02  0.31434051587E+01  0.30474976766E+02  0.00000000000E+00 0.  1.
</event>
<event>
 8    1  0.1262344E-006  0.9118800E+02  0.7816164E-02  0.1184000E+00
        -11   -1    0    0    0    0  0.00000000000E+00  0.00000000000E+00  0.45593999997E+02  0.45594000000E+02  0.51100000000E-03 0. -1.
         11   -1    0    0    0    0 -0.00000000000E+00 -0.00000000000E+00 -0.45593999997E+02  0.45594000000E+02  0.51100000000E-03 0.  1.
         23    2    1    2    0    0  0.00000000000E+00  0.00000000000E+00  0.00000000000E+00  0.91188000000E+02  0.91188000000E+02 0.  0.
    9900012    2    3    3    0    0  0.16174632692E+02  0.28705847197E+02  0.16435700292E+02  0.54367127521E+02  0.40000098809E+02 0.  0.
        -12    1    3    3    0    0 -0.16174632692E+02 -0.28705847197E+02 -0.16435700292E+02  0.36820872479E+02  0.00000000000E+00 0.  1.
         11    1    4    4    0    0  0.58105864916E+01  0.25913891029E+02  0.12043775964E+02  0.29160679062E+02  0.51100000000E-03 0. -1.
        -11    1    4    4    0    0 -0.36276290717E+01 -0.68545336792E+01  0.22640284600E+01  0.80789943539E+01  0.51100000000E-03 0.  1.
        -12    1    4    4    0    0  0.13991675272E+02  0.96464898477E+01  0.21278958682E+01  0.17127454105E+02  0.00000000000E+00 0.  1.
</event>
<event>
 8    1  0.1262344E-006  0.9118800E+02  0.7816164E-02  0.1184000E+00
        -11   -1    0    0    0    0  0.00000000000E+00  0.00000000000E+00  0.45593999997E+02  0.45594000000E+02  0.51100000000E-03 0.  1.
         11   -1    0    0    0    0 -0.00000000000E+00 -0.00000000000E+00 -0.45593999997E+02  0.45594000000E+02  0.51100000000E-03 0. -1.
         23    2    1    2    0    0 -0.17763568394E-14  0.00000000000E+00  0.88817841970E-15  0.91188000000E+02  0.91188000000E+02 0.  0.
    9900012    2    3    3    0    0 -0.14347737387E+02 -0.33091484971E+02  0.74078996119E+01  0.54367069507E+02  0.39999966554E+02 0.  0.
         12    1    3    3    0    0  0.14347737387E+02  0.33091484971E+02 -0.74078996119E+01  0.36820930493E+02  0.00000000000E+00 0. -1.
         11    1    4    4    0    0 -0.78232658222E+01 -0.49764542028E+01 -0.13879251079E+02  0.16691380869E+02  0.51100000000E-03 0. -1.
        -11    1    4    4    0    0 -0.87037691844E+01 -0.13477255741E+02  0.13415457457E+02  0.20913309622E+02  0.51100000000E-03 0.  1.
         12    1    4    4    0    0  0.21792976194E+01 -0.14637775027E+02  0.78716932340E+01  0.16762379015E+02  0.00000000000E+00 0. -1.
</event>
<event>
 8    1  0.1262344E-006  0.9118800E+02  0.7816164E-02  0.1184000E+00
        -11   -1    0    0    0    0  0.00000000000E+00  0.00000000000E+00  0.45593999997E+02  0.45594000000E+02  0.51100000000E-03 0. -1.
         11   -1    0    0    0    0 -0.00000000000E+00 -0.00000000000E+00 -0.45593999997E+02  0.45594000000E+02  0.51100000000E-03 0.  1.
         23    2    1    2    0    0 -0.35527136788E-14  0.00000000000E+00  0.00000000000E+00  0.91188000000E+02  0.91188000000E+02 0.  0.
    9900012    2    3    3    0    0  0.16692637980E+02  0.14560555335E+02  0.29413015351E+02  0.54367090093E+02  0.40000013484E+02 0.  0.
        -12    1    3    3    0    0 -0.16692637980E+02 -0.14560555335E+02 -0.29413015351E+02  0.36820909907E+02  0.00000000000E+00 0.  1.
         11    1    4    4    0    0  0.16168054005E+01 -0.56365879932E+01  0.12692812014E+02  0.13981869009E+02  0.51100000000E-03 0. -1.
        -11    1    4    4    0    0  0.14248013105E+02  0.19102904952E+01  0.16758689129E+02  0.22079600286E+02  0.51100000000E-03 0.  1.
         12    1    4    4    0    0  0.82781947426E+00  0.18286852833E+02 -0.38485792647E-01  0.18305620797E+02  0.00000000000E+00 0. -1.
</event>
<event>
 8    1  0.1262344E-006  0.9118800E+02  0.7816164E-02  0.1184000E+00
        -11   -1    0    0    0    0  0.00000000000E+00  0.00000000000E+00  0.45593999997E+02  0.45594000000E+02  0.51100000000E-03 0.  1.
         11   -1    0    0    0    0 -0.00000000000E+00 -0.00000000000E+00 -0.45593999997E+02  0.45594000000E+02  0.51100000000E-03 0. -1.
         23    2    1    2    0    0 -0.71054273576E-14 -0.17763568394E-14 -0.22204460493E-15  0.91188000000E+02  0.91188000000E+02 0.  0.
    9900012    2    3    3    0    0 -0.36576343289E+02  0.41243378525E+01 -0.97168315852E+00  0.54367038317E+02  0.39999895451E+02 0.  0.
         12    1    3    3    0    0  0.36576343289E+02 -0.41243378525E+01  0.97168315852E+00  0.36820961683E+02  0.00000000000E+00 0. -1.
         11    1    4    4    0    0 -0.55292875885E+01  0.64222570418E+01 -0.14396976406E+02  0.16706026956E+02  0.51100000000E-03 0. -1.
        -11    1    4    4    0    0 -0.15662946339E+02 -0.93735930166E+01  0.69576910236E+01  0.19534625635E+02  0.51100000000E-03 0.  1.
        -12    1    4    4    0    0 -0.15384109361E+02  0.70756738272E+01  0.64676022242E+01  0.18126385726E+02  0.00000000000E+00 0.  1.
</event>
<event>
 8    1  0.1262344E-006  0.9118800E+02  0.7816164E-02  0.1184000E+00
        -11   -1    0    0    0    0  0.00000000000E+00  0.00000000000E+00  0.45593999997E+02  0.45594000000E+02  0.51100000000E-03 0. -1.
         11   -1    0    0    0    0 -0.00000000000E+00 -0.00000000000E+00 -0.45593999997E+02  0.45594000000E+02  0.51100000000E-03 0.  1.
         23    2    1    2    0    0  0.35527136788E-14 -0.35527136788E-14 -0.17763568394E-14  0.91188000000E+02  0.91188000000E+02 0.  0.
    9900012    2    3    3    0    0  0.25016473239E+02 -0.23159073594E+02 -0.13914499943E+02  0.54367082959E+02  0.39999997222E+02 0.  0.
        -12    1    3    3    0    0 -0.25016473239E+02  0.23159073594E+02  0.13914499943E+02  0.36820917041E+02  0.00000000000E+00 0.  1.
         11    1    4    4    0    0  0.17448883774E+02 -0.12374913474E+02  0.19397868642E+01  0.21479404130E+02  0.51100000000E-03 0. -1.
        -11    1    4    4    0    0  0.12232335487E+02  0.36527488133E+01 -0.32755766602E+01  0.13179605763E+02  0.51100000000E-03 0.  1.
        -12    1    4    4    0    0 -0.46647460213E+01 -0.14436908933E+02 -0.12578710147E+02  0.19708073065E+02  0.00000000000E+00 0.  1.
</event>
<event>
 8    1  0.1262344E-006  0.9118800E+02  0.7816164E-02  0.1184000E+00
        -11   -1    0    0    0    0  0.00000000000E+00  0.00000000000E+00  0.45593999997E+02  0.45594000000E+02  0.51100000000E-03 0.  1.
         11   -1    0    0    0    0 -0.00000000000E+00 -0.00000000000E+00 -0.45593999997E+02  0.45594000000E+02  0.51100000000E-03 0. -1.
         23    2    1    2    0    0  0.71054273576E-14  0.00000000000E+00  0.00000000000E+00  0.91188000000E+02  0.91188000000E+02 0.  0.
    9900012    2    3    3    0    0 -0.33590662445E+02 -0.11129060645E+02  0.10177925677E+02  0.54367098796E+02  0.40000033326E+02 0.  0.
        -12    1    3    3    0    0  0.33590662445E+02  0.11129060645E+02 -0.10177925677E+02  0.36820901204E+02  0.00000000000E+00 0.  1.
         11    1    4    4    0    0 -0.14788170147E+02  0.16161132068E+01  0.61598842884E+01  0.16101117132E+02  0.51100000000E-03 0. -1.
        -11    1    4    4    0    0 -0.26209538783E+02 -0.14236063618E+02  0.26001214735E+00  0.29827387367E+02  0.51100000000E-03 0.  1.
         12    1    4    4    0    0  0.74070464852E+01  0.14908897664E+01  0.37580292410E+01  0.84385942968E+01  0.00000000000E+00 0. -1.
</event>
<event>
 8    1  0.1262344E-006  0.9118800E+02  0.7816164E-02  0.1184000E+00
        -11   -1    0    0    0    0  0.00000000000E+00  0.00000000000E+00  0.45593999997E+02  0.45594000000E+02  0.51100000000E-03 0. -1.
         11   -1    0    0    0    0 -0.00000000000E+00 -0.00000000000E+00 -0.45593999997E+02  0.45594000000E+02  0.51100000000E-03 0.  1.
         23    2    1    2    0    0  0.00000000000E+00  0.35527136788E-14 -0.44408920985E-15  0.91188000000E+02  0.91188000000E+02 0.  0.
    9900012    2    3    3    0    0 -0.32684954374E+02  0.16923549371E+02  0.10327777538E+01  0.54367090239E+02  0.40000013818E+02 0.  0.
         12    1    3    3    0    0  0.32684954374E+02 -0.16923549371E+02 -0.10327777538E+01  0.36820909761E+02  0.00000000000E+00 0. -1.
         11    1    4    4    0    0 -0.19912801732E+01  0.11824077796E+02 -0.48347833682E+01  0.12928617209E+02  0.51100000000E-03 0. -1.
        -11    1    4    4    0    0 -0.60044021343E+01  0.11606995500E+02 -0.45852491022E+01  0.13849176839E+02  0.51100000000E-03 0.  1.
         12    1    4    4    0    0 -0.24689272066E+02 -0.65075239242E+01  0.10452810224E+02  0.27589296192E+02  0.00000000000E+00 0. -1.
</event>
<event>
 8    1  0.1262344E-006  0.9118800E+02  0.7816164E-02  0.1184000E+00
        -11   -1    0    0    0    0  0.00000000000E+00  0.00000000000E+00  0.45593999997E+02  0.45594000000E+02  0.51100000000E-03 0. -1.
         11   -1    0    0    0    0 -0.00000000000E+00 -0.00000000000E+00 -0.45593999997E+02  0.45594000000E+02  0.51100000000E-03 0.  1.
         23    2    1    2    0    0  0.00000000000E+00  0.00000000000E+00 -0.35527136788E-14  0.91188000000E+02  0.91188000000E+02 0.  0.
    9900012    2    3    3    0    0 -0.12194360549E+02  0.30339626621E+02  0.16928790090E+02  0.54367091448E+02  0.40000016573E+02 0.  0.
        -12    1    3    3    0    0  0.12194360549E+02 -0.30339626621E+02 -0.16928790090E+02  0.36820908552E+02  0.00000000000E+00 0.  1.
         11    1    4    4    0    0 -0.48438236967E+01  0.90287815870E+01 -0.49505871367E+01  0.11379360184E+02  0.51100000000E-03 0.  1.
        -11    1    4    4    0    0  0.81044594583E+01 -0.26441650215E+00 -0.70511647216E+00  0.81393715174E+01  0.51100000000E-03 0. -1.
         12    1    4    4    0    0 -0.15454996311E+02  0.21575261536E+02  0.22584493699E+02  0.34848359746E+02  0.00000000000E+00 0. -1.
</event>
<event>
 8    1  0.1262344E-006  0.9118800E+02  0.7816164E-02  0.1184000E+00
        -11   -1    0    0    0    0  0.00000000000E+00  0.00000000000E+00  0.45593999997E+02  0.45594000000E+02  0.51100000000E-03 0. -1.
         11   -1    0    0    0    0 -0.00000000000E+00 -0.00000000000E+00 -0.45593999997E+02  0.45594000000E+02  0.51100000000E-03 0.  1.
         23    2    1    2    0    0 -0.22204460493E-15  0.71054273576E-14 -0.35527136788E-14  0.91188000000E+02  0.91188000000E+02 0.  0.
    9900012    2    3    3    0    0 -0.12365835810E+01 -0.33609123663E+02  0.14989257408E+02  0.54367079724E+02  0.39999989846E+02 0.  0.
        -12    1    3    3    0    0  0.12365835810E+01  0.33609123663E+02 -0.14989257408E+02  0.36820920276E+02  0.00000000000E+00 0.  1.
         11    1    4    4    0    0  0.99780005255E+01  0.30343617224E+01  0.10607292934E+01  0.10482985855E+02  0.51100000000E-03 0.  1.
        -11    1    4    4    0    0  0.38733252679E+01 -0.11895856505E+02  0.57454100849E+01  0.13766763887E+02  0.51100000000E-03 0. -1.
        -12    1    4    4    0    0 -0.15087909374E+02 -0.24747628881E+02  0.81831180298E+01  0.30117329981E+02  0.00000000000E+00 0.  1.
</event>
<event>
 8    1  0.1262344E-006  0.9118800E+02  0.7816164E-02  0.1184000E+00
        -11   -1    0    0    0    0  0.00000000000E+00  0.00000000000E+00  0.45593999997E+02  0.45594000000E+02  0.51100000000E-03 0.  1.
         11   -1    0    0    0    0 -0.00000000000E+00 -0.00000000000E+00 -0.45593999997E+02  0.45594000000E+02  0.51100000000E-03 0. -1.
         23    2    1    2    0    0  0.00000000000E+00  0.88817841970E-15  0.00000000000E+00  0.91188000000E+02  0.91188000000E+02 0.  0.
    9900012    2    3    3    0    0  0.18273769364E+02  0.48285895064E+01  0.31599580444E+02  0.54367090076E+02  0.40000013446E+02 0.  0.
         12    1    3    3    0    0 -0.18273769364E+02 -0.48285895064E+01 -0.31599580444E+02  0.36820909924E+02  0.00000000000E+00 0. -1.
         11    1    4    4    0    0  0.13075614194E+01  0.15652022955E+02  0.29963028016E+02  0.33830143181E+02  0.51100000000E-03 0. -1.
        -11    1    4    4    0    0  0.89007608311E+01 -0.44982399662E+01  0.24036669666E+01  0.10258426844E+02  0.51100000000E-03 0.  1.
         12    1    4    4    0    0  0.80654471137E+01 -0.63251934823E+01 -0.76711453929E+00  0.10278520051E+02  0.00000000000E+00 0. -1.
</event>
<event>
 8    1  0.1262344E-006  0.9118800E+02  0.7816164E-02  0.1184000E+00
        -11   -1    0    0    0    0  0.00000000000E+00  0.00000000000E+00  0.45593999997E+02  0.45594000000E+02  0.51100000000E-03 0.  1.
         11   -1    0    0    0    0 -0.00000000000E+00 -0.00000000000E+00 -0.45593999997E+02  0.45594000000E+02  0.51100000000E-03 0. -1.
         23    2    1    2    0    0  0.00000000000E+00  0.35527136788E-14 -0.10658141036E-13  0.91188000000E+02  0.91188000000E+02 0.  0.
    9900012    2    3    3    0    0  0.11509417021E+02 -0.16107913632E+02  0.31045917220E+02  0.54367074730E+02  0.39999978462E+02 0.  0.
         12    1    3    3    0    0 -0.11509417021E+02  0.16107913632E+02 -0.31045917220E+02  0.36820925270E+02  0.00000000000E+00 0. -1.
         11    1    4    4    0    0 -0.40442015826E+01  0.57455322381E+01  0.48936930570E+00  0.70431661715E+01  0.51100000000E-03 0. -1.
        -11    1    4    4    0    0 -0.63857783459E+01 -0.60501341680E+01  0.49979141405E+01  0.10117382792E+02  0.51100000000E-03 0.  1.
         12    1    4    4    0    0  0.21939396950E+02 -0.15803311702E+02  0.25558633774E+02  0.37206525767E+02  0.00000000000E+00 0. -1.
</event>
<event>
 8    1  0.1262344E-006  0.9118800E+02  0.7816164E-02  0.1184000E+00
        -11   -1    0    0    0    0  0.00000000000E+00  0.00000000000E+00  0.45593999997E+02  0.45594000000E+02  0.51100000000E-03 0. -1.
         11   -1    0    0    0    0 -0.00000000000E+00 -0.00000000000E+00 -0.45593999997E+02  0.45594000000E+02  0.51100000000E-03 0.  1.
         23    2    1    2    0    0  0.00000000000E+00  0.00000000000E+00  0.00000000000E+00  0.91188000000E+02  0.91188000000E+02 0.  0.
    9900012    2    3    3    0    0 -0.20060339985E+02 -0.14192433475E+02 -0.27421476686E+02  0.54367084858E+02  0.40000001551E+02 0.  0.
         12    1    3    3    0    0  0.20060339985E+02  0.14192433475E+02  0.27421476686E+02  0.36820915142E+02  0.00000000000E+00 0. -1.
         11    1    4    4    0    0 -0.13261958900E+02 -0.55244772144E+01 -0.94034424430E+01  0.17170443570E+02  0.51100000000E-03 0. -1.
        -11    1    4    4    0    0 -0.13437347455E+02 -0.44075533979E+01 -0.23614160346E+02  0.27524850639E+02  0.51100000000E-03 0.  1.
         12    1    4    4    0    0  0.66389663703E+01 -0.42604028623E+01  0.55961261024E+01  0.96717906495E+01  0.00000000000E+00 0. -1.
</event>
<event>
 8    1  0.1262344E-006  0.9118800E+02  0.7816164E-02  0.1184000E+00
        -11   -1    0    0    0    0  0.00000000000E+00  0.00000000000E+00  0.45593999997E+02  0.45594000000E+02  0.51100000000E-03 0.  1.
         11   -1    0    0    0    0 -0.00000000000E+00 -0.00000000000E+00 -0.45593999997E+02  0.45594000000E+02  0.51100000000E-03 0. -1.
         23    2    1    2    0    0 -0.35527136788E-14  0.88817841970E-15 -0.35527136788E-14  0.91188000000E+02  0.91188000000E+02 0.  0.
    9900012    2    3    3    0    0  0.25578307856E+02 -0.46840741255E+01 -0.26068935404E+02  0.54367085070E+02  0.40000002035E+02 0.  0.
        -12    1    3    3    0    0 -0.25578307856E+02  0.46840741255E+01  0.26068935404E+02  0.36820914930E+02  0.00000000000E+00 0.  1.
         11    1    4    4    0    0 -0.34955319981E+01  0.15364585029E+01 -0.18455875459E+02  0.18846718227E+02  0.51100000000E-03 0. -1.
        -11    1    4    4    0    0 -0.21655428765E+01  0.13491257853E+01 -0.58218601113E+00  0.26169939142E+01  0.51100000000E-03 0.  1.
         12    1    4    4    0    0  0.31239382730E+02 -0.75696584137E+01 -0.70308739335E+01  0.32903372929E+02  0.00000000000E+00 0. -1.
</event>
<event>
 8    1  0.1262344E-006  0.9118800E+02  0.7816164E-02  0.1184000E+00
        -11   -1    0    0    0    0  0.00000000000E+00  0.00000000000E+00  0.45593999997E+02  0.45594000000E+02  0.51100000000E-03 0.  1.
         11   -1    0    0    0    0 -0.00000000000E+00 -0.00000000000E+00 -0.45593999997E+02  0.45594000000E+02  0.51100000000E-03 0. -1.
         23    2    1    2    0    0  0.00000000000E+00  0.00000000000E+00 -0.88817841970E-15  0.91188000000E+02  0.91188000000E+02 0.  0.
    9900012    2    3    3    0    0 -0.75694574769E+01 -0.35800110549E+02 -0.41030279517E+01  0.54367089634E+02  0.40000012440E+02 0.  0.
         12    1    3    3    0    0  0.75694574769E+01  0.35800110549E+02  0.41030279517E+01  0.36820910366E+02  0.00000000000E+00 0. -1.
         11    1    4    4    0    0 -0.16042082123E+01  0.14799694031E+01 -0.26628813527E+01  0.34430699648E+01  0.51100000000E-03 0. -1.
        -11    1    4    4    0    0 -0.80218514170E+01 -0.45945377781E+01  0.12318224956E+02  0.15401251373E+02  0.51100000000E-03 0.  1.
         12    1    4    4    0    0  0.20566021524E+01 -0.32685542173E+02 -0.13758371555E+02  0.35522768296E+02  0.00000000000E+00 0. -1.
</event>
<event>
 8    1  0.1262344E-006  0.9118800E+02  0.7816164E-02  0.1184000E+00
        -11   -1    0    0    0    0  0.00000000000E+00  0.00000000000E+00  0.45593999997E+02  0.45594000000E+02  0.51100000000E-03 0. -1.
         11   -1    0    0    0    0 -0.00000000000E+00 -0.00000000000E+00 -0.45593999997E+02  0.45594000000E+02  0.51100000000E-03 0.  1.
         23    2    1    2    0    0  0.00000000000E+00  0.00000000000E+00  0.17763568394E-14  0.91188000000E+02  0.91188000000E+02 0.  0.
    9900012    2    3    3    0    0 -0.34129043078E+02 -0.27694916323E+01 -0.13539525142E+02  0.54367076514E+02  0.39999982529E+02 0.  0.
        -12    1    3    3    0    0  0.34129043078E+02  0.27694916323E+01  0.13539525142E+02  0.36820923486E+02  0.00000000000E+00 0.  1.
         11    1    4    4    0    0 -0.13757031608E+02  0.67212705358E+01 -0.20271111109E+02  0.25403726934E+02  0.51100000000E-03 0. -1.
        -11    1    4    4    0    0 -0.40072083759E+01 -0.31546149964E+01 -0.55550258918E+01  0.75410627675E+01  0.51100000000E-03 0.  1.
         12    1    4    4    0    0 -0.16364803094E+02 -0.63361471718E+01  0.12286611859E+02  0.21422286812E+02  0.00000000000E+00 0. -1.
</event>
<event>
 8    1  0.1262344E-006  0.9118800E+02  0.7816164E-02  0.1184000E+00
        -11   -1    0    0    0    0  0.00000000000E+00  0.00000000000E+00  0.45593999997E+02  0.45594000000E+02  0.51100000000E-03 0.  1.
         11   -1    0    0    0    0 -0.00000000000E+00 -0.00000000000E+00 -0.45593999997E+02  0.45594000000E+02  0.51100000000E-03 0. -1.
         23    2    1    2    0    0  0.22204460493E-15 -0.22204460493E-15  0.00000000000E+00  0.91188000000E+02  0.91188000000E+02 0.  0.
    9900012    2    3    3    0    0  0.18386059387E+01  0.60601666204E+00 -0.36769982855E+02  0.54367090626E+02  0.40000014700E+02 0.  0.
        -12    1    3    3    0    0 -0.18386059387E+01 -0.60601666204E+00  0.36769982855E+02  0.36820909374E+02  0.00000000000E+00 0.  1.
         11    1    4    4    0    0 -0.63404157560E+01 -0.94086204945E+01 -0.14504867922E+02  0.18415053768E+02  0.51100000000E-03 0. -1.
        -11    1    4    4    0    0  0.14221636047E+01  0.64036121037E+01  0.46026601069E+01  0.80133187640E+01  0.51100000000E-03 0.  1.
        -12    1    4    4    0    0  0.67568580900E+01  0.36110250529E+01 -0.26867775039E+02  0.27938718094E+02  0.00000000000E+00 0.  1.
</event>
<event>
 8    1  0.1262344E-006  0.9118800E+02  0.7816164E-02  0.1184000E+00
        -11   -1    0    0    0    0  0.00000000000E+00  0.00000000000E+00  0.45593999997E+02  0.45594000000E+02  0.51100000000E-03 0.  1.
         11   -1    0    0    0    0 -0.00000000000E+00 -0.00000000000E+00 -0.45593999997E+02  0.45594000000E+02  0.51100000000E-03 0. -1.
         23    2    1    2    0    0  0.00000000000E+00 -0.44408920985E-15  0.00000000000E+00  0.91188000000E+02  0.91188000000E+02 0.  0.
    9900012    2    3    3    0    0  0.53417787618E+01 -0.21730326350E+01 -0.36366536802E+02  0.54367059352E+02  0.39999943405E+02 0.  0.
        -12    1    3    3    0    0 -0.53417787618E+01  0.21730326350E+01  0.36366536802E+02  0.36820940648E+02  0.00000000000E+00 0.  1.
         11    1    4    4    0    0 -0.62306860383E+00 -0.83799183340E+01 -0.11886076835E+02  0.14556444228E+02  0.51100000000E-03 0. -1.
        -11    1    4    4    0    0  0.10806859151E+02  0.36220161429E+00  0.30647627368E+01  0.11238868520E+02  0.51100000000E-03 0.  1.
         12    1    4    4    0    0 -0.48420117856E+01  0.58446840848E+01 -0.27545222704E+02  0.28571746604E+02  0.00000000000E+00 0. -1.
</event>
<event>
 8    1  0.1262344E-006  0.9118800E+02  0.7816164E-02  0.1184000E+00
        -11   -1    0    0    0    0  0.00000000000E+00  0.00000000000E+00  0.45593999997E+02  0.45594000000E+02  0.51100000000E-03 0. -1.
         11   -1    0    0    0    0 -0.00000000000E+00 -0.00000000000E+00 -0.45593999997E+02  0.45594000000E+02  0.51100000000E-03 0.  1.
         23    2    1    2    0    0  0.00000000000E+00 -0.17763568394E-14  0.00000000000E+00  0.91188000000E+02  0.91188000000E+02 0.  0.
    9900012    2    3    3    0    0 -0.11403068311E+02 -0.10309205520E+02 -0.33458477205E+02  0.54367090420E+02  0.40000014231E+02 0.  0.
         12    1    3    3    0    0  0.11403068311E+02  0.10309205520E+02  0.33458477205E+02  0.36820909580E+02  0.00000000000E+00 0. -1.
         11    1    4    4    0    0 -0.13546957278E+02  0.58238197853E+01 -0.84531260990E+01  0.16996831161E+02  0.51100000000E-03 0.  1.
        -11    1    4    4    0    0  0.26594649921E+01 -0.11756492918E+02 -0.75361559206E-01  0.12053777806E+02  0.51100000000E-03 0. -1.
         12    1    4    4    0    0 -0.51557602505E+00 -0.43765323874E+01 -0.24929989547E+02  0.25316481454E+02  0.00000000000E+00 0. -1.
</event>
<event>
 8    1  0.1262344E-006  0.9118800E+02  0.7816164E-02  0.1184000E+00
        -11   -1    0    0    0    0  0.00000000000E+00  0.00000000000E+00  0.45593999997E+02  0.45594000000E+02  0.51100000000E-03 0.  1.
         11   -1    0    0    0    0 -0.00000000000E+00 -0.00000000000E+00 -0.45593999997E+02  0.45594000000E+02  0.51100000000E-03 0. -1.
         23    2    1    2    0    0  0.00000000000E+00  0.00000000000E+00 -0.33306690739E-15  0.91188000000E+02  0.91188000000E+02 0.  0.
    9900012    2    3    3    0    0  0.30026804494E+02  0.21310838467E+02  0.13832313921E+00  0.54367082609E+02  0.39999996423E+02 0.  0.
         12    1    3    3    0    0 -0.30026804494E+02 -0.21310838467E+02 -0.13832313921E+00  0.36820917391E+02  0.00000000000E+00 0. -1.
         11    1    4    4    0    0  0.78240140906E+01  0.97851502448E+01 -0.11553830896E+02  0.17042751258E+02  0.51100000000E-03 0. -1.
        -11    1    4    4    0    0  0.76336588535E+01  0.16480478036E+02  0.27803729094E+00  0.18164696771E+02  0.51100000000E-03 0.  1.
         12    1    4    4    0    0  0.14569131549E+02 -0.49547898137E+01  0.11414116744E+02  0.19159634580E+02  0.00000000000E+00 0. -1.
</event>
<event>
 8    1  0.1262344E-006  0.9118800E+02  0.7816164E-02  0.1184000E+00
        -11   -1    0    0    0    0  0.00000000000E+00  0.00000000000E+00  0.45593999997E+02  0.45594000000E+02  0.51100000000E-03 0.  1.
         11   -1    0    0    0    0 -0.00000000000E+00 -0.00000000000E+00 -0.45593999997E+02  0.45594000000E+02  0.51100000000E-03 0. -1.
         23    2    1    2    0    0  0.26645352591E-14  0.00000000000E+00 -0.35527136788E-14  0.91188000000E+02  0.91188000000E+02 0.  0.
    9900012    2    3    3    0    0 -0.34653298280E+01  0.31982381011E+02  0.17913739767E+02  0.54367037515E+02  0.39999893622E+02 0.  0.
         12    1    3    3    0    0  0.34653298280E+01 -0.31982381011E+02 -0.17913739767E+02  0.36820962485E+02  0.00000000000E+00 0. -1.
         11    1    4    4    0    0  0.11527619888E+02  0.19463859693E+02  0.15022280372E+01  0.22671227223E+02  0.51100000000E-03 0. -1.
        -11    1    4    4    0    0 -0.16985289898E+02  0.59393132144E+01  0.17054225918E+02  0.24791573897E+02  0.51100000000E-03 0.  1.
        -12    1    4    4    0    0  0.19923401816E+01  0.65792081028E+01 -0.64271418895E+00  0.69042363943E+01  0.00000000000E+00 0.  1.
</event>
<event>
 8    1  0.1262344E-006  0.9118800E+02  0.7816164E-02  0.1184000E+00
        -11   -1    0    0    0    0  0.00000000000E+00  0.00000000000E+00  0.45593999997E+02  0.45594000000E+02  0.51100000000E-03 0. -1.
         11   -1    0    0    0    0 -0.00000000000E+00 -0.00000000000E+00 -0.45593999997E+02  0.45594000000E+02  0.51100000000E-03 0.  1.
         23    2    1    2    0    0 -0.17763568394E-14  0.00000000000E+00 -0.35527136788E-14  0.91188000000E+02  0.91188000000E+02 0.  0.
    9900012    2    3    3    0    0  0.91252346874E+01  0.29624812970E+02 -0.19871606144E+02  0.54367079556E+02  0.39999989464E+02 0.  0.
         12    1    3    3    0    0 -0.91252346874E+01 -0.29624812970E+02  0.19871606144E+02  0.36820920444E+02  0.00000000000E+00 0. -1.
         11    1    4    4    0    0 -0.48589150669E+01  0.17757160207E+02 -0.13227518123E+02  0.22669208857E+02  0.51100000000E-03 0. -1.
        -11    1    4    4    0    0 -0.25116021825E+01  0.93252617593E+01 -0.10809615796E+02  0.14495393969E+02  0.51100000000E-03 0.  1.
         12    1    4    4    0    0  0.16495751937E+02  0.25423910030E+01  0.41655277753E+01  0.17202476729E+02  0.00000000000E+00 0. -1.
</event>
<event>
 8    1  0.1262344E-006  0.9118800E+02  0.7816164E-02  0.1184000E+00
        -11   -1    0    0    0    0  0.00000000000E+00  0.00000000000E+00  0.45593999997E+02  0.45594000000E+02  0.51100000000E-03 0.  1.
         11   -1    0    0    0    0 -0.00000000000E+00 -0.00000000000E+00 -0.45593999997E+02  0.45594000000E+02  0.51100000000E-03 0. -1.
         23    2    1    2    0    0 -0.35527136788E-14  0.00000000000E+00  0.35527136788E-14  0.91188000000E+02  0.91188000000E+02 0.  0.
    9900012    2    3    3    0    0  0.21221324713E+02 -0.18324345995E+02  0.23867441482E+02  0.54367067888E+02  0.39999962864E+02 0.  0.
         12    1    3    3    0    0 -0.21221324713E+02  0.18324345995E+02 -0.23867441482E+02  0.36820932112E+02  0.00000000000E+00 0. -1.
         11    1    4    4    0    0  0.23456382953E+02 -0.19268076522E+02  0.12419661699E+02  0.32797997974E+02  0.51100000000E-03 0. -1.
        -11    1    4    4    0    0  0.43500855279E+01 -0.60226012070E+01  0.11808608836E+01  0.75225927769E+01  0.51100000000E-03 0.  1.
         12    1    4    4    0    0 -0.65851437681E+01  0.69663317340E+01  0.10266918899E+02  0.14046477137E+02  0.00000000000E+00 0. -1.
</event>
<event>
 8    1  0.1262344E-006  0.9118800E+02  0.7816164E-02  0.1184000E+00
        -11   -1    0    0    0    0  0.00000000000E+00  0.00000000000E+00  0.45593999997E+02  0.45594000000E+02  0.51100000000E-03 0.  1.
         11   -1    0    0    0    0 -0.00000000000E+00 -0.00000000000E+00 -0.45593999997E+02  0.45594000000E+02  0.51100000000E-03 0. -1.
         23    2    1    2    0    0  0.00000000000E+00  0.00000000000E+00 -0.71054273576E-14  0.91188000000E+02  0.91188000000E+02 0.  0.
    9900012    2    3    3    0    0 -0.29650753676E+02 -0.11747714643E+02  0.18401193786E+02  0.54367083041E+02  0.39999997410E+02 0.  0.
         12    1    3    3    0    0  0.29650753676E+02  0.11747714643E+02 -0.18401193786E+02  0.36820916959E+02  0.00000000000E+00 0. -1.
         11    1    4    4    0    0  0.46086968577E+01  0.87872627783E+00 -0.47966165976E+01  0.67096779091E+01  0.51100000000E-03 0. -1.
        -11    1    4    4    0    0 -0.23455142127E+02 -0.14376506556E+02  0.24235552900E+02  0.36663192136E+02  0.51100000000E-03 0.  1.
         12    1    4    4    0    0 -0.10804308407E+02  0.17500656349E+01 -0.10377425164E+01  0.10994212997E+02  0.00000000000E+00 0. -1.
</event>
<event>
 8    1  0.1262344E-006  0.9118800E+02  0.7816164E-02  0.1184000E+00
        -11   -1    0    0    0    0  0.00000000000E+00  0.00000000000E+00  0.45593999997E+02  0.45594000000E+02  0.51100000000E-03 0. -1.
         11   -1    0    0    0    0 -0.00000000000E+00 -0.00000000000E+00 -0.45593999997E+02  0.45594000000E+02  0.51100000000E-03 0.  1.
         23    2    1    2    0    0  0.88817841970E-15  0.00000000000E+00  0.17763568394E-14  0.91188000000E+02  0.91188000000E+02 0.  0.
    9900012    2    3    3    0    0  0.45335436140E+01  0.33286314715E+02 -0.15074729926E+02  0.54367092252E+02  0.40000018407E+02 0.  0.
         12    1    3    3    0    0 -0.45335436140E+01 -0.33286314715E+02  0.15074729926E+02  0.36820907748E+02  0.00000000000E+00 0. -1.
         11    1    4    4    0    0  0.49445534274E+01  0.28074091623E+02 -0.69913052999E+01  0.29351006441E+02  0.51100000000E-03 0. -1.
        -11    1    4    4    0    0  0.45268428654E+01  0.13346725546E+02 -0.57274964963E+01  0.15212876306E+02  0.51100000000E-03 0.  1.
        -12    1    4    4    0    0 -0.49378526788E+01 -0.81345024535E+01 -0.23559281300E+01  0.98032095049E+01  0.00000000000E+00 0.  1.
</event>
<event>
 8    1  0.1262344E-006  0.9118800E+02  0.7816164E-02  0.1184000E+00
        -11   -1    0    0    0    0  0.00000000000E+00  0.00000000000E+00  0.45593999997E+02  0.45594000000E+02  0.51100000000E-03 0. -1.
         11   -1    0    0    0    0 -0.00000000000E+00 -0.00000000000E+00 -0.45593999997E+02  0.45594000000E+02  0.51100000000E-03 0.  1.
         23    2    1    2    0    0  0.00000000000E+00  0.19984014443E-14  0.00000000000E+00  0.91188000000E+02  0.91188000000E+02 0.  0.
    9900012    2    3    3    0    0  0.29433566074E+02 -0.19575035362E+01 -0.22036624004E+02  0.54367089780E+02  0.40000012772E+02 0.  0.
         12    1    3    3    0    0 -0.29433566074E+02  0.19575035362E+01  0.22036624004E+02  0.36820910220E+02  0.00000000000E+00 0. -1.
         11    1    4    4    0    0  0.48061560698E+01 -0.50818380448E+01 -0.33877659108E+01  0.77718191055E+01  0.51100000000E-03 0. -1.
        -11    1    4    4    0    0  0.13057146972E+02  0.17630061861E+02 -0.17394761779E+02  0.27997962531E+02  0.51100000000E-03 0.  1.
        -12    1    4    4    0    0  0.11570263032E+02 -0.14505727352E+02 -0.12540963143E+01  0.18597308144E+02  0.00000000000E+00 0.  1.
</event>
<event>
 8    1  0.1262344E-006  0.9118800E+02  0.7816164E-02  0.1184000E+00
        -11   -1    0    0    0    0  0.00000000000E+00  0.00000000000E+00  0.45593999997E+02  0.45594000000E+02  0.51100000000E-03 0.  1.
         11   -1    0    0    0    0 -0.00000000000E+00 -0.00000000000E+00 -0.45593999997E+02  0.45594000000E+02  0.51100000000E-03 0. -1.
         23    2    1    2    0    0  0.00000000000E+00  0.35527136788E-14  0.00000000000E+00  0.91188000000E+02  0.91188000000E+02 0.  0.
    9900012    2    3    3    0    0 -0.13198018866E+02  0.27292707714E+02 -0.20897402870E+02  0.54367067868E+02  0.39999962818E+02 0.  0.
        -12    1    3    3    0    0  0.13198018866E+02 -0.27292707714E+02  0.20897402870E+02  0.36820932132E+02  0.00000000000E+00 0.  1.
         11    1    4    4    0    0 -0.43007765092E+01  0.61101820041E+01 -0.22967445533E+02  0.24152319915E+02  0.51100000000E-03 0. -1.
        -11    1    4    4    0    0 -0.94547011599E+01  0.23365450989E+02  0.57931508343E+01  0.25863029034E+02  0.51100000000E-03 0.  1.
        -12    1    4    4    0    0  0.55745880355E+00 -0.21829252791E+01 -0.37231081719E+01  0.43517189192E+01  0.00000000000E+00 0.  1.
</event>
<event>
 8    1  0.1262344E-006  0.9118800E+02  0.7816164E-02  0.1184000E+00
        -11   -1    0    0    0    0  0.00000000000E+00  0.00000000000E+00  0.45593999997E+02  0.45594000000E+02  0.51100000000E-03 0.  1.
         11   -1    0    0    0    0 -0.00000000000E+00 -0.00000000000E+00 -0.45593999997E+02  0.45594000000E+02  0.51100000000E-03 0. -1.
         23    2    1    2    0    0 -0.35527136788E-14  0.35527136788E-14  0.44408920985E-15  0.91188000000E+02  0.91188000000E+02 0.  0.
    9900012    2    3    3    0    0  0.19107979483E+02 -0.31318193742E+02 -0.31361718792E+01  0.54367085926E+02  0.40000003985E+02 0.  0.
         12    1    3    3    0    0 -0.19107979483E+02  0.31318193742E+02  0.31361718792E+01  0.36820914074E+02  0.00000000000E+00 0. -1.
         11    1    4    4    0    0  0.24981315005E+02 -0.23340778690E+02  0.19673325212E+01  0.34245122963E+02  0.51100000000E-03 0. -1.
        -11    1    4    4    0    0  0.27760250451E+01  0.23495467990E+00  0.41692536311E+01  0.50143987530E+01  0.51100000000E-03 0.  1.
         12    1    4    4    0    0 -0.86493605674E+01 -0.82123697324E+01 -0.92727580315E+01  0.15107564210E+02  0.00000000000E+00 0. -1.
</event>
<event>
 8    1  0.1262344E-006  0.9118800E+02  0.7816164E-02  0.1184000E+00
        -11   -1    0    0    0    0  0.00000000000E+00  0.00000000000E+00  0.45593999997E+02  0.45594000000E+02  0.51100000000E-03 0. -1.
         11   -1    0    0    0    0 -0.00000000000E+00 -0.00000000000E+00 -0.45593999997E+02  0.45594000000E+02  0.51100000000E-03 0.  1.
         23    2    1    2    0    0  0.00000000000E+00 -0.71054273576E-14 -0.17763568394E-14  0.91188000000E+02  0.91188000000E+02 0.  0.
    9900012    2    3    3    0    0 -0.31231082467E+02  0.16641847101E+02  0.10170881076E+02  0.54367103639E+02  0.40000044365E+02 0.  0.
         12    1    3    3    0    0  0.31231082467E+02 -0.16641847101E+02 -0.10170881076E+02  0.36820896361E+02  0.00000000000E+00 0. -1.
         11    1    4    4    0    0 -0.91060613741E+01  0.19774573951E+01  0.12377334828E+02  0.15492872852E+02  0.51100000000E-03 0. -1.
        -11    1    4    4    0    0 -0.16058858387E+02 -0.30747940218E+00  0.97385081220E+01  0.18783503852E+02  0.51100000000E-03 0.  1.
        -12    1    4    4    0    0 -0.60661627063E+01  0.14971869108E+02 -0.11944961874E+02  0.20090726934E+02  0.00000000000E+00 0.  1.
</event>
<event>
 8    1  0.1262344E-006  0.9118800E+02  0.7816164E-02  0.1184000E+00
        -11   -1    0    0    0    0  0.00000000000E+00  0.00000000000E+00  0.45593999997E+02  0.45594000000E+02  0.51100000000E-03 0. -1.
         11   -1    0    0    0    0 -0.00000000000E+00 -0.00000000000E+00 -0.45593999997E+02  0.45594000000E+02  0.51100000000E-03 0.  1.
         23    2    1    2    0    0  0.00000000000E+00  0.69388939039E-15  0.00000000000E+00  0.91188000000E+02  0.91188000000E+02 0.  0.
    9900012    2    3    3    0    0  0.27320066213E+02  0.76287307920E-01  0.24685773529E+02  0.54367092184E+02  0.40000018252E+02 0.  0.
        -12    1    3    3    0    0 -0.27320066213E+02 -0.76287307920E-01 -0.24685773529E+02  0.36820907816E+02  0.00000000000E+00 0.  1.
         11    1    4    4    0    0  0.11466852891E+02  0.71334030301E+01 -0.25428946480E+01  0.13741923718E+02  0.51100000000E-03 0. -1.
        -11    1    4    4    0    0  0.15384976593E+02  0.23771789786E+01  0.48034848554E+01  0.16291775584E+02  0.51100000000E-03 0.  1.
         12    1    4    4    0    0  0.46823672902E+00 -0.94342947008E+01  0.22425183322E+02  0.24333392882E+02  0.00000000000E+00 0. -1.
</event>
<event>
 8    1  0.1262344E-006  0.9118800E+02  0.7816164E-02  0.1184000E+00
        -11   -1    0    0    0    0  0.00000000000E+00  0.00000000000E+00  0.45593999997E+02  0.45594000000E+02  0.51100000000E-03 0.  1.
         11   -1    0    0    0    0 -0.00000000000E+00 -0.00000000000E+00 -0.45593999997E+02  0.45594000000E+02  0.51100000000E-03 0. -1.
         23    2    1    2    0    0 -0.35527136788E-14  0.00000000000E+00  0.00000000000E+00  0.91188000000E+02  0.91188000000E+02 0.  0.
    9900012    2    3    3    0    0 -0.20343056957E+02 -0.18876293075E+02 -0.24199658731E+02  0.54367110694E+02  0.40000060448E+02 0.  0.
        -12    1    3    3    0    0  0.20343056957E+02  0.18876293075E+02  0.24199658731E+02  0.36820889306E+02  0.00000000000E+00 0.  1.
         11    1    4    4    0    0 -0.68941899541E+01  0.16763037732E+00 -0.11795680986E+02  0.13663676125E+02  0.51100000000E-03 0. -1.
        -11    1    4    4    0    0 -0.11549843254E+02  0.55640481299E+01 -0.92777106791E+01  0.15825088515E+02  0.51100000000E-03 0.  1.
         12    1    4    4    0    0 -0.18990237490E+01 -0.24607971582E+02 -0.31262670651E+01  0.24878346054E+02  0.00000000000E+00 0. -1.
</event>
<event>
 8    1  0.1262344E-006  0.9118800E+02  0.7816164E-02  0.1184000E+00
        -11   -1    0    0    0    0  0.00000000000E+00  0.00000000000E+00  0.45593999997E+02  0.45594000000E+02  0.51100000000E-03 0. -1.
         11   -1    0    0    0    0 -0.00000000000E+00 -0.00000000000E+00 -0.45593999997E+02  0.45594000000E+02  0.51100000000E-03 0.  1.
         23    2    1    2    0    0  0.00000000000E+00  0.35527136788E-14  0.00000000000E+00  0.91188000000E+02  0.91188000000E+02 0.  0.
    9900012    2    3    3    0    0 -0.19793589979E+02 -0.15776942046E+02  0.26740983725E+02  0.54367104911E+02  0.40000047265E+02 0.  0.
        -12    1    3    3    0    0  0.19793589979E+02  0.15776942046E+02 -0.26740983725E+02  0.36820895089E+02  0.00000000000E+00 0.  1.
         11    1    4    4    0    0 -0.97602440377E+01 -0.73246435088E+01  0.28709744821E+01  0.12536158141E+02  0.51100000000E-03 0. -1.
        -11    1    4    4    0    0  0.56717193390E+01  0.34971519686E+00 -0.51572611549E+01  0.76738545634E+01  0.51100000000E-03 0.  1.
         12    1    4    4    0    0 -0.15705065280E+02 -0.88020137345E+01  0.29027270398E+02  0.34157092206E+02  0.00000000000E+00 0. -1.
</event>
<event>
 8    1  0.1262344E-006  0.9118800E+02  0.7816164E-02  0.1184000E+00
        -11   -1    0    0    0    0  0.00000000000E+00  0.00000000000E+00  0.45593999997E+02  0.45594000000E+02  0.51100000000E-03 0.  1.
         11   -1    0    0    0    0 -0.00000000000E+00 -0.00000000000E+00 -0.45593999997E+02  0.45594000000E+02  0.51100000000E-03 0. -1.
         23    2    1    2    0    0  0.00000000000E+00  0.35527136788E-14  0.35527136788E-14  0.91188000000E+02  0.91188000000E+02 0.  0.
    9900012    2    3    3    0    0  0.19535507375E+02  0.17781319070E+02  0.25650912978E+02  0.54367072623E+02  0.39999973659E+02 0.  0.
         12    1    3    3    0    0 -0.19535507375E+02 -0.17781319070E+02 -0.25650912978E+02  0.36820927377E+02  0.00000000000E+00 0. -1.
         11    1    4    4    0    0 -0.37700215608E+01 -0.54328283855E+01  0.18276905850E+01  0.68606952979E+01  0.51100000000E-03 0. -1.
        -11    1    4    4    0    0  0.27582380345E+01  0.15869558435E+02  0.19446826552E+02  0.25251333137E+02  0.51100000000E-03 0.  1.
         12    1    4    4    0    0  0.20547290902E+02  0.73445890199E+01  0.43763958413E+01  0.22255044188E+02  0.00000000000E+00 0. -1.
</event>
<event>
 8    1  0.1262344E-006  0.9118800E+02  0.7816164E-02  0.1184000E+00
        -11   -1    0    0    0    0  0.00000000000E+00  0.00000000000E+00  0.45593999997E+02  0.45594000000E+02  0.51100000000E-03 0.  1.
         11   -1    0    0    0    0 -0.00000000000E+00 -0.00000000000E+00 -0.45593999997E+02  0.45594000000E+02  0.51100000000E-03 0. -1.
         23    2    1    2    0    0  0.88817841970E-15  0.17763568394E-14 -0.71054273576E-14  0.91188000000E+02  0.91188000000E+02 0.  0.
    9900012    2    3    3    0    0  0.62878149127E+01  0.87798753676E+01 -0.35201657252E+02  0.54367088806E+02  0.40000010551E+02 0.  0.
        -12    1    3    3    0    0 -0.62878149127E+01 -0.87798753676E+01  0.35201657252E+02  0.36820911194E+02  0.00000000000E+00 0.  1.
         11    1    4    4    0    0  0.81023268743E+01  0.66931484521E+01 -0.10923518425E+02  0.15158139464E+02  0.51100000000E-03 0. -1.
        -11    1    4    4    0    0 -0.15923662059E+01 -0.10137996319E+02 -0.24935370425E+02  0.26964556328E+02  0.51100000000E-03 0.  1.
        -12    1    4    4    0    0 -0.22214575567E+00  0.12224723234E+02  0.65723159788E+00  0.12244393013E+02  0.00000000000E+00 0.  1.
</event>
<event>
 8    1  0.1262344E-006  0.9118800E+02  0.7816164E-02  0.1184000E+00
        -11   -1    0    0    0    0  0.00000000000E+00  0.00000000000E+00  0.45593999997E+02  0.45594000000E+02  0.51100000000E-03 0.  1.
         11   -1    0    0    0    0 -0.00000000000E+00 -0.00000000000E+00 -0.45593999997E+02  0.45594000000E+02  0.51100000000E-03 0. -1.
         23    2    1    2    0    0  0.00000000000E+00  0.00000000000E+00 -0.66613381478E-15  0.91188000000E+02  0.91188000000E+02 0.  0.
    9900012    2    3    3    0    0 -0.36550526830E+02  0.43756510400E+01  0.83177785406E+00  0.54367093059E+02  0.40000020247E+02 0.  0.
        -12    1    3    3    0    0  0.36550526830E+02 -0.43756510400E+01 -0.83177785406E+00  0.36820906941E+02  0.00000000000E+00 0.  1.
         11    1    4    4    0    0 -0.16084227896E+02  0.90667502643E+00 -0.15421361045E+02  0.22301184349E+02  0.51100000000E-03 0. -1.
        -11    1    4    4    0    0 -0.16873006893E+02  0.69904070607E+01  0.38276804149E+01  0.18660527595E+02  0.51100000000E-03 0.  1.
        -12    1    4    4    0    0 -0.35932920399E+01 -0.35214310472E+01  0.12425458484E+02  0.13405381115E+02  0.00000000000E+00 0.  1.
</event>
<event>
 8    1  0.1262344E-006  0.9118800E+02  0.7816164E-02  0.1184000E+00
        -11   -1    0    0    0    0  0.00000000000E+00  0.00000000000E+00  0.45593999997E+02  0.45594000000E+02  0.51100000000E-03 0. -1.
         11   -1    0    0    0    0 -0.00000000000E+00 -0.00000000000E+00 -0.45593999997E+02  0.45594000000E+02  0.51100000000E-03 0.  1.
         23    2    1    2    0    0  0.00000000000E+00 -0.17763568394E-14 -0.35527136788E-14  0.91188000000E+02  0.91188000000E+02 0.  0.
    9900012    2    3    3    0    0  0.26176595930E+02  0.12705252445E+02  0.22564170913E+02  0.54367089865E+02  0.40000012966E+02 0.  0.
        -12    1    3    3    0    0 -0.26176595930E+02 -0.12705252445E+02 -0.22564170913E+02  0.36820910135E+02  0.00000000000E+00 0.  1.
         11    1    4    4    0    0  0.14757143815E+02  0.13906677688E+02 -0.11976122648E+01  0.20312637773E+02  0.51100000000E-03 0. -1.
        -11    1    4    4    0    0 -0.64569965227E+01 -0.85866689276E+00  0.62268474238E+01  0.90113118927E+01  0.51100000000E-03 0.  1.
         12    1    4    4    0    0  0.17876448638E+02 -0.34275834965E+00  0.17534935754E+02  0.25043140200E+02  0.00000000000E+00 0. -1.
</event>
<event>
 8    1  0.1262344E-006  0.9118800E+02  0.7816164E-02  0.1184000E+00
        -11   -1    0    0    0    0  0.00000000000E+00  0.00000000000E+00  0.45593999997E+02  0.45594000000E+02  0.51100000000E-03 0.  1.
         11   -1    0    0    0    0 -0.00000000000E+00 -0.00000000000E+00 -0.45593999997E+02  0.45594000000E+02  0.51100000000E-03 0. -1.
         23    2    1    2    0    0  0.00000000000E+00  0.00000000000E+00  0.17763568394E-14  0.91188000000E+02  0.91188000000E+02 0.  0.
    9900012    2    3    3    0    0  0.35398877322E+02  0.32519463438E+01 -0.95981138021E+01  0.54367089375E+02  0.40000011848E+02 0.  0.
         12    1    3    3    0    0 -0.35398877322E+02 -0.32519463438E+01  0.95981138021E+01  0.36820910625E+02  0.00000000000E+00 0. -1.
         11    1    4    4    0    0  0.20435150749E+02 -0.48902425642E+01  0.55226745365E+01  0.21725786355E+02  0.51100000000E-03 0. -1.
        -11    1    4    4    0    0  0.19035564532E+02  0.52448639484E+01 -0.18131566528E+02  0.26806995727E+02  0.51100000000E-03 0.  1.
         12    1    4    4    0    0 -0.40718379580E+01  0.28973249595E+01  0.30107781895E+01  0.58343072925E+01  0.00000000000E+00 0. -1.
</event>
<event>
 8    1  0.1262344E-006  0.9118800E+02  0.7816164E-02  0.1184000E+00
        -11   -1    0    0    0    0  0.00000000000E+00  0.00000000000E+00  0.45593999997E+02  0.45594000000E+02  0.51100000000E-03 0.  1.
         11   -1    0    0    0    0 -0.00000000000E+00 -0.00000000000E+00 -0.45593999997E+02  0.45594000000E+02  0.51100000000E-03 0. -1.
         23    2    1    2    0    0 -0.17763568394E-14  0.35527136788E-14  0.35527136788E-14  0.91188000000E+02  0.91188000000E+02 0.  0.
    9900012    2    3    3    0    0  0.12786730880E+02 -0.27348288292E+02 -0.21079628804E+02  0.54367080543E+02  0.39999991715E+02 0.  0.
        -12    1    3    3    0    0 -0.12786730880E+02  0.27348288292E+02  0.21079628804E+02  0.36820919457E+02  0.00000000000E+00 0.  1.
         11    1    4    4    0    0  0.60108901954E+01 -0.11167798628E+02 -0.14513862525E+02  0.19274406159E+02  0.51100000000E-03 0. -1.
        -11    1    4    4    0    0  0.99078855585E+01 -0.12413775831E+02  0.93564024645E+01  0.18433944069E+02  0.51100000000E-03 0.  1.
        -12    1    4    4    0    0 -0.31320448738E+01 -0.37667138336E+01 -0.15922168744E+02  0.16658730315E+02  0.00000000000E+00 0.  1.
</event>
<event>
 8    1  0.1262344E-006  0.9118800E+02  0.7816164E-02  0.1184000E+00
        -11   -1    0    0    0    0  0.00000000000E+00  0.00000000000E+00  0.45593999997E+02  0.45594000000E+02  0.51100000000E-03 0.  1.
         11   -1    0    0    0    0 -0.00000000000E+00 -0.00000000000E+00 -0.45593999997E+02  0.45594000000E+02  0.51100000000E-03 0. -1.
         23    2    1    2    0    0  0.00000000000E+00  0.35527136788E-14  0.00000000000E+00  0.91188000000E+02  0.91188000000E+02 0.  0.
    9900012    2    3    3    0    0 -0.12030872959E+02  0.28521808782E+02 -0.19938498864E+02  0.54367092661E+02  0.40000019339E+02 0.  0.
        -12    1    3    3    0    0  0.12030872959E+02 -0.28521808782E+02  0.19938498864E+02  0.36820907339E+02  0.00000000000E+00 0.  1.
         11    1    4    4    0    0 -0.80975246970E+01  0.22098802741E+02 -0.27910532449E+02  0.36509242811E+02  0.51100000000E-03 0. -1.
        -11    1    4    4    0    0 -0.76293720675E+01  0.18323310332E+01 -0.11978403395E+00  0.78472354136E+01  0.51100000000E-03 0.  1.
        -12    1    4    4    0    0  0.36960238060E+01  0.45906750078E+01  0.80918176195E+01  0.10010614436E+02  0.00000000000E+00 0.  1.
</event>
<event>
 8    1  0.1262344E-006  0.9118800E+02  0.7816164E-02  0.1184000E+00
        -11   -1    0    0    0    0  0.00000000000E+00  0.00000000000E+00  0.45593999997E+02  0.45594000000E+02  0.51100000000E-03 0.  1.
         11   -1    0    0    0    0 -0.00000000000E+00 -0.00000000000E+00 -0.45593999997E+02  0.45594000000E+02  0.51100000000E-03 0. -1.
         23    2    1    2    0    0  0.44408920985E-15 -0.13322676296E-14  0.71054273576E-14  0.91188000000E+02  0.91188000000E+02 0.  0.
    9900012    2    3    3    0    0  0.15944281592E+01  0.11955385154E+01 -0.36766935764E+02  0.54367094539E+02  0.40000023621E+02 0.  0.
        -12    1    3    3    0    0 -0.15944281592E+01 -0.11955385154E+01  0.36766935764E+02  0.36820905461E+02  0.00000000000E+00 0.  1.
         11    1    4    4    0    0  0.22819816159E+01  0.17998097120E+02 -0.21135943875E+02  0.27854390386E+02  0.51100000000E-03 0. -1.
        -11    1    4    4    0    0  0.58921050394E+01 -0.53557202797E+01 -0.78806261495E+01  0.11202897406E+02  0.51100000000E-03 0.  1.
         12    1    4    4    0    0 -0.65796584961E+01 -0.11446838325E+02 -0.77503657395E+01  0.15309806748E+02  0.00000000000E+00 0. -1.
</event>
<event>
 8    1  0.1262344E-006  0.9118800E+02  0.7816164E-02  0.1184000E+00
        -11   -1    0    0    0    0  0.00000000000E+00  0.00000000000E+00  0.45593999997E+02  0.45594000000E+02  0.51100000000E-03 0.  1.
         11   -1    0    0    0    0 -0.00000000000E+00 -0.00000000000E+00 -0.45593999997E+02  0.45594000000E+02  0.51100000000E-03 0. -1.
         23    2    1    2    0    0  0.00000000000E+00  0.00000000000E+00  0.00000000000E+00  0.91188000000E+02  0.91188000000E+02 0.  0.
    9900012    2    3    3    0    0  0.18740814571E+02 -0.24317027487E+02  0.20328396517E+02  0.54367086628E+02  0.40000005587E+02 0.  0.
         12    1    3    3    0    0 -0.18740814571E+02  0.24317027487E+02 -0.20328396517E+02  0.36820913372E+02  0.00000000000E+00 0. -1.
         11    1    4    4    0    0  0.19770747466E+02 -0.14857134600E+01  0.88696874534E+01  0.21720063436E+02  0.51100000000E-03 0. -1.
        -11    1    4    4    0    0 -0.80204665392E+01 -0.97972489357E+01 -0.17937794663E+01  0.12787948047E+02  0.51100000000E-03 0.  1.
         12    1    4    4    0    0  0.69905336433E+01 -0.13034065091E+02  0.13252488530E+02  0.19859075146E+02  0.00000000000E+00 0. -1.
</event>
<event>
 8    1  0.1262344E-006  0.9118800E+02  0.7816164E-02  0.1184000E+00
        -11   -1    0    0    0    0  0.00000000000E+00  0.00000000000E+00  0.45593999997E+02  0.45594000000E+02  0.51100000000E-03 0. -1.
         11   -1    0    0    0    0 -0.00000000000E+00 -0.00000000000E+00 -0.45593999997E+02  0.45594000000E+02  0.51100000000E-03 0.  1.
         23    2    1    2    0    0  0.00000000000E+00  0.00000000000E+00  0.00000000000E+00  0.91188000000E+02  0.91188000000E+02 0.  0.
    9900012    2    3    3    0    0 -0.25150098190E+02  0.20617356031E+02  0.17267580078E+02  0.54367188896E+02  0.40000238724E+02 0.  0.
        -12    1    3    3    0    0  0.25150098190E+02 -0.20617356031E+02 -0.17267580078E+02  0.36820811104E+02  0.00000000000E+00 0.  1.
         11    1    4    4    0    0 -0.15645272822E+02  0.24096397097E+02  0.83245996289E+00  0.28742023321E+02  0.51100000000E-03 0. -1.
        -11    1    4    4    0    0 -0.13964689252E+02 -0.45576043354E+01  0.14515126202E+02  0.20651227375E+02  0.51100000000E-03 0.  1.
        -12    1    4    4    0    0  0.44598638839E+01  0.10785632694E+01  0.19199939126E+01  0.49739381996E+01  0.00000000000E+00 0.  1.
</event>
<event>
 8    1  0.1262344E-006  0.9118800E+02  0.7816164E-02  0.1184000E+00
        -11   -1    0    0    0    0  0.00000000000E+00  0.00000000000E+00  0.45593999997E+02  0.45594000000E+02  0.51100000000E-03 0.  1.
         11   -1    0    0    0    0 -0.00000000000E+00 -0.00000000000E+00 -0.45593999997E+02  0.45594000000E+02  0.51100000000E-03 0. -1.
         23    2    1    2    0    0  0.00000000000E+00  0.00000000000E+00 -0.88817841970E-15  0.91188000000E+02  0.91188000000E+02 0.  0.
    9900012    2    3    3    0    0 -0.44935083416E+01  0.36446617517E+02  0.26892781837E+01  0.54367085253E+02  0.40000002452E+02 0.  0.
        -12    1    3    3    0    0  0.44935083416E+01 -0.36446617517E+02 -0.26892781837E+01  0.36820914747E+02  0.00000000000E+00 0.  1.
         11    1    4    4    0    0  0.77207614728E+01  0.77581071047E+01  0.81106446563E+01  0.13622809570E+02  0.51100000000E-03 0. -1.
        -11    1    4    4    0    0 -0.36443131846E+01  0.17232625444E+02  0.95500728655E+01  0.20036174542E+02  0.51100000000E-03 0.  1.
        -12    1    4    4    0    0 -0.85699566299E+01  0.11455884968E+02 -0.14971439338E+02  0.20708101142E+02  0.00000000000E+00 0.  1.
</event>
<event>
 8    1  0.1262344E-006  0.9118800E+02  0.7816164E-02  0.1184000E+00
        -11   -1    0    0    0    0  0.00000000000E+00  0.00000000000E+00  0.45593999997E+02  0.45594000000E+02  0.51100000000E-03 0. -1.
         11   -1    0    0    0    0 -0.00000000000E+00 -0.00000000000E+00 -0.45593999997E+02  0.45594000000E+02  0.51100000000E-03 0.  1.
         23    2    1    2    0    0  0.00000000000E+00 -0.35527136788E-14  0.00000000000E+00  0.91188000000E+02  0.91188000000E+02 0.  0.
    9900012    2    3    3    0    0 -0.19315214172E+02  0.17508872893E+02 -0.26002726871E+02  0.54367082939E+02  0.39999997176E+02 0.  0.
         12    1    3    3    0    0  0.19315214172E+02 -0.17508872893E+02  0.26002726871E+02  0.36820917061E+02  0.00000000000E+00 0. -1.
         11    1    4    4    0    0  0.91956440959E+01  0.78999918717E+01  0.24146153854E+01  0.12361234147E+02  0.51100000000E-03 0. -1.
        -11    1    4    4    0    0 -0.51530195095E+01  0.28846143921E+01 -0.95820746002E+01  0.11255699186E+02  0.51100000000E-03 0.  1.
         12    1    4    4    0    0 -0.23357838758E+02  0.67242666294E+01 -0.18835267656E+02  0.30750149606E+02  0.00000000000E+00 0. -1.
</event>
<event>
 8    1  0.1262344E-006  0.9118800E+02  0.7816164E-02  0.1184000E+00
        -11   -1    0    0    0    0  0.00000000000E+00  0.00000000000E+00  0.45593999997E+02  0.45594000000E+02  0.51100000000E-03 0.  1.
         11   -1    0    0    0    0 -0.00000000000E+00 -0.00000000000E+00 -0.45593999997E+02  0.45594000000E+02  0.51100000000E-03 0. -1.
         23    2    1    2    0    0 -0.10547118734E-14 -0.17763568394E-14  0.00000000000E+00  0.91188000000E+02  0.91188000000E+02 0.  0.
    9900012    2    3    3    0    0 -0.27457882812E+00  0.14455059364E+02  0.33863768946E+02  0.54367095856E+02  0.40000026623E+02 0.  0.
         12    1    3    3    0    0  0.27457882812E+00 -0.14455059364E+02 -0.33863768946E+02  0.36820904144E+02  0.00000000000E+00 0. -1.
         11    1    4    4    0    0 -0.83947337687E+01  0.98945796693E+01  0.20237983217E+01  0.13132784236E+02  0.51100000000E-03 0. -1.
        -11    1    4    4    0    0  0.14942529285E+02  0.83217724660E+00  0.98649967783E+01  0.17924560304E+02  0.51100000000E-03 0.  1.
        -12    1    4    4    0    0 -0.68223743447E+01  0.37283024479E+01  0.21974973846E+02  0.23309751315E+02  0.00000000000E+00 0.  1.
</event>
<event>
 8    1  0.1262344E-006  0.9118800E+02  0.7816164E-02  0.1184000E+00
        -11   -1    0    0    0    0  0.00000000000E+00  0.00000000000E+00  0.45593999997E+02  0.45594000000E+02  0.51100000000E-03 0.  1.
         11   -1    0    0    0    0 -0.00000000000E+00 -0.00000000000E+00 -0.45593999997E+02  0.45594000000E+02  0.51100000000E-03 0. -1.
         23    2    1    2    0    0 -0.17763568394E-14  0.00000000000E+00  0.00000000000E+00  0.91188000000E+02  0.91188000000E+02 0.  0.
    9900012    2    3    3    0    0  0.11041592741E+02  0.18303977042E+02 -0.29980428379E+02  0.54367103330E+02  0.40000043661E+02 0.  0.
        -12    1    3    3    0    0 -0.11041592741E+02 -0.18303977042E+02  0.29980428379E+02  0.36820896670E+02  0.00000000000E+00 0.  1.
         11    1    4    4    0    0 -0.83480856730E+01  0.18523051369E+02 -0.18663634799E+02  0.27588498157E+02  0.51100000000E-03 0. -1.
        -11    1    4    4    0    0  0.59898601274E+01  0.16732186597E+01  0.31478833006E+01  0.69704558362E+01  0.51100000000E-03 0.  1.
         12    1    4    4    0    0  0.13399818286E+02 -0.18922929863E+01 -0.14464676881E+02  0.19808149336E+02  0.00000000000E+00 0. -1.
</event>
<event>
 8    1  0.1262344E-006  0.9118800E+02  0.7816164E-02  0.1184000E+00
        -11   -1    0    0    0    0  0.00000000000E+00  0.00000000000E+00  0.45593999997E+02  0.45594000000E+02  0.51100000000E-03 0.  1.
         11   -1    0    0    0    0 -0.00000000000E+00 -0.00000000000E+00 -0.45593999997E+02  0.45594000000E+02  0.51100000000E-03 0. -1.
         23    2    1    2    0    0  0.00000000000E+00  0.88817841970E-15  0.00000000000E+00  0.91188000000E+02  0.91188000000E+02 0.  0.
    9900012    2    3    3    0    0 -0.61703352326E+01 -0.66554661608E+01 -0.35684903677E+02  0.54367073652E+02  0.39999976005E+02 0.  0.
        -12    1    3    3    0    0  0.61703352326E+01  0.66554661608E+01  0.35684903677E+02  0.36820926348E+02  0.00000000000E+00 0.  1.
         11    1    4    4    0    0  0.13572050586E+02 -0.16638509647E+01 -0.27060690485E+02  0.30319134667E+02  0.51100000000E-03 0.  1.
        -11    1    4    4    0    0 -0.10097694774E+02  0.31339545778E+00 -0.82349355970E+01  0.13033641894E+02  0.51100000000E-03 0. -1.
        -12    1    4    4    0    0 -0.96446910442E+01 -0.53050106539E+01 -0.38927759420E+00  0.11014297092E+02  0.00000000000E+00 0.  1.
</event>
<event>
 8    1  0.1262344E-006  0.9118800E+02  0.7816164E-02  0.1184000E+00
        -11   -1    0    0    0    0  0.00000000000E+00  0.00000000000E+00  0.45593999997E+02  0.45594000000E+02  0.51100000000E-03 0.  1.
         11   -1    0    0    0    0 -0.00000000000E+00 -0.00000000000E+00 -0.45593999997E+02  0.45594000000E+02  0.51100000000E-03 0. -1.
         23    2    1    2    0    0  0.00000000000E+00  0.00000000000E+00 -0.35527136788E-14  0.91188000000E+02  0.91188000000E+02 0.  0.
    9900012    2    3    3    0    0  0.24260451265E+02 -0.15886807881E+02  0.22689720438E+02  0.54367033503E+02  0.39999884477E+02 0.  0.
         12    1    3    3    0    0 -0.24260451265E+02  0.15886807881E+02 -0.22689720438E+02  0.36820966497E+02  0.00000000000E+00 0. -1.
         11    1    4    4    0    0  0.25273826193E+01  0.84784838566E+01  0.19634861715E+01  0.90624295648E+01  0.51100000000E-03 0. -1.
        -11    1    4    4    0    0  0.18529887132E+02 -0.16225837625E+02  0.25405446341E+02  0.35384618520E+02  0.51100000000E-03 0.  1.
        -12    1    4    4    0    0  0.32031815136E+01 -0.81394541125E+01 -0.46792120750E+01  0.99199854185E+01  0.00000000000E+00 0.  1.
</event>
<event>
 8    1  0.1262344E-006  0.9118800E+02  0.7816164E-02  0.1184000E+00
        -11   -1    0    0    0    0  0.00000000000E+00  0.00000000000E+00  0.45593999997E+02  0.45594000000E+02  0.51100000000E-03 0.  1.
         11   -1    0    0    0    0 -0.00000000000E+00 -0.00000000000E+00 -0.45593999997E+02  0.45594000000E+02  0.51100000000E-03 0. -1.
         23    2    1    2    0    0  0.00000000000E+00  0.00000000000E+00 -0.44408920985E-15  0.91188000000E+02  0.91188000000E+02 0.  0.
    9900012    2    3    3    0    0 -0.34550839119E+02 -0.12376722588E+02  0.29723787515E+01  0.54367098581E+02  0.40000032836E+02 0.  0.
         12    1    3    3    0    0  0.34550839119E+02  0.12376722588E+02 -0.29723787515E+01  0.36820901419E+02  0.00000000000E+00 0. -1.
         11    1    4    4    0    0 -0.18763679014E+02 -0.14798177083E+02  0.78737740554E+01  0.25160644134E+02  0.51100000000E-03 0. -1.
        -11    1    4    4    0    0 -0.21560923977E+02  0.50979699277E+01 -0.21049817521E+01  0.22255194642E+02  0.51100000000E-03 0.  1.
         12    1    4    4    0    0  0.57737638723E+01 -0.26765154334E+01 -0.27964135518E+01  0.69512598046E+01  0.00000000000E+00 0. -1.
</event>
<event>
 8    1  0.1262344E-006  0.9118800E+02  0.7816164E-02  0.1184000E+00
        -11   -1    0    0    0    0  0.00000000000E+00  0.00000000000E+00  0.45593999997E+02  0.45594000000E+02  0.51100000000E-03 0.  1.
         11   -1    0    0    0    0 -0.00000000000E+00 -0.00000000000E+00 -0.45593999997E+02  0.45594000000E+02  0.51100000000E-03 0. -1.
         23    2    1    2    0    0  0.00000000000E+00  0.00000000000E+00  0.35527136788E-14  0.91188000000E+02  0.91188000000E+02 0.  0.
    9900012    2    3    3    0    0 -0.62656052288E+01  0.19638124390E+02  0.30509945847E+02  0.54367210573E+02  0.40000288142E+02 0.  0.
         12    1    3    3    0    0  0.62656052288E+01 -0.19638124390E+02 -0.30509945847E+02  0.36820789427E+02  0.00000000000E+00 0. -1.
         11    1    4    4    0    0  0.86525384056E+01  0.14049731553E+02  0.12535373066E+02  0.20721895563E+02  0.51100000000E-03 0. -1.
        -11    1    4    4    0    0 -0.16492511956E+02  0.99974596385E+01  0.51044706259E+01  0.19950132092E+02  0.51100000000E-03 0.  1.
        -12    1    4    4    0    0  0.15743683215E+01 -0.44090668014E+01  0.12870102155E+02  0.13695182918E+02  0.00000000000E+00 0.  1.
</event>
<event>
 8    1  0.1262344E-006  0.9118800E+02  0.7816164E-02  0.1184000E+00
        -11   -1    0    0    0    0  0.00000000000E+00  0.00000000000E+00  0.45593999997E+02  0.45594000000E+02  0.51100000000E-03 0. -1.
         11   -1    0    0    0    0 -0.00000000000E+00 -0.00000000000E+00 -0.45593999997E+02  0.45594000000E+02  0.51100000000E-03 0.  1.
         23    2    1    2    0    0 -0.35527136788E-14 -0.35527136788E-14  0.35527136788E-14  0.91188000000E+02  0.91188000000E+02 0.  0.
    9900012    2    3    3    0    0  0.16376584579E+02 -0.20111195463E+02 -0.26136638670E+02  0.54367128386E+02  0.40000100783E+02 0.  0.
         12    1    3    3    0    0 -0.16376584579E+02  0.20111195463E+02  0.26136638670E+02  0.36820871614E+02  0.00000000000E+00 0. -1.
         11    1    4    4    0    0  0.10468089428E+02 -0.11193667585E+02  0.29423066129E+01  0.15605648296E+02  0.51100000000E-03 0. -1.
        -11    1    4    4    0    0  0.10690562144E+02 -0.37427504045E+01 -0.29576729238E+01  0.11706584853E+02  0.51100000000E-03 0.  1.
         12    1    4    4    0    0 -0.47820669930E+01 -0.51747774732E+01 -0.26121272359E+02  0.27054895237E+02  0.00000000000E+00 0. -1.
</event>
<event>
 8    1  0.1262344E-006  0.9118800E+02  0.7816164E-02  0.1184000E+00
        -11   -1    0    0    0    0  0.00000000000E+00  0.00000000000E+00  0.45593999997E+02  0.45594000000E+02  0.51100000000E-03 0. -1.
         11   -1    0    0    0    0 -0.00000000000E+00 -0.00000000000E+00 -0.45593999997E+02  0.45594000000E+02  0.51100000000E-03 0.  1.
         23    2    1    2    0    0  0.00000000000E+00  0.00000000000E+00  0.35527136788E-14  0.91188000000E+02  0.91188000000E+02 0.  0.
    9900012    2    3    3    0    0  0.23006010145E+02 -0.10977912429E+02 -0.26570448621E+02  0.54367084694E+02  0.40000001176E+02 0.  0.
         12    1    3    3    0    0 -0.23006010145E+02  0.10977912429E+02  0.26570448621E+02  0.36820915306E+02  0.00000000000E+00 0. -1.
         11    1    4    4    0    0  0.28161554733E+02 -0.16045013134E+02 -0.18652878824E+02  0.37395795220E+02  0.51100000000E-03 0. -1.
        -11    1    4    4    0    0 -0.62533458980E+01  0.89818554454E+01 -0.58654650190E+01  0.12416994093E+02  0.51100000000E-03 0.  1.
        -12    1    4    4    0    0  0.10978013093E+01 -0.39147547401E+01 -0.20521047777E+01  0.45542953800E+01  0.00000000000E+00 0.  1.
</event>
<event>
 8    1  0.1262344E-006  0.9118800E+02  0.7816164E-02  0.1184000E+00
        -11   -1    0    0    0    0  0.00000000000E+00  0.00000000000E+00  0.45593999997E+02  0.45594000000E+02  0.51100000000E-03 0.  1.
         11   -1    0    0    0    0 -0.00000000000E+00 -0.00000000000E+00 -0.45593999997E+02  0.45594000000E+02  0.51100000000E-03 0. -1.
         23    2    1    2    0    0  0.00000000000E+00  0.00000000000E+00 -0.17763568394E-14  0.91188000000E+02  0.91188000000E+02 0.  0.
    9900012    2    3    3    0    0  0.26873695228E+02 -0.20596006395E+02  0.14470321169E+02  0.54367066154E+02  0.39999958911E+02 0.  0.
         12    1    3    3    0    0 -0.26873695228E+02  0.20596006395E+02 -0.14470321169E+02  0.36820933846E+02  0.00000000000E+00 0. -1.
         11    1    4    4    0    0  0.74602512458E+00 -0.22830586684E+02  0.63517054060E+01  0.23709415928E+02  0.51100000000E-03 0. -1.
        -11    1    4    4    0    0  0.90742673876E+01  0.22729410910E+00  0.98557504002E+01  0.13398873365E+02  0.51100000000E-03 0.  1.
         12    1    4    4    0    0  0.17053402715E+02  0.20072861804E+01 -0.17371346375E+01  0.17258776861E+02  0.00000000000E+00 0. -1.
</event>
<event>
 8    1  0.1262344E-006  0.9118800E+02  0.7816164E-02  0.1184000E+00
        -11   -1    0    0    0    0  0.00000000000E+00  0.00000000000E+00  0.45593999997E+02  0.45594000000E+02  0.51100000000E-03 0.  1.
         11   -1    0    0    0    0 -0.00000000000E+00 -0.00000000000E+00 -0.45593999997E+02  0.45594000000E+02  0.51100000000E-03 0. -1.
         23    2    1    2    0    0  0.00000000000E+00  0.44408920985E-15 -0.35527136788E-14  0.91188000000E+02  0.91188000000E+02 0.  0.
    9900012    2    3    3    0    0 -0.23809879259E+02 -0.39170659140E+01  0.27812337774E+02  0.54367083551E+02  0.39999998572E+02 0.  0.
         12    1    3    3    0    0  0.23809879259E+02  0.39170659140E+01 -0.27812337774E+02  0.36820916449E+02  0.00000000000E+00 0. -1.
         11    1    4    4    0    0 -0.10904047125E+02 -0.89148082458E+01  0.19774721366E+02  0.24277801695E+02  0.51100000000E-03 0. -1.
        -11    1    4    4    0    0 -0.41830132877E+00 -0.31470748590E+00 -0.86017676231E+01  0.86176808543E+01  0.51100000000E-03 0.  1.
        -12    1    4    4    0    0 -0.12487530805E+02  0.53124498177E+01  0.16639384031E+02  0.21471601002E+02  0.00000000000E+00 0.  1.
</event>
<event>
 8    1  0.1262344E-006  0.9118800E+02  0.7816164E-02  0.1184000E+00
        -11   -1    0    0    0    0  0.00000000000E+00  0.00000000000E+00  0.45593999997E+02  0.45594000000E+02  0.51100000000E-03 0.  1.
         11   -1    0    0    0    0 -0.00000000000E+00 -0.00000000000E+00 -0.45593999997E+02  0.45594000000E+02  0.51100000000E-03 0. -1.
         23    2    1    2    0    0  0.00000000000E+00  0.00000000000E+00  0.00000000000E+00  0.91188000000E+02  0.91188000000E+02 0.  0.
    9900012    2    3    3    0    0 -0.98577178591E+01  0.11588675978E+02 -0.33530714430E+02  0.54367070863E+02  0.39999969647E+02 0.  0.
        -12    1    3    3    0    0  0.98577178591E+01 -0.11588675978E+02  0.33530714430E+02  0.36820929137E+02  0.00000000000E+00 0.  1.
         11    1    4    4    0    0  0.10203319230E+02  0.87122343077E+01 -0.65826765672E+01  0.14944643890E+02  0.51100000000E-03 0. -1.
        -11    1    4    4    0    0 -0.16612358156E+02 -0.21250066548E+01 -0.62905615685E+01  0.17890144267E+02  0.51100000000E-03 0.  1.
        -12    1    4    4    0    0 -0.34486789333E+01  0.50014483255E+01 -0.20657476294E+02  0.21532282707E+02  0.00000000000E+00 0.  1.
</event>
<event>
 8    1  0.1262344E-006  0.9118800E+02  0.7816164E-02  0.1184000E+00
        -11   -1    0    0    0    0  0.00000000000E+00  0.00000000000E+00  0.45593999997E+02  0.45594000000E+02  0.51100000000E-03 0. -1.
         11   -1    0    0    0    0 -0.00000000000E+00 -0.00000000000E+00 -0.45593999997E+02  0.45594000000E+02  0.51100000000E-03 0.  1.
         23    2    1    2    0    0 -0.44408920985E-15  0.00000000000E+00  0.00000000000E+00  0.91188000000E+02  0.91188000000E+02 0.  0.
    9900012    2    3    3    0    0  0.32363238164E+01  0.33137916994E+02 -0.15722104433E+02  0.54367083358E+02  0.39999998131E+02 0.  0.
         12    1    3    3    0    0 -0.32363238164E+01 -0.33137916994E+02  0.15722104433E+02  0.36820916642E+02  0.00000000000E+00 0. -1.
         11    1    4    4    0    0  0.50300532609E+01 -0.28932265706E+01 -0.10968096388E+02  0.12408518624E+02  0.51100000000E-03 0.  1.
        -11    1    4    4    0    0 -0.47361422384E+01  0.69412378587E+01 -0.91143281375E+01  0.12396886866E+02  0.51100000000E-03 0. -1.
         12    1    4    4    0    0  0.29424127939E+01  0.29089905706E+02  0.43603200931E+01  0.29561677868E+02  0.00000000000E+00 0. -1.
</event>
<event>
 8    1  0.1262344E-006  0.9118800E+02  0.7816164E-02  0.1184000E+00
        -11   -1    0    0    0    0  0.00000000000E+00  0.00000000000E+00  0.45593999997E+02  0.45594000000E+02  0.51100000000E-03 0.  1.
         11   -1    0    0    0    0 -0.00000000000E+00 -0.00000000000E+00 -0.45593999997E+02  0.45594000000E+02  0.51100000000E-03 0. -1.
         23    2    1    2    0    0 -0.35527136788E-14 -0.17763568394E-14  0.00000000000E+00  0.91188000000E+02  0.91188000000E+02 0.  0.
    9900012    2    3    3    0    0  0.17606244816E+02  0.10367402471E+02  0.30632163208E+02  0.54366914827E+02  0.39999613930E+02 0.  0.
         12    1    3    3    0    0 -0.17606244816E+02 -0.10367402471E+02 -0.30632163208E+02  0.36821085173E+02  0.00000000000E+00 0. -1.
         11    1    4    4    0    0  0.15038496934E+01 -0.56685549954E+01  0.62911405635E-01  0.58649840359E+01  0.51100000000E-03 0. -1.
        -11    1    4    4    0    0  0.62493542342E+01  0.23370739986E+02  0.14251235773E+02  0.28077457811E+02  0.51100000000E-03 0.  1.
        -12    1    4    4    0    0  0.98530408888E+01 -0.73347825199E+01  0.16318016029E+02  0.20424472980E+02  0.00000000000E+00 0.  1.
</event>
<event>
 8    1  0.1262344E-006  0.9118800E+02  0.7816164E-02  0.1184000E+00
        -11   -1    0    0    0    0  0.00000000000E+00  0.00000000000E+00  0.45593999997E+02  0.45594000000E+02  0.51100000000E-03 0.  1.
         11   -1    0    0    0    0 -0.00000000000E+00 -0.00000000000E+00 -0.45593999997E+02  0.45594000000E+02  0.51100000000E-03 0. -1.
         23    2    1    2    0    0  0.00000000000E+00 -0.44408920985E-15  0.71054273576E-14  0.91188000000E+02  0.91188000000E+02 0.  0.
    9900012    2    3    3    0    0 -0.61725127415E+01 -0.14419314496E+01  0.36271217099E+02  0.54367078370E+02  0.39999986760E+02 0.  0.
         12    1    3    3    0    0  0.61725127415E+01  0.14419314496E+01 -0.36271217099E+02  0.36820921630E+02  0.00000000000E+00 0. -1.
         11    1    4    4    0    0 -0.76500316004E+01 -0.33871748959E+01 -0.64844039808E+01  0.10585057039E+02  0.51100000000E-03 0. -1.
        -11    1    4    4    0    0 -0.34079612769E+01  0.27193653232E+01  0.23513286600E+02  0.23914091971E+02  0.51100000000E-03 0.  1.
         12    1    4    4    0    0  0.48854801358E+01 -0.77412187702E+00  0.19242334480E+02  0.19867929360E+02  0.00000000000E+00 0. -1.
</event>
<event>
 8    1  0.1262344E-006  0.9118800E+02  0.7816164E-02  0.1184000E+00
        -11   -1    0    0    0    0  0.00000000000E+00  0.00000000000E+00  0.45593999997E+02  0.45594000000E+02  0.51100000000E-03 0. -1.
         11   -1    0    0    0    0 -0.00000000000E+00 -0.00000000000E+00 -0.45593999997E+02  0.45594000000E+02  0.51100000000E-03 0.  1.
         23    2    1    2    0    0  0.44408920985E-15  0.00000000000E+00  0.00000000000E+00  0.91188000000E+02  0.91188000000E+02 0.  0.
    9900012    2    3    3    0    0 -0.37141206026E+01  0.26269849679E+02 -0.25532242258E+02  0.54366877139E+02  0.39999528012E+02 0.  0.
         12    1    3    3    0    0  0.37141206026E+01 -0.26269849679E+02  0.25532242258E+02  0.36821122861E+02  0.00000000000E+00 0. -1.
         11    1    4    4    0    0 -0.10375221999E+02  0.17177302699E+02 -0.25987839335E+02  0.32834018230E+02  0.51100000000E-03 0. -1.
        -11    1    4    4    0    0  0.60268706228E+00  0.13824652857E+02  0.12694763601E+00  0.13838366026E+02  0.51100000000E-03 0.  1.
         12    1    4    4    0    0  0.60584143342E+01 -0.47321058772E+01  0.32864944084E+00  0.76944928834E+01  0.00000000000E+00 0. -1.
</event>
<event>
 8    1  0.1262344E-006  0.9118800E+02  0.7816164E-02  0.1184000E+00
        -11   -1    0    0    0    0  0.00000000000E+00  0.00000000000E+00  0.45593999997E+02  0.45594000000E+02  0.51100000000E-03 0. -1.
         11   -1    0    0    0    0 -0.00000000000E+00 -0.00000000000E+00 -0.45593999997E+02  0.45594000000E+02  0.51100000000E-03 0.  1.
         23    2    1    2    0    0  0.00000000000E+00  0.00000000000E+00  0.00000000000E+00  0.91188000000E+02  0.91188000000E+02 0.  0.
    9900012    2    3    3    0    0  0.26029980409E+02  0.25156052315E+02 -0.67374130714E+01  0.54367087694E+02  0.40000008015E+02 0.  0.
         12    1    3    3    0    0 -0.26029980409E+02 -0.25156052315E+02  0.67374130714E+01  0.36820912306E+02  0.00000000000E+00 0. -1.
         11    1    4    4    0    0  0.67146298879E+01 -0.10356036907E+01  0.38372405361E+01  0.78027651976E+01  0.51100000000E-03 0. -1.
        -11    1    4    4    0    0  0.25836129667E+02  0.10839000563E+02 -0.27872978945E+01  0.28155968447E+02  0.51100000000E-03 0.  1.
        -12    1    4    4    0    0 -0.65207791455E+01  0.15352655442E+02 -0.77873557129E+01  0.18408354049E+02  0.00000000000E+00 0.  1.
</event>
<event>
 8    1  0.1262344E-006  0.9118800E+02  0.7816164E-02  0.1184000E+00
        -11   -1    0    0    0    0  0.00000000000E+00  0.00000000000E+00  0.45593999997E+02  0.45594000000E+02  0.51100000000E-03 0. -1.
         11   -1    0    0    0    0 -0.00000000000E+00 -0.00000000000E+00 -0.45593999997E+02  0.45594000000E+02  0.51100000000E-03 0.  1.
         23    2    1    2    0    0  0.00000000000E+00  0.00000000000E+00  0.00000000000E+00  0.91188000000E+02  0.91188000000E+02 0.  0.
    9900012    2    3    3    0    0 -0.31159870443E+02 -0.11597252786E+02  0.15822315288E+02  0.54367089375E+02  0.40000011848E+02 0.  0.
        -12    1    3    3    0    0  0.31159870443E+02  0.11597252786E+02 -0.15822315288E+02  0.36820910625E+02  0.00000000000E+00 0.  1.
         11    1    4    4    0    0 -0.44702935979E+01 -0.37266003084E+01 -0.10291250035E+02  0.11822897372E+02  0.51100000000E-03 0. -1.
        -11    1    4    4    0    0 -0.47134726117E+01  0.23083868110E+01  0.15010078214E+02  0.15901192471E+02  0.51100000000E-03 0.  1.
         12    1    4    4    0    0 -0.21976104233E+02 -0.10179039288E+02  0.11103487109E+02  0.26642999532E+02  0.00000000000E+00 0. -1.
</event>
<event>
 8    1  0.1262344E-006  0.9118800E+02  0.7816164E-02  0.1184000E+00
        -11   -1    0    0    0    0  0.00000000000E+00  0.00000000000E+00  0.45593999997E+02  0.45594000000E+02  0.51100000000E-03 0. -1.
         11   -1    0    0    0    0 -0.00000000000E+00 -0.00000000000E+00 -0.45593999997E+02  0.45594000000E+02  0.51100000000E-03 0.  1.
         23    2    1    2    0    0  0.00000000000E+00  0.00000000000E+00  0.00000000000E+00  0.91188000000E+02  0.91188000000E+02 0.  0.
    9900012    2    3    3    0    0 -0.31843049743E+02 -0.16699640270E+02  0.79322889760E+01  0.54367095469E+02  0.40000025740E+02 0.  0.
        -12    1    3    3    0    0  0.31843049743E+02  0.16699640270E+02 -0.79322889760E+01  0.36820904531E+02  0.00000000000E+00 0.  1.
         11    1    4    4    0    0 -0.10618269513E+02  0.52087258649E+01 -0.35516150420E+01  0.12348783027E+02  0.51100000000E-03 0. -1.
        -11    1    4    4    0    0  0.31741032855E+01 -0.69711492312E+01 -0.48592010032E+01  0.90710356586E+01  0.51100000000E-03 0.  1.
        -12    1    4    4    0    0 -0.24398883516E+02 -0.14937216904E+02  0.16343105021E+02  0.32947276783E+02  0.00000000000E+00 0.  1.
</event>
<event>
 8    1  0.1262344E-006  0.9118800E+02  0.7816164E-02  0.1184000E+00
        -11   -1    0    0    0    0  0.00000000000E+00  0.00000000000E+00  0.45593999997E+02  0.45594000000E+02  0.51100000000E-03 0.  1.
         11   -1    0    0    0    0 -0.00000000000E+00 -0.00000000000E+00 -0.45593999997E+02  0.45594000000E+02  0.51100000000E-03 0. -1.
         23    2    1    2    0    0  0.17763568394E-14 -0.35527136788E-14  0.00000000000E+00  0.91188000000E+02  0.91188000000E+02 0.  0.
    9900012    2    3    3    0    0 -0.10954528453E+02  0.25156518633E+02  0.24554581272E+02  0.54367087670E+02  0.40000007962E+02 0.  0.
         12    1    3    3    0    0  0.10954528453E+02 -0.25156518633E+02 -0.24554581272E+02  0.36820912330E+02  0.00000000000E+00 0. -1.
         11    1    4    4    0    0 -0.14878655983E+02  0.16439688792E+01  0.13245759404E+02  0.19988176004E+02  0.51100000000E-03 0.  1.
        -11    1    4    4    0    0  0.65824082465E+01  0.75767982678E+01  0.14768948543E+02  0.17856590146E+02  0.51100000000E-03 0. -1.
        -12    1    4    4    0    0 -0.26582807167E+01  0.15935751486E+02 -0.34601266756E+01  0.16522321520E+02  0.00000000000E+00 0.  1.
</event>
<event>
 8    1  0.1262344E-006  0.9118800E+02  0.7816164E-02  0.1184000E+00
        -11   -1    0    0    0    0  0.00000000000E+00  0.00000000000E+00  0.45593999997E+02  0.45594000000E+02  0.51100000000E-03 0.  1.
         11   -1    0    0    0    0 -0.00000000000E+00 -0.00000000000E+00 -0.45593999997E+02  0.45594000000E+02  0.51100000000E-03 0. -1.
         23    2    1    2    0    0 -0.71054273576E-14  0.88817841970E-15  0.00000000000E+00  0.91188000000E+02  0.91188000000E+02 0.  0.
    9900012    2    3    3    0    0  0.32628824452E+02 -0.38514576404E+01 -0.16622483807E+02  0.54367070096E+02  0.39999967898E+02 0.  0.
        -12    1    3    3    0    0 -0.32628824452E+02  0.38514576404E+01  0.16622483807E+02  0.36820929904E+02  0.00000000000E+00 0.  1.
         11    1    4    4    0    0  0.51718717923E+01 -0.45753855057E+01  0.35017967998E+01  0.77424150916E+01  0.51100000000E-03 0. -1.
        -11    1    4    4    0    0  0.29661529179E+02 -0.35620488014E+01 -0.25590814468E+02  0.39336805797E+02  0.51100000000E-03 0.  1.
        -12    1    4    4    0    0 -0.22045765199E+01  0.42859766668E+01  0.54665338608E+01  0.72878492075E+01  0.00000000000E+00 0.  1.
</event>
<event>
 8    1  0.1262344E-006  0.9118800E+02  0.7816164E-02  0.1184000E+00
        -11   -1    0    0    0    0  0.00000000000E+00  0.00000000000E+00  0.45593999997E+02  0.45594000000E+02  0.51100000000E-03 0. -1.
         11   -1    0    0    0    0 -0.00000000000E+00 -0.00000000000E+00 -0.45593999997E+02  0.45594000000E+02  0.51100000000E-03 0.  1.
         23    2    1    2    0    0  0.17763568394E-14  0.00000000000E+00 -0.17763568394E-14  0.91188000000E+02  0.91188000000E+02 0.  0.
    9900012    2    3    3    0    0  0.11571683065E+02 -0.32628679866E+02 -0.12539919692E+02  0.54367025207E+02  0.39999865565E+02 0.  0.
        -12    1    3    3    0    0 -0.11571683065E+02  0.32628679866E+02  0.12539919692E+02  0.36820974793E+02  0.00000000000E+00 0.  1.
         11    1    4    4    0    0  0.59624409958E+01 -0.47717916077E+01  0.12128148975E+02  0.14332225772E+02  0.51100000000E-03 0. -1.
        -11    1    4    4    0    0  0.33659639679E+01 -0.20668944410E+02 -0.92842744199E+01  0.22907045384E+02  0.51100000000E-03 0.  1.
        -12    1    4    4    0    0  0.22432781017E+01 -0.71879438483E+01 -0.15383794247E+02  0.17127754051E+02  0.00000000000E+00 0.  1.
</event>
<event>
 8    1  0.1262344E-006  0.9118800E+02  0.7816164E-02  0.1184000E+00
        -11   -1    0    0    0    0  0.00000000000E+00  0.00000000000E+00  0.45593999997E+02  0.45594000000E+02  0.51100000000E-03 0.  1.
         11   -1    0    0    0    0 -0.00000000000E+00 -0.00000000000E+00 -0.45593999997E+02  0.45594000000E+02  0.51100000000E-03 0. -1.
         23    2    1    2    0    0  0.17763568394E-14  0.00000000000E+00  0.71054273576E-14  0.91188000000E+02  0.91188000000E+02 0.  0.
    9900012    2    3    3    0    0  0.13768447944E+02  0.10516217286E+02  0.32490287234E+02  0.54367085436E+02  0.40000002868E+02 0.  0.
         12    1    3    3    0    0 -0.13768447944E+02 -0.10516217286E+02 -0.32490287234E+02  0.36820914564E+02  0.00000000000E+00 0. -1.
         11    1    4    4    0    0  0.32645894947E+00 -0.11683570334E+02  0.15529271845E+01  0.11790842815E+02  0.51100000000E-03 0. -1.
        -11    1    4    4    0    0  0.47362794755E+01  0.19093970005E+02  0.23923076124E+02  0.30972981860E+02  0.51100000000E-03 0.  1.
         12    1    4    4    0    0  0.87057095193E+01  0.31058176149E+01  0.70142839252E+01  0.11603260760E+02  0.00000000000E+00 0. -1.
</event>
<event>
 8    1  0.1262344E-006  0.9118800E+02  0.7816164E-02  0.1184000E+00
        -11   -1    0    0    0    0  0.00000000000E+00  0.00000000000E+00  0.45593999997E+02  0.45594000000E+02  0.51100000000E-03 0.  1.
         11   -1    0    0    0    0 -0.00000000000E+00 -0.00000000000E+00 -0.45593999997E+02  0.45594000000E+02  0.51100000000E-03 0. -1.
         23    2    1    2    0    0  0.00000000000E+00  0.00000000000E+00 -0.44408920985E-15  0.91188000000E+02  0.91188000000E+02 0.  0.
    9900012    2    3    3    0    0 -0.34895257274E+02 -0.11533520836E+02 -0.22539856505E+01  0.54367061196E+02  0.39999947609E+02 0.  0.
         12    1    3    3    0    0  0.34895257274E+02  0.11533520836E+02  0.22539856505E+01  0.36820938804E+02  0.00000000000E+00 0. -1.
         11    1    4    4    0    0 -0.14285805030E+02  0.52827196370E+01  0.78731175337E+01  0.17145767176E+02  0.51100000000E-03 0. -1.
        -11    1    4    4    0    0 -0.25135093604E+02 -0.89536683261E+01 -0.85086754222E+01  0.28006046931E+02  0.51100000000E-03 0.  1.
         12    1    4    4    0    0  0.45256413600E+01 -0.78625721472E+01 -0.16184277621E+01  0.92152470890E+01  0.00000000000E+00 0. -1.
</event>
<event>
 8    1  0.1262344E-006  0.9118800E+02  0.7816164E-02  0.1184000E+00
        -11   -1    0    0    0    0  0.00000000000E+00  0.00000000000E+00  0.45593999997E+02  0.45594000000E+02  0.51100000000E-03 0. -1.
         11   -1    0    0    0    0 -0.00000000000E+00 -0.00000000000E+00 -0.45593999997E+02  0.45594000000E+02  0.51100000000E-03 0.  1.
         23    2    1    2    0    0  0.00000000000E+00  0.17763568394E-14  0.00000000000E+00  0.91188000000E+02  0.91188000000E+02 0.  0.
    9900012    2    3    3    0    0 -0.33890395052E+02  0.11712231186E+02 -0.83692426699E+01  0.54367089378E+02  0.40000011855E+02 0.  0.
         12    1    3    3    0    0  0.33890395052E+02 -0.11712231186E+02  0.83692426699E+01  0.36820910622E+02  0.00000000000E+00 0. -1.
         11    1    4    4    0    0 -0.63686493026E+01  0.42622627698E+01 -0.23686541283E+00  0.76669865882E+01  0.51100000000E-03 0. -1.
        -11    1    4    4    0    0 -0.74380926033E+01  0.19203481612E+02 -0.10841024735E+02  0.23272875739E+02  0.51100000000E-03 0.  1.
        -12    1    4    4    0    0 -0.20083653147E+02 -0.11753513195E+02  0.27086474781E+01  0.23427227051E+02  0.00000000000E+00 0.  1.
</event>
<event>
 8    1  0.1262344E-006  0.9118800E+02  0.7816164E-02  0.1184000E+00
        -11   -1    0    0    0    0  0.00000000000E+00  0.00000000000E+00  0.45593999997E+02  0.45594000000E+02  0.51100000000E-03 0.  1.
         11   -1    0    0    0    0 -0.00000000000E+00 -0.00000000000E+00 -0.45593999997E+02  0.45594000000E+02  0.51100000000E-03 0. -1.
         23    2    1    2    0    0  0.00000000000E+00  0.00000000000E+00  0.00000000000E+00  0.91188000000E+02  0.91188000000E+02 0.  0.
    9900012    2    3    3    0    0 -0.33901907490E+02  0.11332373594E+02 -0.88327939437E+01  0.54367078344E+02  0.39999986701E+02 0.  0.
        -12    1    3    3    0    0  0.33901907490E+02 -0.11332373594E+02  0.88327939437E+01  0.36820921656E+02  0.00000000000E+00 0.  1.
         11    1    4    4    0    0 -0.17803188392E+02  0.19203681602E+02 -0.71729734774E+01  0.27151177742E+02  0.51100000000E-03 0.  1.
        -11    1    4    4    0    0 -0.19749248076E+02 -0.10706761857E+02 -0.21508597391E+01  0.22567537458E+02  0.51100000000E-03 0. -1.
        -12    1    4    4    0    0  0.36505289780E+01  0.28354538492E+01  0.49103927280E+00  0.46483631439E+01  0.00000000000E+00 0.  1.
</event>
<event>
 8    1  0.1262344E-006  0.9118800E+02  0.7816164E-02  0.1184000E+00
        -11   -1    0    0    0    0  0.00000000000E+00  0.00000000000E+00  0.45593999997E+02  0.45594000000E+02  0.51100000000E-03 0.  1.
         11   -1    0    0    0    0 -0.00000000000E+00 -0.00000000000E+00 -0.45593999997E+02  0.45594000000E+02  0.51100000000E-03 0. -1.
         23    2    1    2    0    0 -0.19984014443E-14 -0.71054273576E-14  0.00000000000E+00  0.91188000000E+02  0.91188000000E+02 0.  0.
    9900012    2    3    3    0    0  0.17223496645E+01  0.32832360538E+02  0.16578587812E+02  0.54367082566E+02  0.39999996325E+02 0.  0.
        -12    1    3    3    0    0 -0.17223496645E+01 -0.32832360538E+02 -0.16578587812E+02  0.36820917434E+02  0.00000000000E+00 0.  1.
         11    1    4    4    0    0 -0.13791636993E+02  0.23277123530E+02  0.92524688192E+01  0.28594438450E+02  0.51100000000E-03 0. -1.
        -11    1    4    4    0    0  0.85974699614E+01 -0.37237610176E+01  0.50024907212E+01  0.10621101616E+02  0.51100000000E-03 0.  1.
         12    1    4    4    0    0  0.69165166961E+01  0.13278998026E+02  0.23236282716E+01  0.15151542500E+02  0.00000000000E+00 0. -1.
</event>
<event>
 8    1  0.1262344E-006  0.9118800E+02  0.7816164E-02  0.1184000E+00
        -11   -1    0    0    0    0  0.00000000000E+00  0.00000000000E+00  0.45593999997E+02  0.45594000000E+02  0.51100000000E-03 0.  1.
         11   -1    0    0    0    0 -0.00000000000E+00 -0.00000000000E+00 -0.45593999997E+02  0.45594000000E+02  0.51100000000E-03 0. -1.
         23    2    1    2    0    0 -0.88817841970E-15  0.88817841970E-15  0.71054273576E-14  0.91188000000E+02  0.91188000000E+02 0.  0.
    9900012    2    3    3    0    0 -0.47042374635E+01 -0.59919533906E+01 -0.36024268600E+02  0.54367064601E+02  0.39999955370E+02 0.  0.
        -12    1    3    3    0    0  0.47042374635E+01  0.59919533906E+01  0.36024268600E+02  0.36820935399E+02  0.00000000000E+00 0.  1.
         11    1    4    4    0    0  0.38648860111E+01 -0.12480990706E+02 -0.20427385206E+02  0.24248516233E+02  0.51100000000E-03 0. -1.
        -11    1    4    4    0    0  0.57640397501E+01 -0.47569251575E+01 -0.55899256994E+01  0.93327252601E+01  0.51100000000E-03 0.  1.
        -12    1    4    4    0    0 -0.14333163225E+02  0.11245962473E+02 -0.10006957694E+02  0.20785823108E+02  0.00000000000E+00 0.  1.
</event>
<event>
 8    1  0.1262344E-006  0.9118800E+02  0.7816164E-02  0.1184000E+00
        -11   -1    0    0    0    0  0.00000000000E+00  0.00000000000E+00  0.45593999997E+02  0.45594000000E+02  0.51100000000E-03 0. -1.
         11   -1    0    0    0    0 -0.00000000000E+00 -0.00000000000E+00 -0.45593999997E+02  0.45594000000E+02  0.51100000000E-03 0.  1.
         23    2    1    2    0    0  0.00000000000E+00  0.88817841970E-15  0.00000000000E+00  0.91188000000E+02  0.91188000000E+02 0.  0.
    9900012    2    3    3    0    0 -0.34202688161E+02 -0.46973399026E+01 -0.12801955231E+02  0.54367096462E+02  0.40000028005E+02 0.  0.
         12    1    3    3    0    0  0.34202688161E+02  0.46973399026E+01  0.12801955231E+02  0.36820903538E+02  0.00000000000E+00 0. -1.
         11    1    4    4    0    0  0.31837552117E+01  0.10902475038E+01 -0.12758743228E+01  0.35989988074E+01  0.51100000000E-03 0. -1.
        -11    1    4    4    0    0 -0.47994287518E+00 -0.67563052984E+01  0.67590958694E+01  0.95688757794E+01  0.51100000000E-03 0.  1.
         12    1    4    4    0    0 -0.36906500498E+02  0.96871789202E+00 -0.18285176777E+02  0.41199221875E+02  0.00000000000E+00 0. -1.
</event>
<event>
 8    1  0.1262344E-006  0.9118800E+02  0.7816164E-02  0.1184000E+00
        -11   -1    0    0    0    0  0.00000000000E+00  0.00000000000E+00  0.45593999997E+02  0.45594000000E+02  0.51100000000E-03 0.  1.
         11   -1    0    0    0    0 -0.00000000000E+00 -0.00000000000E+00 -0.45593999997E+02  0.45594000000E+02  0.51100000000E-03 0. -1.
         23    2    1    2    0    0  0.00000000000E+00 -0.35527136788E-14  0.88817841970E-15  0.91188000000E+02  0.91188000000E+02 0.  0.
    9900012    2    3    3    0    0 -0.19080146428E+02 -0.30848527575E+02  0.63321850033E+01  0.54367079205E+02  0.39999988664E+02 0.  0.
         12    1    3    3    0    0  0.19080146428E+02  0.30848527575E+02 -0.63321850033E+01  0.36820920795E+02  0.00000000000E+00 0. -1.
         11    1    4    4    0    0 -0.25776857705E+01 -0.29904330796E+01 -0.63502458086E+01  0.74774846055E+01  0.51100000000E-03 0. -1.
        -11    1    4    4    0    0  0.29594326399E+01 -0.21886863897E+02 -0.14090593976E+01  0.22130939913E+02  0.51100000000E-03 0.  1.
        -12    1    4    4    0    0 -0.19461893297E+02 -0.59712305988E+01  0.14091490210E+02  0.24758654687E+02  0.00000000000E+00 0.  1.
</event>
<event>
 8    1  0.1262344E-006  0.9118800E+02  0.7816164E-02  0.1184000E+00
        -11   -1    0    0    0    0  0.00000000000E+00  0.00000000000E+00  0.45593999997E+02  0.45594000000E+02  0.51100000000E-03 0.  1.
         11   -1    0    0    0    0 -0.00000000000E+00 -0.00000000000E+00 -0.45593999997E+02  0.45594000000E+02  0.51100000000E-03 0. -1.
         23    2    1    2    0    0  0.17763568394E-14 -0.35527136788E-14  0.35527136788E-14  0.91188000000E+02  0.91188000000E+02 0.  0.
    9900012    2    3    3    0    0  0.15108006838E+02 -0.23850263981E+02  0.23636694751E+02  0.54367077940E+02  0.39999985780E+02 0.  0.
         12    1    3    3    0    0 -0.15108006838E+02  0.23850263981E+02 -0.23636694751E+02  0.36820922060E+02  0.00000000000E+00 0. -1.
         11    1    4    4    0    0 -0.36923390978E+01  0.47356752966E+01  0.49441014075E+01  0.77784399154E+01  0.51100000000E-03 0. -1.
        -11    1    4    4    0    0  0.20872865588E+01 -0.12748750747E+02  0.19681600975E+02  0.23542574795E+02  0.51100000000E-03 0.  1.
         12    1    4    4    0    0  0.16713059377E+02 -0.15837188530E+02 -0.98900763095E+00  0.23046063229E+02  0.00000000000E+00 0. -1.
</event>
<event>
 8    1  0.1262344E-006  0.9118800E+02  0.7816164E-02  0.1184000E+00
        -11   -1    0    0    0    0  0.00000000000E+00  0.00000000000E+00  0.45593999997E+02  0.45594000000E+02  0.51100000000E-03 0. -1.
         11   -1    0    0    0    0 -0.00000000000E+00 -0.00000000000E+00 -0.45593999997E+02  0.45594000000E+02  0.51100000000E-03 0.  1.
         23    2    1    2    0    0  0.35527136788E-14  0.00000000000E+00 -0.35527136788E-14  0.91188000000E+02  0.91188000000E+02 0.  0.
    9900012    2    3    3    0    0 -0.28255931283E+02  0.13527736232E+02  0.19348955890E+02  0.54367090257E+02  0.40000013860E+02 0.  0.
        -12    1    3    3    0    0  0.28255931283E+02 -0.13527736232E+02 -0.19348955890E+02  0.36820909743E+02  0.00000000000E+00 0.  1.
         11    1    4    4    0    0 -0.18484302997E+02  0.85105601856E+01  0.53100264380E+01  0.21030821976E+02  0.51100000000E-03 0. -1.
        -11    1    4    4    0    0 -0.40490914549E+01  0.64924415056E+01  0.22073685019E+02  0.23362245373E+02  0.51100000000E-03 0.  1.
        -12    1    4    4    0    0 -0.57225368316E+01 -0.14752654593E+01 -0.80347555665E+01  0.99740229084E+01  0.00000000000E+00 0.  1.
</event>
<event>
 8    1  0.1262344E-006  0.9118800E+02  0.7816164E-02  0.1184000E+00
        -11   -1    0    0    0    0  0.00000000000E+00  0.00000000000E+00  0.45593999997E+02  0.45594000000E+02  0.51100000000E-03 0.  1.
         11   -1    0    0    0    0 -0.00000000000E+00 -0.00000000000E+00 -0.45593999997E+02  0.45594000000E+02  0.51100000000E-03 0. -1.
         23    2    1    2    0    0 -0.17763568394E-14  0.00000000000E+00  0.00000000000E+00  0.91188000000E+02  0.91188000000E+02 0.  0.
    9900012    2    3    3    0    0 -0.11151682774E+02  0.78236068690E+01  0.34208353552E+02  0.54367077879E+02  0.39999985640E+02 0.  0.
         12    1    3    3    0    0  0.11151682774E+02 -0.78236068690E+01 -0.34208353552E+02  0.36820922121E+02  0.00000000000E+00 0. -1.
         11    1    4    4    0    0 -0.13513879378E+02 -0.34003384373E+01  0.34439309732E+01  0.14354368608E+02  0.51100000000E-03 0. -1.
        -11    1    4    4    0    0 -0.75184362497E+01  0.13258432308E+02  0.15691379583E+02  0.21875381240E+02  0.51100000000E-03 0.  1.
        -12    1    4    4    0    0  0.98806328537E+01 -0.20344870020E+01  0.15073042996E+02  0.18137328031E+02  0.00000000000E+00 0.  1.
</event>
<event>
 8    1  0.1262344E-006  0.9118800E+02  0.7816164E-02  0.1184000E+00
        -11   -1    0    0    0    0  0.00000000000E+00  0.00000000000E+00  0.45593999997E+02  0.45594000000E+02  0.51100000000E-03 0.  1.
         11   -1    0    0    0    0 -0.00000000000E+00 -0.00000000000E+00 -0.45593999997E+02  0.45594000000E+02  0.51100000000E-03 0. -1.
         23    2    1    2    0    0  0.35527136788E-14 -0.44408920985E-15  0.35527136788E-14  0.91188000000E+02  0.91188000000E+02 0.  0.
    9900012    2    3    3    0    0  0.18608563289E+02 -0.35547169910E+01  0.31573174877E+02  0.54367081864E+02  0.39999994726E+02 0.  0.
         12    1    3    3    0    0 -0.18608563289E+02  0.35547169910E+01 -0.31573174877E+02  0.36820918136E+02  0.00000000000E+00 0. -1.
         11    1    4    4    0    0  0.22354636142E+01  0.35623185411E+00 -0.30557607370E+01  0.38028768909E+01  0.51100000000E-03 0. -1.
        -11    1    4    4    0    0  0.16709859804E+02  0.10070680230E+02  0.92608962149E+01  0.21596347236E+02  0.51100000000E-03 0.  1.
        -12    1    4    4    0    0 -0.33676012934E+00 -0.13981629075E+02  0.25368039399E+02  0.28967857738E+02  0.00000000000E+00 0.  1.
</event>
<event>
 8    1  0.1262344E-006  0.9118800E+02  0.7816164E-02  0.1184000E+00
        -11   -1    0    0    0    0  0.00000000000E+00  0.00000000000E+00  0.45593999997E+02  0.45594000000E+02  0.51100000000E-03 0.  1.
         11   -1    0    0    0    0 -0.00000000000E+00 -0.00000000000E+00 -0.45593999997E+02  0.45594000000E+02  0.51100000000E-03 0. -1.
         23    2    1    2    0    0 -0.33306690739E-15  0.17763568394E-14  0.00000000000E+00  0.91188000000E+02  0.91188000000E+02 0.  0.
    9900012    2    3    3    0    0 -0.74109017622E+00  0.96592903525E+01  0.35523623773E+02  0.54367096281E+02  0.40000027591E+02 0.  0.
         12    1    3    3    0    0  0.74109017622E+00 -0.96592903525E+01 -0.35523623773E+02  0.36820903719E+02  0.00000000000E+00 0. -1.
         11    1    4    4    0    0  0.13546457256E+02  0.59248409130E+01  0.23710627118E+02  0.27942871767E+02  0.51100000000E-03 0. -1.
        -11    1    4    4    0    0  0.26569204698E+01 -0.29514341941E+01 -0.10703266629E+01  0.41128809381E+01  0.51100000000E-03 0.  1.
        -12    1    4    4    0    0 -0.16944467902E+02  0.66858836336E+01  0.12883323318E+02  0.22311343575E+02  0.00000000000E+00 0.  1.
</event>
<event>
 8    1  0.1262344E-006  0.9118800E+02  0.7816164E-02  0.1184000E+00
        -11   -1    0    0    0    0  0.00000000000E+00  0.00000000000E+00  0.45593999997E+02  0.45594000000E+02  0.51100000000E-03 0.  1.
         11   -1    0    0    0    0 -0.00000000000E+00 -0.00000000000E+00 -0.45593999997E+02  0.45594000000E+02  0.51100000000E-03 0. -1.
         23    2    1    2    0    0 -0.35527136788E-14 -0.17763568394E-14  0.00000000000E+00  0.91188000000E+02  0.91188000000E+02 0.  0.
    9900012    2    3    3    0    0  0.27649053838E+02 -0.15927256578E+02  0.18374718825E+02  0.54367109569E+02  0.40000057885E+02 0.  0.
        -12    1    3    3    0    0 -0.27649053838E+02  0.15927256578E+02 -0.18374718825E+02  0.36820890431E+02  0.00000000000E+00 0.  1.
         11    1    4    4    0    0  0.11595562647E+02 -0.32404166962E+01  0.76733845363E+01  0.14277191740E+02  0.51100000000E-03 0. -1.
        -11    1    4    4    0    0  0.19936656501E+02  0.49479819054E+01  0.65633364956E+01  0.21564558507E+02  0.51100000000E-03 0.  1.
        -12    1    4    4    0    0 -0.38831653109E+01 -0.17634821787E+02  0.41379977928E+01  0.18525359323E+02  0.00000000000E+00 0.  1.
</event>
<event>
 8    1  0.1262344E-006  0.9118800E+02  0.7816164E-02  0.1184000E+00
        -11   -1    0    0    0    0  0.00000000000E+00  0.00000000000E+00  0.45593999997E+02  0.45594000000E+02  0.51100000000E-03 0. -1.
         11   -1    0    0    0    0 -0.00000000000E+00 -0.00000000000E+00 -0.45593999997E+02  0.45594000000E+02  0.51100000000E-03 0.  1.
         23    2    1    2    0    0  0.00000000000E+00  0.35527136788E-14  0.14210854715E-13  0.91188000000E+02  0.91188000000E+02 0.  0.
    9900012    2    3    3    0    0 -0.12488121940E+02  0.13498015763E+02  0.31900318939E+02  0.54367082473E+02  0.39999996114E+02 0.  0.
        -12    1    3    3    0    0  0.12488121940E+02 -0.13498015763E+02 -0.31900318939E+02  0.36820917527E+02  0.00000000000E+00 0.  1.
         11    1    4    4    0    0 -0.43619611286E+01 -0.53389645344E+01  0.24494389480E+02  0.25446146338E+02  0.51100000000E-03 0. -1.
        -11    1    4    4    0    0  0.96344554061E+00  0.18689061024E+02  0.63841910471E+01  0.19772888632E+02  0.51100000000E-03 0.  1.
        -12    1    4    4    0    0 -0.90896063516E+01  0.14791927305E+00  0.10217384123E+01  0.91480475033E+01  0.00000000000E+00 0.  1.
</event>
<event>
 8    1  0.1262344E-006  0.9118800E+02  0.7816164E-02  0.1184000E+00
        -11   -1    0    0    0    0  0.00000000000E+00  0.00000000000E+00  0.45593999997E+02  0.45594000000E+02  0.51100000000E-03 0.  1.
         11   -1    0    0    0    0 -0.00000000000E+00 -0.00000000000E+00 -0.45593999997E+02  0.45594000000E+02  0.51100000000E-03 0. -1.
         23    2    1    2    0    0  0.00000000000E+00 -0.88817841970E-15  0.00000000000E+00  0.91188000000E+02  0.91188000000E+02 0.  0.
    9900012    2    3    3    0    0 -0.15621677171E+01 -0.43192948839E+01  0.36533309549E+02  0.54367090412E+02  0.40000014212E+02 0.  0.
         12    1    3    3    0    0  0.15621677171E+01  0.43192948839E+01 -0.36533309549E+02  0.36820909588E+02  0.00000000000E+00 0. -1.
         11    1    4    4    0    0 -0.48344657882E+01 -0.61675505716E+01 -0.19471146584E+01  0.80747752455E+01  0.51100000000E-03 0. -1.
        -11    1    4    4    0    0 -0.59005889249E+01 -0.32282840651E+01  0.34385312126E+02  0.35036958457E+02  0.51100000000E-03 0.  1.
        -12    1    4    4    0    0  0.91728869960E+01  0.50765397528E+01  0.40951120818E+01  0.11255356710E+02  0.00000000000E+00 0.  1.
</event>
<event>
 8    1  0.1262344E-006  0.9118800E+02  0.7816164E-02  0.1184000E+00
        -11   -1    0    0    0    0  0.00000000000E+00  0.00000000000E+00  0.45593999997E+02  0.45594000000E+02  0.51100000000E-03 0. -1.
         11   -1    0    0    0    0 -0.00000000000E+00 -0.00000000000E+00 -0.45593999997E+02  0.45594000000E+02  0.51100000000E-03 0.  1.
         23    2    1    2    0    0  0.00000000000E+00  0.00000000000E+00 -0.17763568394E-14  0.91188000000E+02  0.91188000000E+02 0.  0.
    9900012    2    3    3    0    0 -0.32302617054E+02  0.14493938444E+02 -0.10111842059E+02  0.54367045776E+02  0.39999912455E+02 0.  0.
         12    1    3    3    0    0  0.32302617054E+02 -0.14493938444E+02  0.10111842059E+02  0.36820954224E+02  0.00000000000E+00 0. -1.
         11    1    4    4    0    0  0.26050089898E+01 -0.10115728860E+00  0.62480047371E+01  0.67700714982E+01  0.51100000000E-03 0. -1.
        -11    1    4    4    0    0 -0.77442430261E+01  0.10682076308E+02 -0.15201544287E+02  0.20128760599E+02  0.51100000000E-03 0.  1.
         12    1    4    4    0    0 -0.27163383018E+02  0.39130194243E+01 -0.11583025092E+01  0.27468213678E+02  0.00000000000E+00 0. -1.
</event>
<event>
 8    1  0.1262344E-006  0.9118800E+02  0.7816164E-02  0.1184000E+00
        -11   -1    0    0    0    0  0.00000000000E+00  0.00000000000E+00  0.45593999997E+02  0.45594000000E+02  0.51100000000E-03 0.  1.
         11   -1    0    0    0    0 -0.00000000000E+00 -0.00000000000E+00 -0.45593999997E+02  0.45594000000E+02  0.51100000000E-03 0. -1.
         23    2    1    2    0    0  0.35527136788E-14 -0.35527136788E-14  0.00000000000E+00  0.91188000000E+02  0.91188000000E+02 0.  0.
    9900012    2    3    3    0    0 -0.23080192058E+02  0.22459455620E+02  0.17850865099E+02  0.54367139106E+02  0.40000125219E+02 0.  0.
         12    1    3    3    0    0  0.23080192058E+02 -0.22459455620E+02 -0.17850865099E+02  0.36820860894E+02  0.00000000000E+00 0. -1.
         11    1    4    4    0    0 -0.23003208290E+02  0.27813143269E+02  0.82716572793E+01  0.37028892024E+02  0.51100000000E-03 0. -1.
        -11    1    4    4    0    0 -0.24083024676E+01  0.36199424307E+01  0.52561231198E+00  0.43795173867E+01  0.51100000000E-03 0.  1.
         12    1    4    4    0    0  0.23313186997E+01 -0.89736300794E+01  0.90535955082E+01  0.12958729695E+02  0.00000000000E+00 0. -1.
</event>
<event>
 8    1  0.1262344E-006  0.9118800E+02  0.7816164E-02  0.1184000E+00
        -11   -1    0    0    0    0  0.00000000000E+00  0.00000000000E+00  0.45593999997E+02  0.45594000000E+02  0.51100000000E-03 0.  1.
         11   -1    0    0    0    0 -0.00000000000E+00 -0.00000000000E+00 -0.45593999997E+02  0.45594000000E+02  0.51100000000E-03 0. -1.
         23    2    1    2    0    0  0.35527136788E-14  0.00000000000E+00  0.00000000000E+00  0.91188000000E+02  0.91188000000E+02 0.  0.
    9900012    2    3    3    0    0  0.21906206305E+02  0.23069571188E+02 -0.18538952366E+02  0.54367085504E+02  0.40000003024E+02 0.  0.
        -12    1    3    3    0    0 -0.21906206305E+02 -0.23069571188E+02  0.18538952366E+02  0.36820914496E+02  0.00000000000E+00 0.  1.
         11    1    4    4    0    0  0.15384257493E+02  0.28298586194E+02 -0.74750370409E+01  0.33066017876E+02  0.51100000000E-03 0. -1.
        -11    1    4    4    0    0 -0.30860102184E+00  0.33754338789E+00 -0.12382923865E+02  0.12391366908E+02  0.51100000000E-03 0.  1.
        -12    1    4    4    0    0  0.68305498343E+01 -0.55665583941E+01  0.13190085399E+01  0.89097007202E+01  0.00000000000E+00 0.  1.
</event>
<event>
 8    1  0.1262344E-006  0.9118800E+02  0.7816164E-02  0.1184000E+00
        -11   -1    0    0    0    0  0.00000000000E+00  0.00000000000E+00  0.45593999997E+02  0.45594000000E+02  0.51100000000E-03 0. -1.
         11   -1    0    0    0    0 -0.00000000000E+00 -0.00000000000E+00 -0.45593999997E+02  0.45594000000E+02  0.51100000000E-03 0.  1.
         23    2    1    2    0    0  0.00000000000E+00 -0.35527136788E-14 -0.35527136788E-14  0.91188000000E+02  0.91188000000E+02 0.  0.
    9900012    2    3    3    0    0  0.13345093951E+02 -0.20109510791E+02 -0.27808194897E+02  0.54367086646E+02  0.40000005627E+02 0.  0.
         12    1    3    3    0    0 -0.13345093951E+02  0.20109510791E+02  0.27808194897E+02  0.36820913354E+02  0.00000000000E+00 0. -1.
         11    1    4    4    0    0  0.35986315212E+01  0.11996385657E+00  0.28183001344E+01  0.45724562394E+01  0.51100000000E-03 0. -1.
        -11    1    4    4    0    0  0.89197362928E+01  0.64691019431E+01 -0.31181723474E+01  0.11451374351E+02  0.51100000000E-03 0.  1.
        -12    1    4    4    0    0  0.82672613721E+00 -0.26698576590E+02 -0.27508322684E+02  0.38343256055E+02  0.00000000000E+00 0.  1.
</event>
<event>
 8    1  0.1262344E-006  0.9118800E+02  0.7816164E-02  0.1184000E+00
        -11   -1    0    0    0    0  0.00000000000E+00  0.00000000000E+00  0.45593999997E+02  0.45594000000E+02  0.51100000000E-03 0.  1.
         11   -1    0    0    0    0 -0.00000000000E+00 -0.00000000000E+00 -0.45593999997E+02  0.45594000000E+02  0.51100000000E-03 0. -1.
         23    2    1    2    0    0  0.00000000000E+00  0.00000000000E+00  0.71054273576E-14  0.91188000000E+02  0.91188000000E+02 0.  0.
    9900012    2    3    3    0    0  0.39800004907E+01 -0.69835266660E+00  0.36598528690E+02  0.54367076565E+02  0.39999982644E+02 0.  0.
         12    1    3    3    0    0 -0.39800004907E+01  0.69835266660E+00 -0.36598528690E+02  0.36820923435E+02  0.00000000000E+00 0. -1.
         11    1    4    4    0    0  0.13566623554E+02 -0.15151769494E+01  0.10089701664E+02  0.16975014456E+02  0.51100000000E-03 0. -1.
        -11    1    4    4    0    0  0.52310644798E+01  0.65423636437E+01  0.16805844501E+02  0.18777725296E+02  0.51100000000E-03 0.  1.
         12    1    4    4    0    0 -0.14817687543E+02 -0.57255393609E+01  0.97029825247E+01  0.18614336813E+02  0.00000000000E+00 0. -1.
</event>
<event>
 8    1  0.1262344E-006  0.9118800E+02  0.7816164E-02  0.1184000E+00
        -11   -1    0    0    0    0  0.00000000000E+00  0.00000000000E+00  0.45593999997E+02  0.45594000000E+02  0.51100000000E-03 0. -1.
         11   -1    0    0    0    0 -0.00000000000E+00 -0.00000000000E+00 -0.45593999997E+02  0.45594000000E+02  0.51100000000E-03 0.  1.
         23    2    1    2    0    0 -0.35527136788E-14  0.88817841970E-15  0.35527136788E-14  0.91188000000E+02  0.91188000000E+02 0.  0.
    9900012    2    3    3    0    0 -0.30198740974E+02  0.58237964047E+01  0.20245980191E+02  0.54367078300E+02  0.39999986600E+02 0.  0.
        -12    1    3    3    0    0  0.30198740974E+02 -0.58237964047E+01 -0.20245980191E+02  0.36820921700E+02  0.00000000000E+00 0.  1.
         11    1    4    4    0    0 -0.12937787802E+02  0.11769818194E+02  0.64914539802E+01  0.18656204023E+02  0.51100000000E-03 0. -1.
        -11    1    4    4    0    0 -0.24370038364E+02 -0.58556815745E+01  0.72917619511E+01  0.26102826843E+02  0.51100000000E-03 0.  1.
         12    1    4    4    0    0  0.71090851915E+01 -0.90340214927E-01  0.64627642594E+01  0.96080474337E+01  0.00000000000E+00 0. -1.
</event>
<event>
 8    1  0.1262344E-006  0.9118800E+02  0.7816164E-02  0.1184000E+00
        -11   -1    0    0    0    0  0.00000000000E+00  0.00000000000E+00  0.45593999997E+02  0.45594000000E+02  0.51100000000E-03 0.  1.
         11   -1    0    0    0    0 -0.00000000000E+00 -0.00000000000E+00 -0.45593999997E+02  0.45594000000E+02  0.51100000000E-03 0. -1.
         23    2    1    2    0    0  0.00000000000E+00  0.00000000000E+00  0.32196467714E-14  0.91188000000E+02  0.91188000000E+02 0.  0.
    9900012    2    3    3    0    0  0.36245122518E+02 -0.64348696114E+01  0.81453506088E+00  0.54367083110E+02  0.39999997566E+02 0.  0.
        -12    1    3    3    0    0 -0.36245122518E+02  0.64348696114E+01 -0.81453506088E+00  0.36820916890E+02  0.00000000000E+00 0.  1.
         11    1    4    4    0    0  0.21926813367E+02 -0.27546102921E+01  0.14404436048E+02  0.26379173611E+02  0.51100000000E-03 0. -1.
        -11    1    4    4    0    0  0.10839147821E+02  0.45677181209E+01 -0.14854278146E+02  0.18947315215E+02  0.51100000000E-03 0.  1.
        -12    1    4    4    0    0  0.34791613299E+01 -0.82479774403E+01  0.12643771591E+01  0.90405942844E+01  0.00000000000E+00 0.  1.
</event>
<event>
 8    1  0.1262344E-006  0.9118800E+02  0.7816164E-02  0.1184000E+00
        -11   -1    0    0    0    0  0.00000000000E+00  0.00000000000E+00  0.45593999997E+02  0.45594000000E+02  0.51100000000E-03 0.  1.
         11   -1    0    0    0    0 -0.00000000000E+00 -0.00000000000E+00 -0.45593999997E+02  0.45594000000E+02  0.51100000000E-03 0. -1.
         23    2    1    2    0    0  0.35527136788E-14  0.00000000000E+00  0.00000000000E+00  0.91188000000E+02  0.91188000000E+02 0.  0.
    9900012    2    3    3    0    0  0.21174320983E+02 -0.10159183920E+02  0.28358770146E+02  0.54367072104E+02  0.39999972475E+02 0.  0.
         12    1    3    3    0    0 -0.21174320983E+02  0.10159183920E+02 -0.28358770146E+02  0.36820927896E+02  0.00000000000E+00 0. -1.
         11    1    4    4    0    0 -0.81537128849E+01  0.57815626134E+01  0.82169080415E+01  0.12939361580E+02  0.51100000000E-03 0. -1.
        -11    1    4    4    0    0  0.23673020558E+02 -0.17674908907E+02  0.13345395811E+02  0.32417802159E+02  0.51100000000E-03 0.  1.
        -12    1    4    4    0    0  0.56550133095E+01  0.17341623744E+01  0.67964662929E+01  0.90099083648E+01  0.00000000000E+00 0.  1.
</event>
<event>
 8    1  0.1262344E-006  0.9118800E+02  0.7816164E-02  0.1184000E+00
        -11   -1    0    0    0    0  0.00000000000E+00  0.00000000000E+00  0.45593999997E+02  0.45594000000E+02  0.51100000000E-03 0.  1.
         11   -1    0    0    0    0 -0.00000000000E+00 -0.00000000000E+00 -0.45593999997E+02  0.45594000000E+02  0.51100000000E-03 0. -1.
         23    2    1    2    0    0  0.00000000000E+00  0.00000000000E+00  0.35527136788E-14  0.91188000000E+02  0.91188000000E+02 0.  0.
    9900012    2    3    3    0    0  0.10496060459E+02 -0.28995925303E+02 -0.20120857446E+02  0.54367083747E+02  0.39999999018E+02 0.  0.
        -12    1    3    3    0    0 -0.10496060459E+02  0.28995925303E+02  0.20120857446E+02  0.36820916253E+02  0.00000000000E+00 0.  1.
         11    1    4    4    0    0 -0.13364081763E+01  0.58091894723E+01  0.33274575115E+01  0.68267593256E+01  0.51100000000E-03 0. -1.
        -11    1    4    4    0    0  0.79694716953E+01 -0.35475450178E+01 -0.82602395115E+00  0.87624123724E+01  0.51100000000E-03 0.  1.
         12    1    4    4    0    0  0.38629969404E+01 -0.31257569757E+02 -0.22622291006E+02  0.38777912049E+02  0.00000000000E+00 0. -1.
</event>
<event>
 8    1  0.1262344E-006  0.9118800E+02  0.7816164E-02  0.1184000E+00
        -11   -1    0    0    0    0  0.00000000000E+00  0.00000000000E+00  0.45593999997E+02  0.45594000000E+02  0.51100000000E-03 0.  1.
         11   -1    0    0    0    0 -0.00000000000E+00 -0.00000000000E+00 -0.45593999997E+02  0.45594000000E+02  0.51100000000E-03 0. -1.
         23    2    1    2    0    0  0.17763568394E-14  0.44408920985E-15  0.71054273576E-14  0.91188000000E+02  0.91188000000E+02 0.  0.
    9900012    2    3    3    0    0  0.94365360627E+01  0.24847378606E+01 -0.35504328034E+02  0.54367089579E+02  0.40000012314E+02 0.  0.
        -12    1    3    3    0    0 -0.94365360627E+01 -0.24847378606E+01  0.35504328034E+02  0.36820910421E+02  0.00000000000E+00 0.  1.
         11    1    4    4    0    0  0.39348545170E+00  0.37914213487E+01 -0.84007426652E+01  0.92250845108E+01  0.51100000000E-03 0. -1.
        -11    1    4    4    0    0  0.20650023637E+02 -0.82245542549E+01 -0.19876627053E+02  0.29818569250E+02  0.51100000000E-03 0.  1.
        -12    1    4    4    0    0 -0.11606973026E+02  0.69178707668E+01 -0.72269583160E+01  0.15323435818E+02  0.00000000000E+00 0.  1.
</event>
<event>
 8    1  0.1262344E-006  0.9118800E+02  0.7816164E-02  0.1184000E+00
        -11   -1    0    0    0    0  0.00000000000E+00  0.00000000000E+00  0.45593999997E+02  0.45594000000E+02  0.51100000000E-03 0. -1.
         11   -1    0    0    0    0 -0.00000000000E+00 -0.00000000000E+00 -0.45593999997E+02  0.45594000000E+02  0.51100000000E-03 0.  1.
         23    2    1    2    0    0  0.00000000000E+00  0.00000000000E+00  0.00000000000E+00  0.91188000000E+02  0.91188000000E+02 0.  0.
    9900012    2    3    3    0    0  0.24547790479E+02 -0.21788648687E+02  0.16686564638E+02  0.54367072956E+02  0.39999974417E+02 0.  0.
        -12    1    3    3    0    0 -0.24547790479E+02  0.21788648687E+02 -0.16686564638E+02  0.36820927044E+02  0.00000000000E+00 0.  1.
         11    1    4    4    0    0 -0.97233153354E+01 -0.45906295491E+01  0.10794058261E+02  0.15235761707E+02  0.51100000000E-03 0. -1.
        -11    1    4    4    0    0  0.25093520856E+02 -0.99644834531E+01  0.40993076279E+01  0.27308973667E+02  0.51100000000E-03 0.  1.
         12    1    4    4    0    0  0.91775849576E+01 -0.72335356847E+01  0.17931987485E+01  0.11822337582E+02  0.00000000000E+00 0. -1.
</event>
<event>
 8    1  0.1262344E-006  0.9118800E+02  0.7816164E-02  0.1184000E+00
        -11   -1    0    0    0    0  0.00000000000E+00  0.00000000000E+00  0.45593999997E+02  0.45594000000E+02  0.51100000000E-03 0.  1.
         11   -1    0    0    0    0 -0.00000000000E+00 -0.00000000000E+00 -0.45593999997E+02  0.45594000000E+02  0.51100000000E-03 0. -1.
         23    2    1    2    0    0  0.00000000000E+00  0.00000000000E+00 -0.35527136788E-14  0.91188000000E+02  0.91188000000E+02 0.  0.
    9900012    2    3    3    0    0 -0.15508647586E+02  0.26114302024E+02  0.20815958381E+02  0.54367095021E+02  0.40000024719E+02 0.  0.
         12    1    3    3    0    0  0.15508647586E+02 -0.26114302024E+02 -0.20815958381E+02  0.36820904979E+02  0.00000000000E+00 0. -1.
         11    1    4    4    0    0 -0.12867061414E+02  0.24881770101E+02  0.11804643084E+02  0.30397587921E+02  0.51100000000E-03 0.  1.
        -11    1    4    4    0    0 -0.12072897055E+02  0.32641657548E+01  0.59355796229E+01  0.13843436246E+02  0.51100000000E-03 0. -1.
        -12    1    4    4    0    0  0.94313108832E+01 -0.20316338314E+01  0.30757356739E+01  0.10126070854E+02  0.00000000000E+00 0.  1.
</event>
<event>
 8    1  0.1262344E-006  0.9118800E+02  0.7816164E-02  0.1184000E+00
        -11   -1    0    0    0    0  0.00000000000E+00  0.00000000000E+00  0.45593999997E+02  0.45594000000E+02  0.51100000000E-03 0. -1.
         11   -1    0    0    0    0 -0.00000000000E+00 -0.00000000000E+00 -0.45593999997E+02  0.45594000000E+02  0.51100000000E-03 0.  1.
         23    2    1    2    0    0  0.00000000000E+00  0.00000000000E+00  0.00000000000E+00  0.91188000000E+02  0.91188000000E+02 0.  0.
    9900012    2    3    3    0    0 -0.77608277535E+01  0.16268632369E+02 -0.32107332347E+02  0.54367086961E+02  0.40000006344E+02 0.  0.
         12    1    3    3    0    0  0.77608277535E+01 -0.16268632369E+02  0.32107332347E+02  0.36820913039E+02  0.00000000000E+00 0. -1.
         11    1    4    4    0    0 -0.35410354906E+00 -0.20804171705E+01 -0.23691401373E+01  0.31727512002E+01  0.51100000000E-03 0.  1.
        -11    1    4    4    0    0 -0.28636495793E+01 -0.93670268553E+01  0.64789422970E+00  0.98163867189E+01  0.51100000000E-03 0. -1.
        -12    1    4    4    0    0 -0.45430746251E+01  0.27716076395E+02 -0.30386086440E+02  0.41377949042E+02  0.00000000000E+00 0.  1.
</event>
<event>
 8    1  0.1262344E-006  0.9118800E+02  0.7816164E-02  0.1184000E+00
        -11   -1    0    0    0    0  0.00000000000E+00  0.00000000000E+00  0.45593999997E+02  0.45594000000E+02  0.51100000000E-03 0. -1.
         11   -1    0    0    0    0 -0.00000000000E+00 -0.00000000000E+00 -0.45593999997E+02  0.45594000000E+02  0.51100000000E-03 0.  1.
         23    2    1    2    0    0  0.00000000000E+00 -0.88817841970E-15  0.17763568394E-14  0.91188000000E+02  0.91188000000E+02 0.  0.
    9900012    2    3    3    0    0 -0.35447245253E+02 -0.67762447940E+01  0.73045101021E+01  0.54367074464E+02  0.39999977855E+02 0.  0.
        -12    1    3    3    0    0  0.35447245253E+02  0.67762447940E+01 -0.73045101021E+01  0.36820925536E+02  0.00000000000E+00 0.  1.
         11    1    4    4    0    0 -0.36048021065E+01 -0.98509699895E+01  0.16776592993E+02  0.19786113329E+02  0.51100000000E-03 0. -1.
        -11    1    4    4    0    0 -0.14536111393E+02  0.56856807615E+01 -0.28423061948E+01  0.15865188462E+02  0.51100000000E-03 0.  1.
         12    1    4    4    0    0 -0.17306331753E+02 -0.26109555660E+01 -0.66297766960E+01  0.18715772673E+02  0.00000000000E+00 0. -1.
</event>
<event>
 8    1  0.1262344E-006  0.9118800E+02  0.7816164E-02  0.1184000E+00
        -11   -1    0    0    0    0  0.00000000000E+00  0.00000000000E+00  0.45593999997E+02  0.45594000000E+02  0.51100000000E-03 0.  1.
         11   -1    0    0    0    0 -0.00000000000E+00 -0.00000000000E+00 -0.45593999997E+02  0.45594000000E+02  0.51100000000E-03 0. -1.
         23    2    1    2    0    0  0.00000000000E+00 -0.26645352591E-14 -0.88817841970E-15  0.91188000000E+02  0.91188000000E+02 0.  0.
    9900012    2    3    3    0    0  0.35885704647E+02  0.34079575248E+01  0.75088160253E+01  0.54367078086E+02  0.39999986112E+02 0.  0.
         12    1    3    3    0    0 -0.35885704647E+02 -0.34079575248E+01 -0.75088160253E+01  0.36820921914E+02  0.00000000000E+00 0. -1.
         11    1    4    4    0    0  0.20814160487E+02  0.16091088243E+02  0.73602432430E+01  0.27318960055E+02  0.51100000000E-03 0. -1.
        -11    1    4    4    0    0  0.42796121543E+01  0.38637517417E+01  0.38719194930E+01  0.69451723186E+01  0.51100000000E-03 0.  1.
         12    1    4    4    0    0  0.10791932006E+02 -0.16546882460E+02 -0.37233467106E+01  0.20102945712E+02  0.00000000000E+00 0. -1.
</event>
<event>
 8    1  0.1262344E-006  0.9118800E+02  0.7816164E-02  0.1184000E+00
        -11   -1    0    0    0    0  0.00000000000E+00  0.00000000000E+00  0.45593999997E+02  0.45594000000E+02  0.51100000000E-03 0.  1.
         11   -1    0    0    0    0 -0.00000000000E+00 -0.00000000000E+00 -0.45593999997E+02  0.45594000000E+02  0.51100000000E-03 0. -1.
         23    2    1    2    0    0  0.71054273576E-14  0.00000000000E+00  0.17763568394E-14  0.91188000000E+02  0.91188000000E+02 0.  0.
    9900012    2    3    3    0    0 -0.32609573913E+02 -0.14852633798E+02 -0.84731429886E+01  0.54367092983E+02  0.40000020072E+02 0.  0.
        -12    1    3    3    0    0  0.32609573913E+02  0.14852633798E+02  0.84731429886E+01  0.36820907017E+02  0.00000000000E+00 0.  1.
         11    1    4    4    0    0 -0.13359078485E+02 -0.97706202303E+01 -0.32205513208E+01  0.16861255847E+02  0.51100000000E-03 0. -1.
        -11    1    4    4    0    0 -0.13220026826E+02  0.83933555510E+01  0.80731339543E+01  0.17617974310E+02  0.51100000000E-03 0.  1.
        -12    1    4    4    0    0 -0.60304686017E+01 -0.13475369118E+02 -0.13325725622E+02  0.19887862826E+02  0.00000000000E+00 0.  1.
</event>
<event>
 8    1  0.1262344E-006  0.9118800E+02  0.7816164E-02  0.1184000E+00
        -11   -1    0    0    0    0  0.00000000000E+00  0.00000000000E+00  0.45593999997E+02  0.45594000000E+02  0.51100000000E-03 0.  1.
         11   -1    0    0    0    0 -0.00000000000E+00 -0.00000000000E+00 -0.45593999997E+02  0.45594000000E+02  0.51100000000E-03 0. -1.
         23    2    1    2    0    0  0.00000000000E+00 -0.44408920985E-15  0.00000000000E+00  0.91188000000E+02  0.91188000000E+02 0.  0.
    9900012    2    3    3    0    0 -0.36210379127E+02  0.26474417969E+01  0.61301910205E+01  0.54367085474E+02  0.40000002954E+02 0.  0.
         12    1    3    3    0    0  0.36210379127E+02 -0.26474417969E+01 -0.61301910205E+01  0.36820914526E+02  0.00000000000E+00 0. -1.
         11    1    4    4    0    0 -0.31625731601E+02 -0.70161792852E+01  0.95213387716E+01  0.33764916161E+02  0.51100000000E-03 0.  1.
        -11    1    4    4    0    0 -0.85049092944E+01  0.76842972990E+01  0.38856311095E+01  0.12102893723E+02  0.51100000000E-03 0. -1.
        -12    1    4    4    0    0  0.39202617683E+01  0.19793237831E+01 -0.72767788606E+01  0.84992755901E+01  0.00000000000E+00 0.  1.
</event>
<event>
 8    1  0.1262344E-006  0.9118800E+02  0.7816164E-02  0.1184000E+00
        -11   -1    0    0    0    0  0.00000000000E+00  0.00000000000E+00  0.45593999997E+02  0.45594000000E+02  0.51100000000E-03 0.  1.
         11   -1    0    0    0    0 -0.00000000000E+00 -0.00000000000E+00 -0.45593999997E+02  0.45594000000E+02  0.51100000000E-03 0. -1.
         23    2    1    2    0    0  0.00000000000E+00  0.00000000000E+00 -0.35527136788E-14  0.91188000000E+02  0.91188000000E+02 0.  0.
    9900012    2    3    3    0    0  0.17162582172E+02 -0.32101030987E+02  0.55452336523E+01  0.54367081578E+02  0.39999994073E+02 0.  0.
         12    1    3    3    0    0 -0.17162582172E+02  0.32101030987E+02 -0.55452336523E+01  0.36820918422E+02  0.00000000000E+00 0. -1.
         11    1    4    4    0    0  0.95927113507E+01 -0.83137043208E+01 -0.34469301721E+01  0.13153673193E+02  0.51100000000E-03 0. -1.
        -11    1    4    4    0    0  0.11576218154E+02 -0.52351415485E+01 -0.85939786733E+01  0.15338578926E+02  0.51100000000E-03 0.  1.
         12    1    4    4    0    0 -0.40063473327E+01 -0.18552185117E+02  0.17586142498E+02  0.25874829459E+02  0.00000000000E+00 0. -1.
</event>
<event>
 8    1  0.1262344E-006  0.9118800E+02  0.7816164E-02  0.1184000E+00
        -11   -1    0    0    0    0  0.00000000000E+00  0.00000000000E+00  0.45593999997E+02  0.45594000000E+02  0.51100000000E-03 0.  1.
         11   -1    0    0    0    0 -0.00000000000E+00 -0.00000000000E+00 -0.45593999997E+02  0.45594000000E+02  0.51100000000E-03 0. -1.
         23    2    1    2    0    0  0.00000000000E+00 -0.35527136788E-14  0.35527136788E-14  0.91188000000E+02  0.91188000000E+02 0.  0.
    9900012    2    3    3    0    0 -0.24362168298E+02 -0.25780178472E+02  0.98817020237E+01  0.54367070067E+02  0.39999967833E+02 0.  0.
         12    1    3    3    0    0  0.24362168298E+02  0.25780178472E+02 -0.98817020237E+01  0.36820929933E+02  0.00000000000E+00 0. -1.
         11    1    4    4    0    0 -0.14125265251E+02  0.56331318946E+00  0.17734527388E+02  0.22679371730E+02  0.51100000000E-03 0. -1.
        -11    1    4    4    0    0 -0.27998030623E+01 -0.17400233310E+02  0.52349443182E-01  0.17624124294E+02  0.51100000000E-03 0.  1.
         12    1    4    4    0    0 -0.74370999842E+01 -0.89432583518E+01 -0.79051748071E+01  0.14063574043E+02  0.00000000000E+00 0. -1.
</event>
<event>
 8    1  0.1262344E-006  0.9118800E+02  0.7816164E-02  0.1184000E+00
        -11   -1    0    0    0    0  0.00000000000E+00  0.00000000000E+00  0.45593999997E+02  0.45594000000E+02  0.51100000000E-03 0. -1.
         11   -1    0    0    0    0 -0.00000000000E+00 -0.00000000000E+00 -0.45593999997E+02  0.45594000000E+02  0.51100000000E-03 0.  1.
         23    2    1    2    0    0  0.00000000000E+00 -0.17763568394E-14 -0.17763568394E-14  0.91188000000E+02  0.91188000000E+02 0.  0.
    9900012    2    3    3    0    0  0.34476274337E+02 -0.11558584586E+02  0.57935792405E+01  0.54367082980E+02  0.39999997269E+02 0.  0.
        -12    1    3    3    0    0 -0.34476274337E+02  0.11558584586E+02 -0.57935792405E+01  0.36820917020E+02  0.00000000000E+00 0.  1.
         11    1    4    4    0    0  0.21317583368E+02 -0.64787515603E+01  0.11322403226E+02  0.24992206736E+02  0.51100000000E-03 0. -1.
        -11    1    4    4    0    0  0.15636472962E+02 -0.12832358786E+02 -0.14731354555E+01  0.20281490257E+02  0.51100000000E-03 0.  1.
        -12    1    4    4    0    0 -0.24777819929E+01  0.77525257606E+01 -0.40556885299E+01  0.90933859879E+01  0.00000000000E+00 0.  1.
</event>
<event>
 8    1  0.1262344E-006  0.9118800E+02  0.7816164E-02  0.1184000E+00
        -11   -1    0    0    0    0  0.00000000000E+00  0.00000000000E+00  0.45593999997E+02  0.45594000000E+02  0.51100000000E-03 0. -1.
         11   -1    0    0    0    0 -0.00000000000E+00 -0.00000000000E+00 -0.45593999997E+02  0.45594000000E+02  0.51100000000E-03 0.  1.
         23    2    1    2    0    0  0.00000000000E+00 -0.71054273576E-14  0.17763568394E-14  0.91188000000E+02  0.91188000000E+02 0.  0.
    9900012    2    3    3    0    0 -0.41028822395E+01  0.33177208823E+02 -0.15434329773E+02  0.54367090675E+02  0.40000014812E+02 0.  0.
         12    1    3    3    0    0  0.41028822395E+01 -0.33177208823E+02  0.15434329773E+02  0.36820909325E+02  0.00000000000E+00 0. -1.
         11    1    4    4    0    0 -0.37643566454E+00 -0.12827032000E+01  0.17427748645E+00  0.13481113501E+01  0.51100000000E-03 0. -1.
        -11    1    4    4    0    0  0.96799313099E+00 -0.79411826782E+01 -0.28355845987E+01  0.84876341408E+01  0.51100000000E-03 0.  1.
        -12    1    4    4    0    0 -0.46944397060E+01  0.42401094702E+02 -0.12773022660E+02  0.44531345184E+02  0.00000000000E+00 0.  1.
</event>
<event>
 8    1  0.1262344E-006  0.9118800E+02  0.7816164E-02  0.1184000E+00
        -11   -1    0    0    0    0  0.00000000000E+00  0.00000000000E+00  0.45593999997E+02  0.45594000000E+02  0.51100000000E-03 0. -1.
         11   -1    0    0    0    0 -0.00000000000E+00 -0.00000000000E+00 -0.45593999997E+02  0.45594000000E+02  0.51100000000E-03 0.  1.
         23    2    1    2    0    0  0.00000000000E+00  0.00000000000E+00 -0.88817841970E-15  0.91188000000E+02  0.91188000000E+02 0.  0.
    9900012    2    3    3    0    0 -0.33856241397E+02 -0.12579747639E+02  0.71613870506E+01  0.54367073929E+02  0.39999976637E+02 0.  0.
        -12    1    3    3    0    0  0.33856241397E+02  0.12579747639E+02 -0.71613870506E+01  0.36820926071E+02  0.00000000000E+00 0.  1.
         11    1    4    4    0    0 -0.38046482187E+02 -0.45708734770E+01  0.79893486413E+01  0.39144059359E+02  0.51100000000E-03 0. -1.
        -11    1    4    4    0    0 -0.41436891198E+01 -0.22631111138E+01  0.12613135114E+01  0.48869973880E+01  0.51100000000E-03 0.  1.
        -12    1    4    4    0    0  0.83339299093E+01 -0.57457630485E+01 -0.20892751022E+01  0.10336017182E+02  0.00000000000E+00 0.  1.
</event>
<event>
 8    1  0.1262344E-006  0.9118800E+02  0.7816164E-02  0.1184000E+00
        -11   -1    0    0    0    0  0.00000000000E+00  0.00000000000E+00  0.45593999997E+02  0.45594000000E+02  0.51100000000E-03 0.  1.
         11   -1    0    0    0    0 -0.00000000000E+00 -0.00000000000E+00 -0.45593999997E+02  0.45594000000E+02  0.51100000000E-03 0. -1.
         23    2    1    2    0    0  0.22759572005E-14 -0.66613381478E-15  0.00000000000E+00  0.91188000000E+02  0.91188000000E+02 0.  0.
    9900012    2    3    3    0    0  0.21139484049E+00  0.60289593052E+00 -0.36815369480E+02  0.54367087447E+02  0.40000007454E+02 0.  0.
        -12    1    3    3    0    0 -0.21139484049E+00 -0.60289593052E+00  0.36815369480E+02  0.36820912553E+02  0.00000000000E+00 0.  1.
         11    1    4    4    0    0  0.16009921152E+02  0.62606981285E+01 -0.15414964557E+02  0.23089717384E+02  0.51100000000E-03 0. -1.
        -11    1    4    4    0    0 -0.92088563630E+01 -0.55649344703E+01 -0.22065846510E+01  0.10983649087E+02  0.51100000000E-03 0.  1.
         12    1    4    4    0    0 -0.65896699482E+01 -0.92867727657E-01 -0.19193820272E+02  0.20293720977E+02  0.00000000000E+00 0. -1.
</event>
<event>
 8    1  0.1262344E-006  0.9118800E+02  0.7816164E-02  0.1184000E+00
        -11   -1    0    0    0    0  0.00000000000E+00  0.00000000000E+00  0.45593999997E+02  0.45594000000E+02  0.51100000000E-03 0.  1.
         11   -1    0    0    0    0 -0.00000000000E+00 -0.00000000000E+00 -0.45593999997E+02  0.45594000000E+02  0.51100000000E-03 0. -1.
         23    2    1    2    0    0  0.00000000000E+00 -0.17763568394E-14  0.00000000000E+00  0.91188000000E+02  0.91188000000E+02 0.  0.
    9900012    2    3    3    0    0  0.21539638365E+02 -0.15043640366E+02 -0.25797521314E+02  0.54367092321E+02  0.40000018565E+02 0.  0.
        -12    1    3    3    0    0 -0.21539638365E+02  0.15043640366E+02  0.25797521314E+02  0.36820907679E+02  0.00000000000E+00 0.  1.
         11    1    4    4    0    0  0.78401744093E+01 -0.12867629534E+01 -0.15105109278E+02  0.17067173762E+02  0.51100000000E-03 0. -1.
        -11    1    4    4    0    0  0.28146375294E+01 -0.19237887177E+02 -0.14804981775E+02  0.24437798041E+02  0.51100000000E-03 0.  1.
         12    1    4    4    0    0  0.10884826426E+02  0.54810097642E+01  0.41125697398E+01  0.12862120518E+02  0.00000000000E+00 0. -1.
</event>
<event>
 8    1  0.1262344E-006  0.9118800E+02  0.7816164E-02  0.1184000E+00
        -11   -1    0    0    0    0  0.00000000000E+00  0.00000000000E+00  0.45593999997E+02  0.45594000000E+02  0.51100000000E-03 0. -1.
         11   -1    0    0    0    0 -0.00000000000E+00 -0.00000000000E+00 -0.45593999997E+02  0.45594000000E+02  0.51100000000E-03 0.  1.
         23    2    1    2    0    0 -0.35527136788E-14  0.35527136788E-14 -0.17763568394E-14  0.91188000000E+02  0.91188000000E+02 0.  0.
    9900012    2    3    3    0    0 -0.23839324472E+02  0.25875936583E+02  0.10858257484E+02  0.54367092340E+02  0.40000018607E+02 0.  0.
         12    1    3    3    0    0  0.23839324472E+02 -0.25875936583E+02 -0.10858257484E+02  0.36820907660E+02  0.00000000000E+00 0. -1.
         11    1    4    4    0    0 -0.15360630389E+01  0.46841317723E+01  0.61882001235E+01  0.79116623506E+01  0.51100000000E-03 0. -1.
        -11    1    4    4    0    0  0.16917407769E+01 -0.16036981757E+01 -0.99891540713E+01  0.10257535475E+02  0.51100000000E-03 0.  1.
        -12    1    4    4    0    0 -0.23995002210E+02  0.22795502986E+02  0.14659211432E+02  0.36197894514E+02  0.00000000000E+00 0.  1.
</event>
<event>
 8    1  0.1262344E-006  0.9118800E+02  0.7816164E-02  0.1184000E+00
        -11   -1    0    0    0    0  0.00000000000E+00  0.00000000000E+00  0.45593999997E+02  0.45594000000E+02  0.51100000000E-03 0. -1.
         11   -1    0    0    0    0 -0.00000000000E+00 -0.00000000000E+00 -0.45593999997E+02  0.45594000000E+02  0.51100000000E-03 0.  1.
         23    2    1    2    0    0  0.00000000000E+00  0.00000000000E+00  0.00000000000E+00  0.91188000000E+02  0.91188000000E+02 0.  0.
    9900012    2    3    3    0    0  0.14464280231E+02  0.27772121757E+02 -0.19371974050E+02  0.54367088440E+02  0.40000009717E+02 0.  0.
         12    1    3    3    0    0 -0.14464280231E+02 -0.27772121757E+02  0.19371974050E+02  0.36820911560E+02  0.00000000000E+00 0. -1.
         11    1    4    4    0    0  0.27652550390E+01 -0.22231103947E+01 -0.34527049920E+01  0.49507602731E+01  0.51100000000E-03 0. -1.
        -11    1    4    4    0    0  0.13746361015E+01  0.20403053729E+01 -0.19271463875E+02  0.19427861194E+02  0.51100000000E-03 0.  1.
         12    1    4    4    0    0  0.10324389091E+02  0.27954926779E+02  0.33521948164E+01  0.29988466973E+02  0.00000000000E+00 0. -1.
</event>
<event>
 8    1  0.1262344E-006  0.9118800E+02  0.7816164E-02  0.1184000E+00
        -11   -1    0    0    0    0  0.00000000000E+00  0.00000000000E+00  0.45593999997E+02  0.45594000000E+02  0.51100000000E-03 0. -1.
         11   -1    0    0    0    0 -0.00000000000E+00 -0.00000000000E+00 -0.45593999997E+02  0.45594000000E+02  0.51100000000E-03 0.  1.
         23    2    1    2    0    0  0.00000000000E+00 -0.35527136788E-14  0.00000000000E+00  0.91188000000E+02  0.91188000000E+02 0.  0.
    9900012    2    3    3    0    0  0.21749478444E+02  0.15539585024E+02 -0.25323133080E+02  0.54367087677E+02  0.40000007978E+02 0.  0.
         12    1    3    3    0    0 -0.21749478444E+02 -0.15539585024E+02  0.25323133080E+02  0.36820912323E+02  0.00000000000E+00 0. -1.
         11    1    4    4    0    0  0.67745497936E+01 -0.46447810803E+01 -0.44013489964E+01  0.93188191011E+01  0.51100000000E-03 0. -1.
        -11    1    4    4    0    0  0.12908571639E+02  0.61438447781E+01 -0.26249000064E+02  0.29889597773E+02  0.51100000000E-03 0.  1.
         12    1    4    4    0    0  0.20663570118E+01  0.14040521326E+02  0.53272159812E+01  0.15158670803E+02  0.00000000000E+00 0. -1.
</event>
<event>
 8    1  0.1262344E-006  0.9118800E+02  0.7816164E-02  0.1184000E+00
        -11   -1    0    0    0    0  0.00000000000E+00  0.00000000000E+00  0.45593999997E+02  0.45594000000E+02  0.51100000000E-03 0. -1.
         11   -1    0    0    0    0 -0.00000000000E+00 -0.00000000000E+00 -0.45593999997E+02  0.45594000000E+02  0.51100000000E-03 0.  1.
         23    2    1    2    0    0  0.00000000000E+00  0.00000000000E+00  0.00000000000E+00  0.91188000000E+02  0.91188000000E+02 0.  0.
    9900012    2    3    3    0    0 -0.12646791451E+02 -0.34533785667E+02 -0.18048155256E+01  0.54367067834E+02  0.39999962740E+02 0.  0.
        -12    1    3    3    0    0  0.12646791451E+02  0.34533785667E+02  0.18048155256E+01  0.36820932166E+02  0.00000000000E+00 0.  1.
         11    1    4    4    0    0 -0.30454936752E+01 -0.59449299264E+01  0.77710926034E+01  0.10247297403E+02  0.51100000000E-03 0. -1.
        -11    1    4    4    0    0 -0.73085855509E+00 -0.27813999567E+02  0.37682215280E+01  0.28077610652E+02  0.51100000000E-03 0.  1.
        -12    1    4    4    0    0 -0.88704392210E+01 -0.77485617335E+00 -0.13344129657E+02  0.16042159779E+02  0.00000000000E+00 0.  1.
</event>
<event>
 8    1  0.1262344E-006  0.9118800E+02  0.7816164E-02  0.1184000E+00
        -11   -1    0    0    0    0  0.00000000000E+00  0.00000000000E+00  0.45593999997E+02  0.45594000000E+02  0.51100000000E-03 0.  1.
         11   -1    0    0    0    0 -0.00000000000E+00 -0.00000000000E+00 -0.45593999997E+02  0.45594000000E+02  0.51100000000E-03 0. -1.
         23    2    1    2    0    0  0.00000000000E+00  0.13322676296E-14  0.00000000000E+00  0.91188000000E+02  0.91188000000E+02 0.  0.
    9900012    2    3    3    0    0 -0.13750890382E+02  0.36210201520E+01  0.33964425933E+02  0.54367068423E+02  0.39999964083E+02 0.  0.
         12    1    3    3    0    0  0.13750890382E+02 -0.36210201520E+01 -0.33964425933E+02  0.36820931577E+02  0.00000000000E+00 0. -1.
         11    1    4    4    0    0  0.50198195615E+01 -0.79956360600E+01  0.44991936863E+01  0.10458084362E+02  0.51100000000E-03 0. -1.
        -11    1    4    4    0    0 -0.58780336076E+01 -0.23854960418E+01  0.22919492740E+02  0.23781190428E+02  0.51100000000E-03 0.  1.
         12    1    4    4    0    0 -0.12892676335E+02  0.14002152254E+02  0.65457395072E+01  0.20127793633E+02  0.00000000000E+00 0. -1.
</event>
<event>
 8    1  0.1262344E-006  0.9118800E+02  0.7816164E-02  0.1184000E+00
        -11   -1    0    0    0    0  0.00000000000E+00  0.00000000000E+00  0.45593999997E+02  0.45594000000E+02  0.51100000000E-03 0.  1.
         11   -1    0    0    0    0 -0.00000000000E+00 -0.00000000000E+00 -0.45593999997E+02  0.45594000000E+02  0.51100000000E-03 0. -1.
         23    2    1    2    0    0  0.00000000000E+00 -0.22204460493E-15 -0.35527136788E-14  0.91188000000E+02  0.91188000000E+02 0.  0.
    9900012    2    3    3    0    0  0.25590692766E+02  0.19257138374E+01  0.26404310357E+02  0.54367088340E+02  0.40000009488E+02 0.  0.
         12    1    3    3    0    0 -0.25590692766E+02 -0.19257138374E+01 -0.26404310357E+02  0.36820911660E+02  0.00000000000E+00 0. -1.
         11    1    4    4    0    0  0.59798422683E+01  0.21026144451E+01 -0.76129389938E+01  0.99063788260E+01  0.51100000000E-03 0. -1.
        -11    1    4    4    0    0  0.18800043740E+02 -0.18792229529E+01  0.12042565748E+02  0.22405278699E+02  0.51100000000E-03 0.  1.
         12    1    4    4    0    0  0.81080675791E+00  0.17023223452E+01  0.21974683603E+02  0.22055430814E+02  0.00000000000E+00 0. -1.
</event>
<event>
 8    1  0.1262344E-006  0.9118800E+02  0.7816164E-02  0.1184000E+00
        -11   -1    0    0    0    0  0.00000000000E+00  0.00000000000E+00  0.45593999997E+02  0.45594000000E+02  0.51100000000E-03 0.  1.
         11   -1    0    0    0    0 -0.00000000000E+00 -0.00000000000E+00 -0.45593999997E+02  0.45594000000E+02  0.51100000000E-03 0. -1.
         23    2    1    2    0    0  0.00000000000E+00  0.00000000000E+00  0.00000000000E+00  0.91188000000E+02  0.91188000000E+02 0.  0.
    9900012    2    3    3    0    0 -0.15802551089E+02 -0.14074923887E+01 -0.33227635681E+02  0.54367116949E+02  0.40000074708E+02 0.  0.
        -12    1    3    3    0    0  0.15802551089E+02  0.14074923887E+01  0.33227635681E+02  0.36820883051E+02  0.00000000000E+00 0.  1.
         11    1    4    4    0    0 -0.83032677253E+01  0.43763881096E+01 -0.10035725572E+02  0.13740917576E+02  0.51100000000E-03 0. -1.
        -11    1    4    4    0    0 -0.73725213471E+01 -0.15841130122E+02 -0.25415059306E+01  0.17656577449E+02  0.51100000000E-03 0.  1.
         12    1    4    4    0    0 -0.12676201615E+00  0.10057249624E+02 -0.20650404178E+02  0.22969621924E+02  0.00000000000E+00 0. -1.
</event>
<event>
 8    1  0.1262344E-006  0.9118800E+02  0.7816164E-02  0.1184000E+00
        -11   -1    0    0    0    0  0.00000000000E+00  0.00000000000E+00  0.45593999997E+02  0.45594000000E+02  0.51100000000E-03 0. -1.
         11   -1    0    0    0    0 -0.00000000000E+00 -0.00000000000E+00 -0.45593999997E+02  0.45594000000E+02  0.51100000000E-03 0.  1.
         23    2    1    2    0    0  0.00000000000E+00  0.00000000000E+00  0.17763568394E-14  0.91188000000E+02  0.91188000000E+02 0.  0.
    9900012    2    3    3    0    0  0.36649767081E+01 -0.34728489899E+02  0.11673910127E+02  0.54367078738E+02  0.39999987599E+02 0.  0.
         12    1    3    3    0    0 -0.36649767081E+01  0.34728489899E+02 -0.11673910127E+02  0.36820921262E+02  0.00000000000E+00 0. -1.
         11    1    4    4    0    0  0.79016292428E+01 -0.32064588397E+02  0.23065574085E+02  0.40281438429E+02  0.51100000000E-03 0. -1.
        -11    1    4    4    0    0 -0.23227449835E+00 -0.38480958163E+01 -0.37537218441E+01  0.53807267909E+01  0.51100000000E-03 0.  1.
         12    1    4    4    0    0 -0.40043780363E+01  0.11841943145E+01 -0.76379421138E+01  0.87049135186E+01  0.00000000000E+00 0. -1.
</event>
<event>
 8    1  0.1262344E-006  0.9118800E+02  0.7816164E-02  0.1184000E+00
        -11   -1    0    0    0    0  0.00000000000E+00  0.00000000000E+00  0.45593999997E+02  0.45594000000E+02  0.51100000000E-03 0. -1.
         11   -1    0    0    0    0 -0.00000000000E+00 -0.00000000000E+00 -0.45593999997E+02  0.45594000000E+02  0.51100000000E-03 0.  1.
         23    2    1    2    0    0  0.00000000000E+00  0.00000000000E+00  0.35527136788E-14  0.91188000000E+02  0.91188000000E+02 0.  0.
    9900012    2    3    3    0    0  0.16656196484E+02 -0.20854776786E+02 -0.25365936292E+02  0.54367064107E+02  0.39999954244E+02 0.  0.
         12    1    3    3    0    0 -0.16656196484E+02  0.20854776786E+02  0.25365936292E+02  0.36820935893E+02  0.00000000000E+00 0. -1.
         11    1    4    4    0    0  0.11922621859E+02 -0.18764792676E+02 -0.25352352327E+02  0.33719551078E+02  0.51100000000E-03 0.  1.
        -11    1    4    4    0    0  0.28561197820E+01 -0.10003150671E+02  0.45132035274E+01  0.11339728828E+02  0.51100000000E-03 0. -1.
        -12    1    4    4    0    0  0.18774548427E+01  0.79131665612E+01 -0.45267874925E+01  0.93077842000E+01  0.00000000000E+00 0.  1.
</event>
<event>
 8    1  0.1262344E-006  0.9118800E+02  0.7816164E-02  0.1184000E+00
        -11   -1    0    0    0    0  0.00000000000E+00  0.00000000000E+00  0.45593999997E+02  0.45594000000E+02  0.51100000000E-03 0.  1.
         11   -1    0    0    0    0 -0.00000000000E+00 -0.00000000000E+00 -0.45593999997E+02  0.45594000000E+02  0.51100000000E-03 0. -1.
         23    2    1    2    0    0  0.17763568394E-14  0.00000000000E+00  0.00000000000E+00  0.91188000000E+02  0.91188000000E+02 0.  0.
    9900012    2    3    3    0    0 -0.14942669875E+02 -0.26450756652E+02 -0.20805209719E+02  0.54367045886E+02  0.39999912706E+02 0.  0.
        -12    1    3    3    0    0  0.14942669875E+02  0.26450756652E+02  0.20805209719E+02  0.36820954114E+02  0.00000000000E+00 0.  1.
         11    1    4    4    0    0 -0.22615386255E+02 -0.64009618725E+01 -0.18587377566E+02  0.29965290144E+02  0.51100000000E-03 0. -1.
        -11    1    4    4    0    0  0.59195678916E+00 -0.77311732828E+01  0.41917444003E+01  0.88143164538E+01  0.51100000000E-03 0.  1.
         12    1    4    4    0    0  0.70807595914E+01 -0.12318621496E+02 -0.64095765531E+01  0.15587439288E+02  0.00000000000E+00 0. -1.
</event>
<event>
 8    1  0.1262344E-006  0.9118800E+02  0.7816164E-02  0.1184000E+00
        -11   -1    0    0    0    0  0.00000000000E+00  0.00000000000E+00  0.45593999997E+02  0.45594000000E+02  0.51100000000E-03 0.  1.
         11   -1    0    0    0    0 -0.00000000000E+00 -0.00000000000E+00 -0.45593999997E+02  0.45594000000E+02  0.51100000000E-03 0. -1.
         23    2    1    2    0    0  0.00000000000E+00  0.00000000000E+00  0.00000000000E+00  0.91188000000E+02  0.91188000000E+02 0.  0.
    9900012    2    3    3    0    0 -0.15836405475E+02  0.32143960190E+02 -0.84705715094E+01  0.54367129604E+02  0.40000103558E+02 0.  0.
        -12    1    3    3    0    0  0.15836405475E+02 -0.32143960190E+02  0.84705715094E+01  0.36820870396E+02  0.00000000000E+00 0.  1.
         11    1    4    4    0    0  0.77110738074E+01  0.13177912167E+02  0.42611000543E+00  0.15274148040E+02  0.51100000000E-03 0. -1.
        -11    1    4    4    0    0 -0.12907552228E+02  0.20939885949E+02  0.73002734646E+00  0.24609280125E+02  0.51100000000E-03 0.  1.
        -12    1    4    4    0    0 -0.10639927054E+02 -0.19738379264E+01 -0.96267088613E+01  0.14483701439E+02  0.00000000000E+00 0.  1.
</event>
<event>
 8    1  0.1262344E-006  0.9118800E+02  0.7816164E-02  0.1184000E+00
        -11   -1    0    0    0    0  0.00000000000E+00  0.00000000000E+00  0.45593999997E+02  0.45594000000E+02  0.51100000000E-03 0.  1.
         11   -1    0    0    0    0 -0.00000000000E+00 -0.00000000000E+00 -0.45593999997E+02  0.45594000000E+02  0.51100000000E-03 0. -1.
         23    2    1    2    0    0  0.35527136788E-14 -0.35527136788E-14  0.48849813084E-14  0.91188000000E+02  0.91188000000E+02 0.  0.
    9900012    2    3    3    0    0  0.29849891195E+02 -0.21374902977E+02  0.28066949450E+01  0.54367081786E+02  0.39999994548E+02 0.  0.
         12    1    3    3    0    0 -0.29849891195E+02  0.21374902977E+02 -0.28066949450E+01  0.36820918214E+02  0.00000000000E+00 0. -1.
         11    1    4    4    0    0  0.72971052006E+01 -0.77726172481E+01 -0.14459591613E+02  0.17964996885E+02  0.51100000000E-03 0. -1.
        -11    1    4    4    0    0  0.23193194992E+02 -0.65511547278E+01  0.95339118371E+01  0.25917897241E+02  0.51100000000E-03 0.  1.
         12    1    4    4    0    0 -0.64040899781E+00 -0.70511310007E+01  0.77323747211E+01  0.10484187660E+02  0.00000000000E+00 0. -1.
</event>
<event>
 8    1  0.1262344E-006  0.9118800E+02  0.7816164E-02  0.1184000E+00
        -11   -1    0    0    0    0  0.00000000000E+00  0.00000000000E+00  0.45593999997E+02  0.45594000000E+02  0.51100000000E-03 0. -1.
         11   -1    0    0    0    0 -0.00000000000E+00 -0.00000000000E+00 -0.45593999997E+02  0.45594000000E+02  0.51100000000E-03 0.  1.
         23    2    1    2    0    0  0.00000000000E+00  0.33306690739E-15 -0.17763568394E-14  0.91188000000E+02  0.91188000000E+02 0.  0.
    9900012    2    3    3    0    0  0.34427444196E+02 -0.95387941010E+00 -0.13023906049E+02  0.54367069423E+02  0.39999966364E+02 0.  0.
         12    1    3    3    0    0 -0.34427444196E+02  0.95387941010E+00  0.13023906049E+02  0.36820930577E+02  0.00000000000E+00 0. -1.
         11    1    4    4    0    0  0.74908294656E+01 -0.10428565447E+01  0.10443918645E+02  0.12894786263E+02  0.51100000000E-03 0.  1.
        -11    1    4    4    0    0  0.18729889107E+01 -0.39025072540E+01 -0.13548564903E+02  0.14223264798E+02  0.51100000000E-03 0. -1.
        -12    1    4    4    0    0  0.25063625820E+02  0.39914843886E+01 -0.99192597903E+01  0.27249018361E+02  0.00000000000E+00 0.  1.
</event>
<event>
 8    1  0.1262344E-006  0.9118800E+02  0.7816164E-02  0.1184000E+00
        -11   -1    0    0    0    0  0.00000000000E+00  0.00000000000E+00  0.45593999997E+02  0.45594000000E+02  0.51100000000E-03 0.  1.
         11   -1    0    0    0    0 -0.00000000000E+00 -0.00000000000E+00 -0.45593999997E+02  0.45594000000E+02  0.51100000000E-03 0. -1.
         23    2    1    2    0    0  0.35527136788E-14  0.00000000000E+00  0.00000000000E+00  0.91188000000E+02  0.91188000000E+02 0.  0.
    9900012    2    3    3    0    0  0.18238263317E+02 -0.52257351352E+01 -0.31556890108E+02  0.54367083800E+02  0.39999999138E+02 0.  0.
        -12    1    3    3    0    0 -0.18238263317E+02  0.52257351352E+01  0.31556890108E+02  0.36820916200E+02  0.00000000000E+00 0.  1.
         11    1    4    4    0    0  0.29391751914E+02 -0.80363293629E+01 -0.16719587140E+02  0.34756326972E+02  0.51100000000E-03 0.  1.
        -11    1    4    4    0    0 -0.53068731303E+01  0.20886623608E+01 -0.11508970858E+02  0.12844525034E+02  0.51100000000E-03 0. -1.
        -12    1    4    4    0    0 -0.58466154671E+01  0.72193186690E+00 -0.33283321109E+01  0.67662317934E+01  0.00000000000E+00 0.  1.
</event>
<event>
 8    1  0.1262344E-006  0.9118800E+02  0.7816164E-02  0.1184000E+00
        -11   -1    0    0    0    0  0.00000000000E+00  0.00000000000E+00  0.45593999997E+02  0.45594000000E+02  0.51100000000E-03 0.  1.
         11   -1    0    0    0    0 -0.00000000000E+00 -0.00000000000E+00 -0.45593999997E+02  0.45594000000E+02  0.51100000000E-03 0. -1.
         23    2    1    2    0    0  0.00000000000E+00 -0.35527136788E-14 -0.17763568394E-14  0.91188000000E+02  0.91188000000E+02 0.  0.
    9900012    2    3    3    0    0  0.21932966296E+02  0.26664298836E+02 -0.12796094416E+02  0.54367083726E+02  0.39999998970E+02 0.  0.
        -12    1    3    3    0    0 -0.21932966296E+02 -0.26664298836E+02  0.12796094416E+02  0.36820916274E+02  0.00000000000E+00 0.  1.
         11    1    4    4    0    0 -0.87158037594E+00  0.29197571437E+01 -0.28469096916E+01  0.41700754409E+01  0.51100000000E-03 0. -1.
        -11    1    4    4    0    0 -0.21046623770E+00 -0.87004927235E+01  0.14361202622E+01  0.88207319049E+01  0.51100000000E-03 0.  1.
         12    1    4    4    0    0  0.23015012909E+02  0.32445034416E+02 -0.11385304987E+02  0.41376276380E+02  0.00000000000E+00 0. -1.
</event>
<event>
 8    1  0.1262344E-006  0.9118800E+02  0.7816164E-02  0.1184000E+00
        -11   -1    0    0    0    0  0.00000000000E+00  0.00000000000E+00  0.45593999997E+02  0.45594000000E+02  0.51100000000E-03 0.  1.
         11   -1    0    0    0    0 -0.00000000000E+00 -0.00000000000E+00 -0.45593999997E+02  0.45594000000E+02  0.51100000000E-03 0. -1.
         23    2    1    2    0    0  0.00000000000E+00  0.35527136788E-14  0.22204460493E-14  0.91188000000E+02  0.91188000000E+02 0.  0.
    9900012    2    3    3    0    0 -0.19662801208E+02 -0.31063764030E+02  0.20486414449E+01  0.54367080418E+02  0.39999991429E+02 0.  0.
         12    1    3    3    0    0  0.19662801208E+02  0.31063764030E+02 -0.20486414449E+01  0.36820919582E+02  0.00000000000E+00 0. -1.
         11    1    4    4    0    0  0.25620298505E+01  0.15637067152E+01 -0.78523761254E+00  0.31025431528E+01  0.51100000000E-03 0. -1.
        -11    1    4    4    0    0 -0.18086388170E+02 -0.17755315125E+02 -0.13561632962E+02  0.28745200313E+02  0.51100000000E-03 0.  1.
        -12    1    4    4    0    0 -0.41384428889E+01 -0.14872155621E+02  0.16395512020E+02  0.22519336952E+02  0.00000000000E+00 0.  1.
</event>
<event>
 8    1  0.1262344E-006  0.9118800E+02  0.7816164E-02  0.1184000E+00
        -11   -1    0    0    0    0  0.00000000000E+00  0.00000000000E+00  0.45593999997E+02  0.45594000000E+02  0.51100000000E-03 0. -1.
         11   -1    0    0    0    0 -0.00000000000E+00 -0.00000000000E+00 -0.45593999997E+02  0.45594000000E+02  0.51100000000E-03 0.  1.
         23    2    1    2    0    0 -0.44408920985E-15 -0.35527136788E-14 -0.71054273576E-14  0.91188000000E+02  0.91188000000E+02 0.  0.
    9900012    2    3    3    0    0  0.29715172107E+01  0.29101294672E+02  0.22362125332E+02  0.54367083180E+02  0.39999997726E+02 0.  0.
        -12    1    3    3    0    0 -0.29715172107E+01 -0.29101294672E+02 -0.22362125332E+02  0.36820916820E+02  0.00000000000E+00 0.  1.
         11    1    4    4    0    0  0.17656306193E+01  0.14592924286E+02  0.22222313114E+02  0.26643987898E+02  0.51100000000E-03 0. -1.
        -11    1    4    4    0    0  0.52946336891E+01  0.59512283034E+01  0.10822609578E+02  0.13437973901E+02  0.51100000000E-03 0.  1.
        -12    1    4    4    0    0 -0.40887470977E+01  0.85571420825E+01 -0.10682797360E+02  0.14285121382E+02  0.00000000000E+00 0.  1.
</event>
<event>
 8    1  0.1262344E-006  0.9118800E+02  0.7816164E-02  0.1184000E+00
        -11   -1    0    0    0    0  0.00000000000E+00  0.00000000000E+00  0.45593999997E+02  0.45594000000E+02  0.51100000000E-03 0. -1.
         11   -1    0    0    0    0 -0.00000000000E+00 -0.00000000000E+00 -0.45593999997E+02  0.45594000000E+02  0.51100000000E-03 0.  1.
         23    2    1    2    0    0  0.00000000000E+00  0.00000000000E+00  0.35527136788E-14  0.91188000000E+02  0.91188000000E+02 0.  0.
    9900012    2    3    3    0    0 -0.20560793976E+02 -0.17467594121E+02 -0.25058275811E+02  0.54367078231E+02  0.39999986443E+02 0.  0.
         12    1    3    3    0    0  0.20560793976E+02  0.17467594121E+02  0.25058275811E+02  0.36820921769E+02  0.00000000000E+00 0. -1.
         11    1    4    4    0    0 -0.10866919329E+02 -0.64852581631E+01 -0.19696318206E+02  0.23411395949E+02  0.51100000000E-03 0. -1.
        -11    1    4    4    0    0  0.56492909589E+01 -0.13727023265E+02 -0.16701276562E+01  0.14937703395E+02  0.51100000000E-03 0.  1.
         12    1    4    4    0    0 -0.15343165606E+02  0.27446873079E+01 -0.36918299488E+01  0.16017978887E+02  0.00000000000E+00 0. -1.
</event>
<event>
 8    1  0.1262344E-006  0.9118800E+02  0.7816164E-02  0.1184000E+00
        -11   -1    0    0    0    0  0.00000000000E+00  0.00000000000E+00  0.45593999997E+02  0.45594000000E+02  0.51100000000E-03 0. -1.
         11   -1    0    0    0    0 -0.00000000000E+00 -0.00000000000E+00 -0.45593999997E+02  0.45594000000E+02  0.51100000000E-03 0.  1.
         23    2    1    2    0    0  0.88817841970E-15  0.53290705182E-14  0.00000000000E+00  0.91188000000E+02  0.91188000000E+02 0.  0.
    9900012    2    3    3    0    0  0.42241678130E+01  0.14954536199E+02  0.33381137391E+02  0.54367053785E+02  0.39999930714E+02 0.  0.
        -12    1    3    3    0    0 -0.42241678130E+01 -0.14954536199E+02 -0.33381137391E+02  0.36820946215E+02  0.00000000000E+00 0.  1.
         11    1    4    4    0    0  0.12839287621E+02  0.13422401412E+02  0.25146481120E+02  0.31262656305E+02  0.51100000000E-03 0. -1.
        -11    1    4    4    0    0 -0.13563139877E+01 -0.31110505253E+01 -0.57507695099E+01  0.66775424537E+01  0.51100000000E-03 0.  1.
        -12    1    4    4    0    0 -0.72588058205E+01  0.46431853120E+01  0.13985425781E+02  0.16426855027E+02  0.00000000000E+00 0.  1.
</event>
<event>
 8    1  0.1262344E-006  0.9118800E+02  0.7816164E-02  0.1184000E+00
        -11   -1    0    0    0    0  0.00000000000E+00  0.00000000000E+00  0.45593999997E+02  0.45594000000E+02  0.51100000000E-03 0. -1.
         11   -1    0    0    0    0 -0.00000000000E+00 -0.00000000000E+00 -0.45593999997E+02  0.45594000000E+02  0.51100000000E-03 0.  1.
         23    2    1    2    0    0 -0.35527136788E-14 -0.88817841970E-15 -0.35527136788E-14  0.91188000000E+02  0.91188000000E+02 0.  0.
    9900012    2    3    3    0    0 -0.19711110337E+02 -0.57872347054E+01 -0.30557522669E+02  0.54367052865E+02  0.39999928616E+02 0.  0.
         12    1    3    3    0    0  0.19711110337E+02  0.57872347054E+01  0.30557522669E+02  0.36820947135E+02  0.00000000000E+00 0. -1.
         11    1    4    4    0    0 -0.11841438633E+01 -0.40015882175E-01 -0.55237478037E+01  0.56493882872E+01  0.51100000000E-03 0. -1.
        -11    1    4    4    0    0 -0.30698895160E+01  0.17718036582E+01 -0.30480945936E+02  0.30686341836E+02  0.51100000000E-03 0.  1.
         12    1    4    4    0    0 -0.15457076957E+02 -0.75190224815E+01  0.54471710706E+01  0.18031322742E+02  0.00000000000E+00 0. -1.
</event>
<event>
 8    1  0.1262344E-006  0.9118800E+02  0.7816164E-02  0.1184000E+00
        -11   -1    0    0    0    0  0.00000000000E+00  0.00000000000E+00  0.45593999997E+02  0.45594000000E+02  0.51100000000E-03 0. -1.
         11   -1    0    0    0    0 -0.00000000000E+00 -0.00000000000E+00 -0.45593999997E+02  0.45594000000E+02  0.51100000000E-03 0.  1.
         23    2    1    2    0    0 -0.17763568394E-14 -0.35527136788E-14 -0.35527136788E-14  0.91188000000E+02  0.91188000000E+02 0.  0.
    9900012    2    3    3    0    0  0.14576631347E+02 -0.16271166619E+02 -0.29640217527E+02  0.54367196918E+02  0.40000257013E+02 0.  0.
         12    1    3    3    0    0 -0.14576631347E+02  0.16271166619E+02  0.29640217527E+02  0.36820803082E+02  0.00000000000E+00 0. -1.
         11    1    4    4    0    0  0.14432765009E+02 -0.17505267439E+02 -0.16802071626E+02  0.28232051025E+02  0.51100000000E-03 0. -1.
        -11    1    4    4    0    0 -0.90517938131E+01  0.12350872798E+01 -0.14153558909E+02  0.16845879077E+02  0.51100000000E-03 0.  1.
         12    1    4    4    0    0  0.91956601515E+01 -0.98645916675E-03  0.13154130072E+01  0.92892668158E+01  0.00000000000E+00 0. -1.
</event>
<event>
 8    1  0.1262344E-006  0.9118800E+02  0.7816164E-02  0.1184000E+00
        -11   -1    0    0    0    0  0.00000000000E+00  0.00000000000E+00  0.45593999997E+02  0.45594000000E+02  0.51100000000E-03 0. -1.
         11   -1    0    0    0    0 -0.00000000000E+00 -0.00000000000E+00 -0.45593999997E+02  0.45594000000E+02  0.51100000000E-03 0.  1.
         23    2    1    2    0    0  0.00000000000E+00  0.00000000000E+00  0.00000000000E+00  0.91188000000E+02  0.91188000000E+02 0.  0.
    9900012    2    3    3    0    0  0.70865297967E+01 -0.12199687697E+02  0.34010716828E+02  0.54367080082E+02  0.39999990662E+02 0.  0.
        -12    1    3    3    0    0 -0.70865297967E+01  0.12199687697E+02 -0.34010716828E+02  0.36820919918E+02  0.00000000000E+00 0.  1.
         11    1    4    4    0    0  0.14241799404E+01 -0.92249649319E+01  0.18873038964E+01  0.95231393330E+01  0.51100000000E-03 0.  1.
        -11    1    4    4    0    0  0.54455008113E+01  0.94402489122E+01  0.54481533456E+00  0.10911856058E+02  0.51100000000E-03 0. -1.
         12    1    4    4    0    0  0.21684904493E+00 -0.12414971677E+02  0.31578597597E+02  0.33932084691E+02  0.00000000000E+00 0. -1.
</event>
<event>
 8    1  0.1262344E-006  0.9118800E+02  0.7816164E-02  0.1184000E+00
        -11   -1    0    0    0    0  0.00000000000E+00  0.00000000000E+00  0.45593999997E+02  0.45594000000E+02  0.51100000000E-03 0.  1.
         11   -1    0    0    0    0 -0.00000000000E+00 -0.00000000000E+00 -0.45593999997E+02  0.45594000000E+02  0.51100000000E-03 0. -1.
         23    2    1    2    0    0  0.00000000000E+00 -0.35527136788E-14  0.00000000000E+00  0.91188000000E+02  0.91188000000E+02 0.  0.
    9900012    2    3    3    0    0 -0.12411060911E+02 -0.23080504122E+02  0.25865731370E+02  0.54367079822E+02  0.39999990069E+02 0.  0.
         12    1    3    3    0    0  0.12411060911E+02  0.23080504122E+02 -0.25865731370E+02  0.36820920178E+02  0.00000000000E+00 0. -1.
         11    1    4    4    0    0 -0.13029704185E+02 -0.41113924344E+00  0.28909665018E+00  0.13039394302E+02  0.51100000000E-03 0. -1.
        -11    1    4    4    0    0 -0.78330730832E+01 -0.21660405223E+02  0.22710092386E+02  0.32346228293E+02  0.51100000000E-03 0.  1.
         12    1    4    4    0    0  0.84517163570E+01 -0.10089596561E+01  0.28665423343E+01  0.89814572271E+01  0.00000000000E+00 0. -1.
</event>
<event>
 8    1  0.1262344E-006  0.9118800E+02  0.7816164E-02  0.1184000E+00
        -11   -1    0    0    0    0  0.00000000000E+00  0.00000000000E+00  0.45593999997E+02  0.45594000000E+02  0.51100000000E-03 0.  1.
         11   -1    0    0    0    0 -0.00000000000E+00 -0.00000000000E+00 -0.45593999997E+02  0.45594000000E+02  0.51100000000E-03 0. -1.
         23    2    1    2    0    0  0.35527136788E-14 -0.17763568394E-14 -0.35527136788E-14  0.91188000000E+02  0.91188000000E+02 0.  0.
    9900012    2    3    3    0    0 -0.26644537765E+02  0.66717907877E+01 -0.24522131271E+02  0.54367094157E+02  0.40000022749E+02 0.  0.
        -12    1    3    3    0    0  0.26644537765E+02 -0.66717907877E+01  0.24522131271E+02  0.36820905843E+02  0.00000000000E+00 0.  1.
         11    1    4    4    0    0 -0.11819033619E+02  0.64037195342E+00  0.23871998669E+01  0.12074698978E+02  0.51100000000E-03 0. -1.
        -11    1    4    4    0    0 -0.81925077407E+01 -0.10983696718E+02 -0.74146740450E+01  0.15579992559E+02  0.51100000000E-03 0.  1.
         12    1    4    4    0    0 -0.66329964052E+01  0.17015115553E+02 -0.19494657093E+02  0.26712402620E+02  0.00000000000E+00 0. -1.
</event>
<event>
 8    1  0.1262344E-006  0.9118800E+02  0.7816164E-02  0.1184000E+00
        -11   -1    0    0    0    0  0.00000000000E+00  0.00000000000E+00  0.45593999997E+02  0.45594000000E+02  0.51100000000E-03 0. -1.
         11   -1    0    0    0    0 -0.00000000000E+00 -0.00000000000E+00 -0.45593999997E+02  0.45594000000E+02  0.51100000000E-03 0.  1.
         23    2    1    2    0    0 -0.35527136788E-14 -0.35527136788E-14  0.44408920985E-15  0.91188000000E+02  0.91188000000E+02 0.  0.
    9900012    2    3    3    0    0  0.19047439610E+02  0.31473024330E+02  0.15563838094E+01  0.54367101766E+02  0.40000040097E+02 0.  0.
        -12    1    3    3    0    0 -0.19047439610E+02 -0.31473024330E+02 -0.15563838094E+01  0.36820898234E+02  0.00000000000E+00 0.  1.
         11    1    4    4    0    0  0.16505207897E+02  0.32338675683E+02 -0.96616927034E+01  0.37570735138E+02  0.51100000000E-03 0. -1.
        -11    1    4    4    0    0  0.84012423559E+00 -0.34401652879E+01 -0.13987811161E+01  0.38075103166E+01  0.51100000000E-03 0.  1.
         12    1    4    4    0    0  0.17021074771E+01  0.25745139352E+01  0.12616857629E+02  0.12988856312E+02  0.00000000000E+00 0. -1.
</event>
<event>
 8    1  0.1262344E-006  0.9118800E+02  0.7816164E-02  0.1184000E+00
        -11   -1    0    0    0    0  0.00000000000E+00  0.00000000000E+00  0.45593999997E+02  0.45594000000E+02  0.51100000000E-03 0. -1.
         11   -1    0    0    0    0 -0.00000000000E+00 -0.00000000000E+00 -0.45593999997E+02  0.45594000000E+02  0.51100000000E-03 0.  1.
         23    2    1    2    0    0  0.00000000000E+00  0.00000000000E+00  0.88817841970E-15  0.91188000000E+02  0.91188000000E+02 0.  0.
    9900012    2    3    3    0    0  0.15458137255E+02 -0.32941505210E+02  0.56288292346E+01  0.54367075358E+02  0.39999979894E+02 0.  0.
        -12    1    3    3    0    0 -0.15458137255E+02  0.32941505210E+02 -0.56288292346E+01  0.36820924642E+02  0.00000000000E+00 0.  1.
         11    1    4    4    0    0  0.59814668292E+01 -0.28600487547E+02  0.38503093474E+01  0.29471863119E+02  0.51100000000E-03 0. -1.
        -11    1    4    4    0    0  0.12646963184E+02 -0.88837932411E+01 -0.49044059912E+01  0.16214828353E+02  0.51100000000E-03 0.  1.
         12    1    4    4    0    0 -0.31702927582E+01  0.45427755778E+01  0.66829258784E+01  0.86803838866E+01  0.00000000000E+00 0. -1.
</event>
<event>
 8    1  0.1262344E-006  0.9118800E+02  0.7816164E-02  0.1184000E+00
        -11   -1    0    0    0    0  0.00000000000E+00  0.00000000000E+00  0.45593999997E+02  0.45594000000E+02  0.51100000000E-03 0.  1.
         11   -1    0    0    0    0 -0.00000000000E+00 -0.00000000000E+00 -0.45593999997E+02  0.45594000000E+02  0.51100000000E-03 0. -1.
         23    2    1    2    0    0  0.00000000000E+00  0.00000000000E+00  0.17763568394E-14  0.91188000000E+02  0.91188000000E+02 0.  0.
    9900012    2    3    3    0    0  0.32855041166E+02  0.83062247225E+01 -0.14399019808E+02  0.54367097368E+02  0.40000030070E+02 0.  0.
         12    1    3    3    0    0 -0.32855041166E+02 -0.83062247225E+01  0.14399019808E+02  0.36820902632E+02  0.00000000000E+00 0. -1.
         11    1    4    4    0    0  0.40608813682E+01  0.69549449680E+01 -0.12755143421E+02  0.15084949484E+02  0.51100000000E-03 0. -1.
        -11    1    4    4    0    0  0.12969970099E+02  0.10018555869E+02 -0.10210610738E+02  0.19309276475E+02  0.51100000000E-03 0.  1.
        -12    1    4    4    0    0  0.15824189699E+02 -0.86672761150E+01  0.85667343508E+01  0.19972871409E+02  0.00000000000E+00 0.  1.
</event>
<event>
 8    1  0.1262344E-006  0.9118800E+02  0.7816164E-02  0.1184000E+00
        -11   -1    0    0    0    0  0.00000000000E+00  0.00000000000E+00  0.45593999997E+02  0.45594000000E+02  0.51100000000E-03 0. -1.
         11   -1    0    0    0    0 -0.00000000000E+00 -0.00000000000E+00 -0.45593999997E+02  0.45594000000E+02  0.51100000000E-03 0.  1.
         23    2    1    2    0    0 -0.35527136788E-14  0.44408920985E-15  0.00000000000E+00  0.91188000000E+02  0.91188000000E+02 0.  0.
    9900012    2    3    3    0    0  0.29224810442E+02  0.20408218634E+01 -0.22305268077E+02  0.54367089050E+02  0.40000011107E+02 0.  0.
         12    1    3    3    0    0 -0.29224810442E+02 -0.20408218634E+01  0.22305268077E+02  0.36820910950E+02  0.00000000000E+00 0. -1.
         11    1    4    4    0    0  0.76394395612E+01 -0.68796020106E+01  0.43083792227E+01  0.11146842262E+02  0.51100000000E-03 0. -1.
        -11    1    4    4    0    0  0.14105136910E+02  0.15760039895E+02 -0.25336795576E+02  0.33004347518E+02  0.51100000000E-03 0.  1.
        -12    1    4    4    0    0  0.74802339705E+01 -0.68396160207E+01 -0.12768517233E+01  0.10215899270E+02  0.00000000000E+00 0.  1.
</event>
<event>
 8    1  0.1262344E-006  0.9118800E+02  0.7816164E-02  0.1184000E+00
        -11   -1    0    0    0    0  0.00000000000E+00  0.00000000000E+00  0.45593999997E+02  0.45594000000E+02  0.51100000000E-03 0.  1.
         11   -1    0    0    0    0 -0.00000000000E+00 -0.00000000000E+00 -0.45593999997E+02  0.45594000000E+02  0.51100000000E-03 0. -1.
         23    2    1    2    0    0  0.17763568394E-14 -0.35527136788E-14  0.17763568394E-14  0.91188000000E+02  0.91188000000E+02 0.  0.
    9900012    2    3    3    0    0  0.15287182494E+02 -0.29738314064E+02  0.15418022696E+02  0.54367072583E+02  0.39999973568E+02 0.  0.
         12    1    3    3    0    0 -0.15287182494E+02  0.29738314064E+02 -0.15418022696E+02  0.36820927417E+02  0.00000000000E+00 0. -1.
         11    1    4    4    0    0  0.10443702763E+02 -0.12662117855E+02 -0.11726763106E+02  0.20172187020E+02  0.51100000000E-03 0. -1.
        -11    1    4    4    0    0 -0.30835830237E+01 -0.80320869989E+01  0.13479011961E+02  0.15990830795E+02  0.51100000000E-03 0.  1.
        -12    1    4    4    0    0  0.79270627541E+01 -0.90441092109E+01  0.13665773841E+02  0.18204054768E+02  0.00000000000E+00 0.  1.
</event>
<event>
 8    1  0.1262344E-006  0.9118800E+02  0.7816164E-02  0.1184000E+00
        -11   -1    0    0    0    0  0.00000000000E+00  0.00000000000E+00  0.45593999997E+02  0.45594000000E+02  0.51100000000E-03 0.  1.
         11   -1    0    0    0    0 -0.00000000000E+00 -0.00000000000E+00 -0.45593999997E+02  0.45594000000E+02  0.51100000000E-03 0. -1.
         23    2    1    2    0    0  0.35527136788E-14  0.17763568394E-14  0.00000000000E+00  0.91188000000E+02  0.91188000000E+02 0.  0.
    9900012    2    3    3    0    0  0.12010236938E+02  0.12319370916E+02 -0.32554066477E+02  0.54367082911E+02  0.39999997112E+02 0.  0.
        -12    1    3    3    0    0 -0.12010236938E+02 -0.12319370916E+02  0.32554066477E+02  0.36820917089E+02  0.00000000000E+00 0.  1.
         11    1    4    4    0    0 -0.11081164622E+01  0.62105076053E+00  0.15567489252E+00  0.12797894648E+01  0.51100000000E-03 0. -1.
        -11    1    4    4    0    0 -0.13312641256E+02  0.67345061436E+01 -0.11838222149E+02  0.19045301104E+02  0.51100000000E-03 0.  1.
         12    1    4    4    0    0  0.26430994656E+02  0.49638140120E+01 -0.20871519220E+02  0.34041992342E+02  0.00000000000E+00 0. -1.
</event>
<event>
 8    1  0.1262344E-006  0.9118800E+02  0.7816164E-02  0.1184000E+00
        -11   -1    0    0    0    0  0.00000000000E+00  0.00000000000E+00  0.45593999997E+02  0.45594000000E+02  0.51100000000E-03 0.  1.
         11   -1    0    0    0    0 -0.00000000000E+00 -0.00000000000E+00 -0.45593999997E+02  0.45594000000E+02  0.51100000000E-03 0. -1.
         23    2    1    2    0    0  0.00000000000E+00  0.00000000000E+00  0.00000000000E+00  0.91188000000E+02  0.91188000000E+02 0.  0.
    9900012    2    3    3    0    0 -0.23420795962E+02 -0.16703662189E+02  0.22983336351E+02  0.54367085239E+02  0.40000002420E+02 0.  0.
         12    1    3    3    0    0  0.23420795962E+02  0.16703662189E+02 -0.22983336351E+02  0.36820914761E+02  0.00000000000E+00 0. -1.
         11    1    4    4    0    0 -0.17757385658E+02 -0.77713784389E+01  0.22765380978E+00  0.19384810929E+02  0.51100000000E-03 0. -1.
        -11    1    4    4    0    0 -0.18778761719E+01 -0.17104220574E+02  0.12126906463E+02  0.21050953446E+02  0.51100000000E-03 0.  1.
         12    1    4    4    0    0 -0.37855341319E+01  0.81719368239E+01  0.10628776077E+02  0.13931320864E+02  0.00000000000E+00 0. -1.
</event>
<event>
 8    1  0.1262344E-006  0.9118800E+02  0.7816164E-02  0.1184000E+00
        -11   -1    0    0    0    0  0.00000000000E+00  0.00000000000E+00  0.45593999997E+02  0.45594000000E+02  0.51100000000E-03 0.  1.
         11   -1    0    0    0    0 -0.00000000000E+00 -0.00000000000E+00 -0.45593999997E+02  0.45594000000E+02  0.51100000000E-03 0. -1.
         23    2    1    2    0    0 -0.17763568394E-14  0.71054273576E-14  0.88817841970E-15  0.91188000000E+02  0.91188000000E+02 0.  0.
    9900012    2    3    3    0    0 -0.87286095807E+01 -0.35609366270E+02  0.34006837532E+01  0.54367078754E+02  0.39999987636E+02 0.  0.
         12    1    3    3    0    0  0.87286095807E+01  0.35609366270E+02 -0.34006837532E+01  0.36820921246E+02  0.00000000000E+00 0. -1.
         11    1    4    4    0    0  0.12963536241E+02 -0.65701925455E+01  0.80335084833E+01  0.16605961603E+02  0.51100000000E-03 0. -1.
        -11    1    4    4    0    0 -0.14371304013E+02 -0.11768428928E+02 -0.39504169480E+01  0.18990421080E+02  0.51100000000E-03 0.  1.
         12    1    4    4    0    0 -0.73208418081E+01 -0.17270744797E+02 -0.68240778202E+00  0.18770696071E+02  0.00000000000E+00 0. -1.
</event>
<event>
 8    1  0.1262344E-006  0.9118800E+02  0.7816164E-02  0.1184000E+00
        -11   -1    0    0    0    0  0.00000000000E+00  0.00000000000E+00  0.45593999997E+02  0.45594000000E+02  0.51100000000E-03 0.  1.
         11   -1    0    0    0    0 -0.00000000000E+00 -0.00000000000E+00 -0.45593999997E+02  0.45594000000E+02  0.51100000000E-03 0. -1.
         23    2    1    2    0    0  0.35527136788E-14  0.00000000000E+00  0.00000000000E+00  0.91188000000E+02  0.91188000000E+02 0.  0.
    9900012    2    3    3    0    0 -0.30722256958E+02 -0.18755205801E+02  0.77565965885E+01  0.54367087357E+02  0.40000007247E+02 0.  0.
         12    1    3    3    0    0  0.30722256958E+02  0.18755205801E+02 -0.77565965885E+01  0.36820912643E+02  0.00000000000E+00 0. -1.
         11    1    4    4    0    0 -0.16297720816E+01 -0.44563472290E+00  0.17778333745E+02  0.17858440536E+02  0.51100000000E-03 0. -1.
        -11    1    4    4    0    0 -0.20880661766E+02 -0.16061571524E+02 -0.56688171714E+01  0.26946458097E+02  0.51100000000E-03 0.  1.
         12    1    4    4    0    0 -0.82118231103E+01 -0.22479995547E+01 -0.43529199854E+01  0.95621887239E+01  0.00000000000E+00 0. -1.
</event>
<event>
 8    1  0.1262344E-006  0.9118800E+02  0.7816164E-02  0.1184000E+00
        -11   -1    0    0    0    0  0.00000000000E+00  0.00000000000E+00  0.45593999997E+02  0.45594000000E+02  0.51100000000E-03 0. -1.
         11   -1    0    0    0    0 -0.00000000000E+00 -0.00000000000E+00 -0.45593999997E+02  0.45594000000E+02  0.51100000000E-03 0.  1.
         23    2    1    2    0    0  0.00000000000E+00 -0.17763568394E-14  0.00000000000E+00  0.91188000000E+02  0.91188000000E+02 0.  0.
    9900012    2    3    3    0    0 -0.14219931859E+02 -0.12429484795E+02 -0.31608240701E+02  0.54367089711E+02  0.40000012614E+02 0.  0.
         12    1    3    3    0    0  0.14219931859E+02  0.12429484795E+02  0.31608240701E+02  0.36820910289E+02  0.00000000000E+00 0. -1.
         11    1    4    4    0    0 -0.99973138691E+01  0.27868622345E+01 -0.71775537214E+01  0.12618643485E+02  0.51100000000E-03 0. -1.
        -11    1    4    4    0    0 -0.54122530613E+01 -0.22914986772E+02 -0.10484945528E+02  0.25774467695E+02  0.51100000000E-03 0.  1.
         12    1    4    4    0    0  0.11896350717E+01  0.76986397424E+01 -0.13945741451E+02  0.15973978531E+02  0.00000000000E+00 0. -1.
</event>
<event>
 8    1  0.1262344E-006  0.9118800E+02  0.7816164E-02  0.1184000E+00
        -11   -1    0    0    0    0  0.00000000000E+00  0.00000000000E+00  0.45593999997E+02  0.45594000000E+02  0.51100000000E-03 0. -1.
         11   -1    0    0    0    0 -0.00000000000E+00 -0.00000000000E+00 -0.45593999997E+02  0.45594000000E+02  0.51100000000E-03 0.  1.
         23    2    1    2    0    0 -0.17763568394E-14  0.35527136788E-14  0.35527136788E-14  0.91188000000E+02  0.91188000000E+02 0.  0.
    9900012    2    3    3    0    0 -0.10206217761E+02  0.21855340139E+02  0.27820059442E+02  0.54367102660E+02  0.40000042134E+02 0.  0.
        -12    1    3    3    0    0  0.10206217761E+02 -0.21855340139E+02 -0.27820059442E+02  0.36820897340E+02  0.00000000000E+00 0.  1.
         11    1    4    4    0    0  0.14982178720E+01  0.15016462706E+00  0.44370425239E+01  0.46855685704E+01  0.51100000000E-03 0. -1.
        -11    1    4    4    0    0 -0.24574626321E+02  0.14490508205E+02  0.19048692589E+02  0.34303640863E+02  0.51100000000E-03 0.  1.
        -12    1    4    4    0    0  0.12870190688E+02  0.72146673070E+01  0.43343243293E+01  0.15377893227E+02  0.00000000000E+00 0.  1.
</event>
<event>
 8    1  0.1262344E-006  0.9118800E+02  0.7816164E-02  0.1184000E+00
        -11   -1    0    0    0    0  0.00000000000E+00  0.00000000000E+00  0.45593999997E+02  0.45594000000E+02  0.51100000000E-03 0.  1.
         11   -1    0    0    0    0 -0.00000000000E+00 -0.00000000000E+00 -0.45593999997E+02  0.45594000000E+02  0.51100000000E-03 0. -1.
         23    2    1    2    0    0  0.00000000000E+00  0.00000000000E+00 -0.26645352591E-14  0.91188000000E+02  0.91188000000E+02 0.  0.
    9900012    2    3    3    0    0  0.29321186821E+02  0.21566677910E+02 -0.55611321946E+01  0.54367084966E+02  0.40000001797E+02 0.  0.
        -12    1    3    3    0    0 -0.29321186821E+02 -0.21566677910E+02  0.55611321946E+01  0.36820915034E+02  0.00000000000E+00 0.  1.
         11    1    4    4    0    0  0.45717949190E+01  0.77495735801E+01 -0.18375722471E+02  0.20460312218E+02  0.51100000000E-03 0. -1.
        -11    1    4    4    0    0  0.23379340887E+02  0.10314045045E+02  0.14926027409E+02  0.29593232334E+02  0.51100000000E-03 0.  1.
        -12    1    4    4    0    0  0.13700510150E+01  0.35030592848E+01 -0.21114371326E+01  0.43135404138E+01  0.00000000000E+00 0.  1.
</event>
<event>
 8    1  0.1262344E-006  0.9118800E+02  0.7816164E-02  0.1184000E+00
        -11   -1    0    0    0    0  0.00000000000E+00  0.00000000000E+00  0.45593999997E+02  0.45594000000E+02  0.51100000000E-03 0. -1.
         11   -1    0    0    0    0 -0.00000000000E+00 -0.00000000000E+00 -0.45593999997E+02  0.45594000000E+02  0.51100000000E-03 0.  1.
         23    2    1    2    0    0  0.00000000000E+00  0.35527136788E-14  0.35527136788E-14  0.91188000000E+02  0.91188000000E+02 0.  0.
    9900012    2    3    3    0    0 -0.13462167928E+02  0.17845153121E+02  0.29259091973E+02  0.54367164617E+02  0.40000183376E+02 0.  0.
        -12    1    3    3    0    0  0.13462167928E+02 -0.17845153121E+02 -0.29259091973E+02  0.36820835383E+02  0.00000000000E+00 0.  1.
         11    1    4    4    0    0  0.19168964345E-01  0.22598250560E+02  0.21873986468E+02  0.31450796176E+02  0.51100000000E-03 0. -1.
        -11    1    4    4    0    0  0.33809302114E+01 -0.28066346849E+01 -0.27547062180E-01  0.43941604944E+01  0.51100000000E-03 0.  1.
         12    1    4    4    0    0 -0.16862267104E+02 -0.19464627538E+01  0.74126525671E+01  0.18522207947E+02  0.00000000000E+00 0. -1.
</event>
<event>
 8    1  0.1262344E-006  0.9118800E+02  0.7816164E-02  0.1184000E+00
        -11   -1    0    0    0    0  0.00000000000E+00  0.00000000000E+00  0.45593999997E+02  0.45594000000E+02  0.51100000000E-03 0. -1.
         11   -1    0    0    0    0 -0.00000000000E+00 -0.00000000000E+00 -0.45593999997E+02  0.45594000000E+02  0.51100000000E-03 0.  1.
         23    2    1    2    0    0 -0.71054273576E-14  0.00000000000E+00  0.17763568394E-14  0.91188000000E+02  0.91188000000E+02 0.  0.
    9900012    2    3    3    0    0  0.33752242428E+02  0.89096860813E+01 -0.11712590411E+02  0.54367066428E+02  0.39999959536E+02 0.  0.
         12    1    3    3    0    0 -0.33752242428E+02 -0.89096860813E+01  0.11712590411E+02  0.36820933572E+02  0.00000000000E+00 0. -1.
         11    1    4    4    0    0  0.11844114345E+02  0.92655796663E+01  0.81596064728E+01  0.17108862885E+02  0.51100000000E-03 0. -1.
        -11    1    4    4    0    0  0.39717651065E+01 -0.47009611079E+01 -0.17622803583E+02  0.18666471541E+02  0.51100000000E-03 0.  1.
         12    1    4    4    0    0  0.17936362977E+02  0.43450675228E+01 -0.22493933000E+01  0.18591732002E+02  0.00000000000E+00 0. -1.
</event>
<event>
 8    1  0.1262344E-006  0.9118800E+02  0.7816164E-02  0.1184000E+00
        -11   -1    0    0    0    0  0.00000000000E+00  0.00000000000E+00  0.45593999997E+02  0.45594000000E+02  0.51100000000E-03 0. -1.
         11   -1    0    0    0    0 -0.00000000000E+00 -0.00000000000E+00 -0.45593999997E+02  0.45594000000E+02  0.51100000000E-03 0.  1.
         23    2    1    2    0    0  0.00000000000E+00  0.17763568394E-14 -0.35527136788E-14  0.91188000000E+02  0.91188000000E+02 0.  0.
    9900012    2    3    3    0    0  0.27306451373E+02  0.11658780565E+02  0.21776372983E+02  0.54367083781E+02  0.39999999096E+02 0.  0.
        -12    1    3    3    0    0 -0.27306451373E+02 -0.11658780565E+02 -0.21776372983E+02  0.36820916219E+02  0.00000000000E+00 0.  1.
         11    1    4    4    0    0  0.23967302576E+01 -0.87142795538E+01  0.19118382079E+02  0.21146997840E+02  0.51100000000E-03 0. -1.
        -11    1    4    4    0    0  0.18326507386E+01  0.20011489713E+01 -0.19819947807E+01  0.33602841408E+01  0.51100000000E-03 0.  1.
         12    1    4    4    0    0  0.23077070377E+02  0.18371911148E+02  0.46399856853E+01  0.29859801801E+02  0.00000000000E+00 0. -1.
</event>
<event>
 8    1  0.1262344E-006  0.9118800E+02  0.7816164E-02  0.1184000E+00
        -11   -1    0    0    0    0  0.00000000000E+00  0.00000000000E+00  0.45593999997E+02  0.45594000000E+02  0.51100000000E-03 0.  1.
         11   -1    0    0    0    0 -0.00000000000E+00 -0.00000000000E+00 -0.45593999997E+02  0.45594000000E+02  0.51100000000E-03 0. -1.
         23    2    1    2    0    0 -0.44408920985E-15  0.35527136788E-14  0.00000000000E+00  0.91188000000E+02  0.91188000000E+02 0.  0.
    9900012    2    3    3    0    0  0.22326776578E+01  0.16337448903E+02 -0.32922362125E+02  0.54367095420E+02  0.40000025630E+02 0.  0.
        -12    1    3    3    0    0 -0.22326776578E+01 -0.16337448903E+02  0.32922362125E+02  0.36820904580E+02  0.00000000000E+00 0.  1.
         11    1    4    4    0    0  0.19712901009E+02  0.10896002966E+02 -0.14252111409E+02  0.26654155899E+02  0.51100000000E-03 0. -1.
        -11    1    4    4    0    0 -0.13348769530E+02  0.18026604580E+01 -0.78961426916E+01  0.15613721605E+02  0.51100000000E-03 0.  1.
         12    1    4    4    0    0 -0.41314538213E+01  0.36387854793E+01 -0.10774108024E+02  0.12099217915E+02  0.00000000000E+00 0. -1.
</event>
<event>
 8    1  0.1262344E-006  0.9118800E+02  0.7816164E-02  0.1184000E+00
        -11   -1    0    0    0    0  0.00000000000E+00  0.00000000000E+00  0.45593999997E+02  0.45594000000E+02  0.51100000000E-03 0.  1.
         11   -1    0    0    0    0 -0.00000000000E+00 -0.00000000000E+00 -0.45593999997E+02  0.45594000000E+02  0.51100000000E-03 0. -1.
         23    2    1    2    0    0  0.35527136788E-14  0.35527136788E-14  0.00000000000E+00  0.91188000000E+02  0.91188000000E+02 0.  0.
    9900012    2    3    3    0    0  0.14315230833E+02 -0.27979371430E+02  0.19183522177E+02  0.54367101280E+02  0.40000038988E+02 0.  0.
        -12    1    3    3    0    0 -0.14315230833E+02  0.27979371430E+02 -0.19183522177E+02  0.36820898720E+02  0.00000000000E+00 0.  1.
         11    1    4    4    0    0 -0.56142629632E+00 -0.85778028792E+01 -0.27589644000E+01  0.90280555238E+01  0.51100000000E-03 0. -1.
        -11    1    4    4    0    0 -0.92734560181E+01 -0.48526467649E+01  0.10753277434E+02  0.15005936924E+02  0.51100000000E-03 0.  1.
         12    1    4    4    0    0  0.24150113147E+02 -0.14548921786E+02  0.11189209144E+02  0.30333108832E+02  0.00000000000E+00 0. -1.
</event>
<event>
 8    1  0.1262344E-006  0.9118800E+02  0.7816164E-02  0.1184000E+00
        -11   -1    0    0    0    0  0.00000000000E+00  0.00000000000E+00  0.45593999997E+02  0.45594000000E+02  0.51100000000E-03 0. -1.
         11   -1    0    0    0    0 -0.00000000000E+00 -0.00000000000E+00 -0.45593999997E+02  0.45594000000E+02  0.51100000000E-03 0.  1.
         23    2    1    2    0    0  0.00000000000E+00  0.00000000000E+00  0.00000000000E+00  0.91188000000E+02  0.91188000000E+02 0.  0.
    9900012    2    3    3    0    0 -0.12758403550E+02 -0.30113684857E+02 -0.16916525414E+02  0.54367085985E+02  0.40000004121E+02 0.  0.
         12    1    3    3    0    0  0.12758403550E+02  0.30113684857E+02  0.16916525414E+02  0.36820914015E+02  0.00000000000E+00 0. -1.
         11    1    4    4    0    0 -0.57763452796E+01 -0.85364154079E+01  0.71534605567E+01  0.12546256454E+02  0.51100000000E-03 0. -1.
        -11    1    4    4    0    0 -0.13310949282E+02 -0.23888811102E+02 -0.17896376349E+02  0.32682364561E+02  0.51100000000E-03 0.  1.
        -12    1    4    4    0    0  0.63288910122E+01  0.23115416525E+01 -0.61736096215E+01  0.91384649703E+01  0.00000000000E+00 0.  1.
</event>
<event>
 8    1  0.1262344E-006  0.9118800E+02  0.7816164E-02  0.1184000E+00
        -11   -1    0    0    0    0  0.00000000000E+00  0.00000000000E+00  0.45593999997E+02  0.45594000000E+02  0.51100000000E-03 0. -1.
         11   -1    0    0    0    0 -0.00000000000E+00 -0.00000000000E+00 -0.45593999997E+02  0.45594000000E+02  0.51100000000E-03 0.  1.
         23    2    1    2    0    0  0.88817841970E-15  0.00000000000E+00  0.00000000000E+00  0.91188000000E+02  0.91188000000E+02 0.  0.
    9900012    2    3    3    0    0 -0.74532652241E+01 -0.46153270257E+01  0.35762091057E+02  0.54367087968E+02  0.40000008641E+02 0.  0.
        -12    1    3    3    0    0  0.74532652241E+01  0.46153270257E+01 -0.35762091057E+02  0.36820912032E+02  0.00000000000E+00 0.  1.
         11    1    4    4    0    0 -0.53124677021E+01 -0.82160167611E+01  0.16883624004E+02  0.19513636367E+02  0.51100000000E-03 0.  1.
        -11    1    4    4    0    0 -0.83839730895E+01 -0.72273914077E+01  0.19408600468E+02  0.22343230826E+02  0.51100000000E-03 0. -1.
        -12    1    4    4    0    0  0.62431755675E+01  0.10828081143E+02 -0.53013341488E+00  0.12510220775E+02  0.00000000000E+00 0.  1.
</event>
<event>
 8    1  0.1262344E-006  0.9118800E+02  0.7816164E-02  0.1184000E+00
        -11   -1    0    0    0    0  0.00000000000E+00  0.00000000000E+00  0.45593999997E+02  0.45594000000E+02  0.51100000000E-03 0. -1.
         11   -1    0    0    0    0 -0.00000000000E+00 -0.00000000000E+00 -0.45593999997E+02  0.45594000000E+02  0.51100000000E-03 0.  1.
         23    2    1    2    0    0  0.17763568394E-14 -0.35527136788E-14  0.00000000000E+00  0.91188000000E+02  0.91188000000E+02 0.  0.
    9900012    2    3    3    0    0  0.12603619070E+02 -0.24298499547E+02  0.24627457161E+02  0.54367082845E+02  0.39999996962E+02 0.  0.
        -12    1    3    3    0    0 -0.12603619070E+02  0.24298499547E+02 -0.24627457161E+02  0.36820917155E+02  0.00000000000E+00 0.  1.
         11    1    4    4    0    0  0.42790796125E+01 -0.11162046878E+01  0.96719501122E+01  0.10634991983E+02  0.51100000000E-03 0. -1.
        -11    1    4    4    0    0  0.20022164734E+02 -0.18226811410E+02  0.15150790057E+02  0.31026604301E+02  0.51100000000E-03 0.  1.
        -12    1    4    4    0    0 -0.11697625276E+02 -0.49554834489E+01 -0.19528300833E+00  0.12705486562E+02  0.00000000000E+00 0.  1.
</event>
<event>
 8    1  0.1262344E-006  0.9118800E+02  0.7816164E-02  0.1184000E+00
        -11   -1    0    0    0    0  0.00000000000E+00  0.00000000000E+00  0.45593999997E+02  0.45594000000E+02  0.51100000000E-03 0.  1.
         11   -1    0    0    0    0 -0.00000000000E+00 -0.00000000000E+00 -0.45593999997E+02  0.45594000000E+02  0.51100000000E-03 0. -1.
         23    2    1    2    0    0  0.00000000000E+00  0.17763568394E-14 -0.26645352591E-14  0.91188000000E+02  0.91188000000E+02 0.  0.
    9900012    2    3    3    0    0 -0.33724656759E+02  0.14002272296E+02 -0.47290012941E+01  0.54367088059E+02  0.40000008847E+02 0.  0.
        -12    1    3    3    0    0  0.33724656759E+02 -0.14002272296E+02  0.47290012941E+01  0.36820911941E+02  0.00000000000E+00 0.  1.
         11    1    4    4    0    0 -0.63310541814E+01  0.11151228360E+02  0.88206343516E+01  0.15563924043E+02  0.51100000000E-03 0. -1.
        -11    1    4    4    0    0 -0.46008628024E+01  0.32259685291E+01  0.63956694746E+01  0.85134834097E+01  0.51100000000E-03 0.  1.
         12    1    4    4    0    0 -0.22792739775E+02 -0.37492459254E+00 -0.19945305120E+02  0.30289680606E+02  0.00000000000E+00 0. -1.
</event>
<event>
 8    1  0.1262344E-006  0.9118800E+02  0.7816164E-02  0.1184000E+00
        -11   -1    0    0    0    0  0.00000000000E+00  0.00000000000E+00  0.45593999997E+02  0.45594000000E+02  0.51100000000E-03 0.  1.
         11   -1    0    0    0    0 -0.00000000000E+00 -0.00000000000E+00 -0.45593999997E+02  0.45594000000E+02  0.51100000000E-03 0. -1.
         23    2    1    2    0    0  0.17763568394E-14  0.00000000000E+00  0.44408920985E-15  0.91188000000E+02  0.91188000000E+02 0.  0.
    9900012    2    3    3    0    0  0.11242683114E+02 -0.35058373317E+02 -0.54072742077E+00  0.54367084078E+02  0.39999999772E+02 0.  0.
        -12    1    3    3    0    0 -0.11242683114E+02  0.35058373317E+02  0.54072742077E+00  0.36820915922E+02  0.00000000000E+00 0.  1.
         11    1    4    4    0    0  0.11236097550E+02 -0.30401779379E+02  0.82838143730E+01  0.33453544781E+02  0.51100000000E-03 0.  1.
        -11    1    4    4    0    0  0.83305050373E+01  0.21544883866E-01 -0.76191122745E+01  0.11289315766E+02  0.51100000000E-03 0. -1.
        -12    1    4    4    0    0 -0.83239194736E+01 -0.46781388213E+01 -0.12054295192E+01  0.96242235302E+01  0.00000000000E+00 0.  1.
</event>
<event>
 8    1  0.1262344E-006  0.9118800E+02  0.7816164E-02  0.1184000E+00
        -11   -1    0    0    0    0  0.00000000000E+00  0.00000000000E+00  0.45593999997E+02  0.45594000000E+02  0.51100000000E-03 0.  1.
         11   -1    0    0    0    0 -0.00000000000E+00 -0.00000000000E+00 -0.45593999997E+02  0.45594000000E+02  0.51100000000E-03 0. -1.
         23    2    1    2    0    0  0.00000000000E+00  0.00000000000E+00  0.17763568394E-14  0.91188000000E+02  0.91188000000E+02 0.  0.
    9900012    2    3    3    0    0  0.23674494383E+02  0.24546915066E+02 -0.13883356610E+02  0.54367077764E+02  0.39999985379E+02 0.  0.
         12    1    3    3    0    0 -0.23674494383E+02 -0.24546915066E+02  0.13883356610E+02  0.36820922236E+02  0.00000000000E+00 0. -1.
         11    1    4    4    0    0  0.32682153913E+01  0.10213000946E+02 -0.10432629055E+02  0.14960827832E+02  0.51100000000E-03 0. -1.
        -11    1    4    4    0    0  0.14244646579E+02  0.21944110129E+01  0.12042574144E+02  0.18781613033E+02  0.51100000000E-03 0.  1.
        -12    1    4    4    0    0  0.61616324131E+01  0.12139503107E+02 -0.15493301699E+02  0.20624636899E+02  0.00000000000E+00 0.  1.
</event>
<event>
 8    1  0.1262344E-006  0.9118800E+02  0.7816164E-02  0.1184000E+00
        -11   -1    0    0    0    0  0.00000000000E+00  0.00000000000E+00  0.45593999997E+02  0.45594000000E+02  0.51100000000E-03 0.  1.
         11   -1    0    0    0    0 -0.00000000000E+00 -0.00000000000E+00 -0.45593999997E+02  0.45594000000E+02  0.51100000000E-03 0. -1.
         23    2    1    2    0    0  0.44408920985E-15  0.00000000000E+00  0.00000000000E+00  0.91188000000E+02  0.91188000000E+02 0.  0.
    9900012    2    3    3    0    0 -0.26788747467E+01  0.17018255813E+02  0.32542017119E+02  0.54367078244E+02  0.39999986472E+02 0.  0.
         12    1    3    3    0    0  0.26788747467E+01 -0.17018255813E+02 -0.32542017119E+02  0.36820921756E+02  0.00000000000E+00 0. -1.
         11    1    4    4    0    0  0.30763015786E+01  0.13010438448E+02  0.22256109351E+01  0.13553172481E+02  0.51100000000E-03 0. -1.
        -11    1    4    4    0    0 -0.33992685728E+01  0.15138765740E+02  0.20991665409E+02  0.26103395792E+02  0.51100000000E-03 0.  1.
         12    1    4    4    0    0 -0.23559077525E+01 -0.11130948375E+02  0.93247407750E+01  0.14710509970E+02  0.00000000000E+00 0. -1.
</event>
<event>
 8    1  0.1262344E-006  0.9118800E+02  0.7816164E-02  0.1184000E+00
        -11   -1    0    0    0    0  0.00000000000E+00  0.00000000000E+00  0.45593999997E+02  0.45594000000E+02  0.51100000000E-03 0.  1.
         11   -1    0    0    0    0 -0.00000000000E+00 -0.00000000000E+00 -0.45593999997E+02  0.45594000000E+02  0.51100000000E-03 0. -1.
         23    2    1    2    0    0  0.00000000000E+00 -0.88817841970E-15  0.00000000000E+00  0.91188000000E+02  0.91188000000E+02 0.  0.
    9900012    2    3    3    0    0 -0.33501973340E+02 -0.59623121637E+01  0.14065914342E+02  0.54367063968E+02  0.39999953928E+02 0.  0.
         12    1    3    3    0    0  0.33501973340E+02  0.59623121637E+01 -0.14065914342E+02  0.36820936032E+02  0.00000000000E+00 0. -1.
         11    1    4    4    0    0 -0.12301100442E+02  0.15495138003E+01 -0.50850005416E+01  0.13400570730E+02  0.51100000000E-03 0. -1.
        -11    1    4    4    0    0 -0.36423215423E+01 -0.16008984628E+02  0.11342798190E+02  0.19955279153E+02  0.51100000000E-03 0.  1.
         12    1    4    4    0    0 -0.17558551355E+02  0.84971586639E+01  0.78081166938E+01  0.21011214086E+02  0.00000000000E+00 0. -1.
</event>
<event>
 8    1  0.1262344E-006  0.9118800E+02  0.7816164E-02  0.1184000E+00
        -11   -1    0    0    0    0  0.00000000000E+00  0.00000000000E+00  0.45593999997E+02  0.45594000000E+02  0.51100000000E-03 0. -1.
         11   -1    0    0    0    0 -0.00000000000E+00 -0.00000000000E+00 -0.45593999997E+02  0.45594000000E+02  0.51100000000E-03 0.  1.
         23    2    1    2    0    0  0.00000000000E+00  0.00000000000E+00  0.00000000000E+00  0.91188000000E+02  0.91188000000E+02 0.  0.
    9900012    2    3    3    0    0  0.18537077436E+02  0.19262411853E+02  0.25320292781E+02  0.54367068768E+02  0.39999964870E+02 0.  0.
        -12    1    3    3    0    0 -0.18537077436E+02 -0.19262411853E+02 -0.25320292781E+02  0.36820931232E+02  0.00000000000E+00 0.  1.
         11    1    4    4    0    0  0.76751440118E+01  0.79865022711E+01  0.13920167548E+02  0.17789410304E+02  0.51100000000E-03 0. -1.
        -11    1    4    4    0    0  0.10163745024E+02  0.12797691991E+02  0.21125633937E+02  0.26709081652E+02  0.51100000000E-03 0.  1.
        -12    1    4    4    0    0  0.69818840036E+00 -0.15217824090E+01 -0.97255087039E+01  0.98685768119E+01  0.00000000000E+00 0.  1.
</event>
<event>
 8    1  0.1262344E-006  0.9118800E+02  0.7816164E-02  0.1184000E+00
        -11   -1    0    0    0    0  0.00000000000E+00  0.00000000000E+00  0.45593999997E+02  0.45594000000E+02  0.51100000000E-03 0. -1.
         11   -1    0    0    0    0 -0.00000000000E+00 -0.00000000000E+00 -0.45593999997E+02  0.45594000000E+02  0.51100000000E-03 0.  1.
         23    2    1    2    0    0  0.00000000000E+00  0.35527136788E-14  0.00000000000E+00  0.91188000000E+02  0.91188000000E+02 0.  0.
    9900012    2    3    3    0    0  0.34935659794E+02 -0.11527018503E+02 -0.15514842243E+01  0.54367087680E+02  0.40000007983E+02 0.  0.
         12    1    3    3    0    0 -0.34935659794E+02  0.11527018503E+02  0.15514842243E+01  0.36820912320E+02  0.00000000000E+00 0. -1.
         11    1    4    4    0    0  0.21997699383E+01  0.51565256889E+01 -0.75409034521E+01  0.93964871147E+01  0.51100000000E-03 0. -1.
        -11    1    4    4    0    0  0.20085582736E+02 -0.10056156210E+02 -0.90626815913E+01  0.24221666116E+02  0.51100000000E-03 0.  1.
         12    1    4    4    0    0  0.12650307120E+02 -0.66273879824E+01  0.15052100819E+02  0.20748934449E+02  0.00000000000E+00 0. -1.
</event>
<event>
 8    1  0.1262344E-006  0.9118800E+02  0.7816164E-02  0.1184000E+00
        -11   -1    0    0    0    0  0.00000000000E+00  0.00000000000E+00  0.45593999997E+02  0.45594000000E+02  0.51100000000E-03 0.  1.
         11   -1    0    0    0    0 -0.00000000000E+00 -0.00000000000E+00 -0.45593999997E+02  0.45594000000E+02  0.51100000000E-03 0. -1.
         23    2    1    2    0    0  0.00000000000E+00 -0.17763568394E-14 -0.35527136788E-14  0.91188000000E+02  0.91188000000E+02 0.  0.
    9900012    2    3    3    0    0  0.24491748788E+02  0.62650713633E+01  0.26770937889E+02  0.54367082123E+02  0.39999995315E+02 0.  0.
         12    1    3    3    0    0 -0.24491748788E+02 -0.62650713633E+01 -0.26770937889E+02  0.36820917877E+02  0.00000000000E+00 0. -1.
         11    1    4    4    0    0  0.92178319404E+00  0.15640608871E+02  0.17638418138E+02  0.23592204746E+02  0.51100000000E-03 0. -1.
        -11    1    4    4    0    0  0.15436538965E+02 -0.13266460845E+02  0.68289524015E+01  0.21469054700E+02  0.51100000000E-03 0.  1.
        -12    1    4    4    0    0  0.81334266290E+01  0.38909233374E+01  0.23035673493E+01  0.93058226762E+01  0.00000000000E+00 0.  1.
</event>
<event>
 8    1  0.1262344E-006  0.9118800E+02  0.7816164E-02  0.1184000E+00
        -11   -1    0    0    0    0  0.00000000000E+00  0.00000000000E+00  0.45593999997E+02  0.45594000000E+02  0.51100000000E-03 0.  1.
         11   -1    0    0    0    0 -0.00000000000E+00 -0.00000000000E+00 -0.45593999997E+02  0.45594000000E+02  0.51100000000E-03 0. -1.
         23    2    1    2    0    0  0.00000000000E+00  0.00000000000E+00  0.00000000000E+00  0.91188000000E+02  0.91188000000E+02 0.  0.
    9900012    2    3    3    0    0  0.35995600877E+02 -0.63788264038E+01  0.44055580860E+01  0.54367059615E+02  0.39999944005E+02 0.  0.
        -12    1    3    3    0    0 -0.35995600877E+02  0.63788264038E+01 -0.44055580860E+01  0.36820940385E+02  0.00000000000E+00 0.  1.
         11    1    4    4    0    0  0.16899298324E+02  0.90395402925E+01 -0.90442966546E+00  0.19186390120E+02  0.51100000000E-03 0. -1.
        -11    1    4    4    0    0 -0.43685866791E+01 -0.50109499791E+01  0.67460481925E+01  0.94711844952E+01  0.51100000000E-03 0.  1.
        -12    1    4    4    0    0  0.23464889232E+02 -0.10407416717E+02 -0.14360604411E+01  0.25709485000E+02  0.00000000000E+00 0.  1.
</event>
<event>
 8    1  0.1262344E-006  0.9118800E+02  0.7816164E-02  0.1184000E+00
        -11   -1    0    0    0    0  0.00000000000E+00  0.00000000000E+00  0.45593999997E+02  0.45594000000E+02  0.51100000000E-03 0. -1.
         11   -1    0    0    0    0 -0.00000000000E+00 -0.00000000000E+00 -0.45593999997E+02  0.45594000000E+02  0.51100000000E-03 0.  1.
         23    2    1    2    0    0  0.00000000000E+00  0.00000000000E+00  0.00000000000E+00  0.91188000000E+02  0.91188000000E+02 0.  0.
    9900012    2    3    3    0    0 -0.32419967462E+01 -0.11365035266E+02 -0.34872783847E+02  0.54367005680E+02  0.39999821048E+02 0.  0.
         12    1    3    3    0    0  0.32419967462E+01  0.11365035266E+02  0.34872783847E+02  0.36820994320E+02  0.00000000000E+00 0. -1.
         11    1    4    4    0    0 -0.53850792136E+01 -0.20172723850E+02 -0.21894995762E+02  0.30254399769E+02  0.51100000000E-03 0. -1.
        -11    1    4    4    0    0 -0.49680282743E+01  0.90887107400E+01 -0.13454867612E+02  0.16979971454E+02  0.51100000000E-03 0.  1.
         12    1    4    4    0    0  0.71111107417E+01 -0.28102215601E+00  0.47707952770E+00  0.71326344578E+01  0.00000000000E+00 0. -1.
</event>
<event>
 8    1  0.1262344E-006  0.9118800E+02  0.7816164E-02  0.1184000E+00
        -11   -1    0    0    0    0  0.00000000000E+00  0.00000000000E+00  0.45593999997E+02  0.45594000000E+02  0.51100000000E-03 0.  1.
         11   -1    0    0    0    0 -0.00000000000E+00 -0.00000000000E+00 -0.45593999997E+02  0.45594000000E+02  0.51100000000E-03 0. -1.
         23    2    1    2    0    0  0.17763568394E-14  0.00000000000E+00  0.00000000000E+00  0.91188000000E+02  0.91188000000E+02 0.  0.
    9900012    2    3    3    0    0 -0.51806494224E+01 -0.35644923186E+02  0.76407073540E+01  0.54367080861E+02  0.39999992438E+02 0.  0.
         12    1    3    3    0    0  0.51806494224E+01  0.35644923186E+02 -0.76407073540E+01  0.36820919139E+02  0.00000000000E+00 0. -1.
         11    1    4    4    0    0  0.50061048046E+00  0.42195932577E+01  0.35034058348E+00  0.42636037456E+01  0.51100000000E-03 0. -1.
        -11    1    4    4    0    0  0.11289932712E+02 -0.95123651747E+01  0.13439006232E+01  0.14824093261E+02  0.51100000000E-03 0.  1.
         12    1    4    4    0    0 -0.16971192615E+02 -0.30352151270E+02  0.59464661473E+01  0.35279383854E+02  0.00000000000E+00 0. -1.
</event>
<event>
 8    1  0.1262344E-006  0.9118800E+02  0.7816164E-02  0.1184000E+00
        -11   -1    0    0    0    0  0.00000000000E+00  0.00000000000E+00  0.45593999997E+02  0.45594000000E+02  0.51100000000E-03 0.  1.
         11   -1    0    0    0    0 -0.00000000000E+00 -0.00000000000E+00 -0.45593999997E+02  0.45594000000E+02  0.51100000000E-03 0. -1.
         23    2    1    2    0    0  0.88817841970E-15  0.00000000000E+00  0.17763568394E-14  0.91188000000E+02  0.91188000000E+02 0.  0.
    9900012    2    3    3    0    0  0.72274024589E+01 -0.33794744152E+02  0.12706688727E+02  0.54367081801E+02  0.39999994582E+02 0.  0.
        -12    1    3    3    0    0 -0.72274024589E+01  0.33794744152E+02 -0.12706688727E+02  0.36820918199E+02  0.00000000000E+00 0.  1.
         11    1    4    4    0    0 -0.74173192332E+01 -0.71674374527E+01 -0.36838779556E+01  0.10952613446E+02  0.51100000000E-03 0. -1.
        -11    1    4    4    0    0  0.10894033481E+02 -0.30806681024E+02  0.18338754422E+02  0.37470541432E+02  0.51100000000E-03 0.  1.
        -12    1    4    4    0    0  0.37506882108E+01  0.41793743245E+01 -0.19481877397E+01  0.59439269232E+01  0.00000000000E+00 0.  1.
</event>
<event>
 8    1  0.1262344E-006  0.9118800E+02  0.7816164E-02  0.1184000E+00
        -11   -1    0    0    0    0  0.00000000000E+00  0.00000000000E+00  0.45593999997E+02  0.45594000000E+02  0.51100000000E-03 0.  1.
         11   -1    0    0    0    0 -0.00000000000E+00 -0.00000000000E+00 -0.45593999997E+02  0.45594000000E+02  0.51100000000E-03 0. -1.
         23    2    1    2    0    0 -0.88817841970E-15  0.00000000000E+00  0.35527136788E-14  0.91188000000E+02  0.91188000000E+02 0.  0.
    9900012    2    3    3    0    0 -0.65961125023E+01 -0.27574216893E+02 -0.23493270122E+02  0.54367083683E+02  0.39999998872E+02 0.  0.
        -12    1    3    3    0    0  0.65961125023E+01  0.27574216893E+02  0.23493270122E+02  0.36820916317E+02  0.00000000000E+00 0.  1.
         11    1    4    4    0    0 -0.82106750224E+01 -0.14213245962E+02 -0.42017774014E+01  0.16943626492E+02  0.51100000000E-03 0. -1.
        -11    1    4    4    0    0  0.11610180695E+02 -0.33027588487E+01  0.15975179067E+01  0.12176065683E+02  0.51100000000E-03 0.  1.
         12    1    4    4    0    0 -0.99956181749E+01 -0.10058212082E+02 -0.20889010627E+02  0.25247391509E+02  0.00000000000E+00 0. -1.
</event>
<event>
 8    1  0.1262344E-006  0.9118800E+02  0.7816164E-02  0.1184000E+00
        -11   -1    0    0    0    0  0.00000000000E+00  0.00000000000E+00  0.45593999997E+02  0.45594000000E+02  0.51100000000E-03 0.  1.
         11   -1    0    0    0    0 -0.00000000000E+00 -0.00000000000E+00 -0.45593999997E+02  0.45594000000E+02  0.51100000000E-03 0. -1.
         23    2    1    2    0    0  0.00000000000E+00  0.00000000000E+00  0.00000000000E+00  0.91188000000E+02  0.91188000000E+02 0.  0.
    9900012    2    3    3    0    0 -0.16665772533E+02 -0.20218256383E+02 -0.25869916792E+02  0.54367102942E+02  0.40000042778E+02 0.  0.
        -12    1    3    3    0    0  0.16665772533E+02  0.20218256383E+02  0.25869916792E+02  0.36820897058E+02  0.00000000000E+00 0.  1.
         11    1    4    4    0    0  0.96141906015E+01 -0.75567454301E+01 -0.10051972695E+02  0.15829694177E+02  0.51100000000E-03 0. -1.
        -11    1    4    4    0    0 -0.28563123063E+02 -0.99101377942E+01 -0.17105854061E+02  0.34737200140E+02  0.51100000000E-03 0.  1.
        -12    1    4    4    0    0  0.22831599277E+01 -0.27513731589E+01  0.12879099644E+01  0.38002086247E+01  0.00000000000E+00 0.  1.
</event>
<event>
 8    1  0.1262344E-006  0.9118800E+02  0.7816164E-02  0.1184000E+00
        -11   -1    0    0    0    0  0.00000000000E+00  0.00000000000E+00  0.45593999997E+02  0.45594000000E+02  0.51100000000E-03 0.  1.
         11   -1    0    0    0    0 -0.00000000000E+00 -0.00000000000E+00 -0.45593999997E+02  0.45594000000E+02  0.51100000000E-03 0. -1.
         23    2    1    2    0    0  0.35527136788E-14  0.00000000000E+00  0.00000000000E+00  0.91188000000E+02  0.91188000000E+02 0.  0.
    9900012    2    3    3    0    0 -0.18823218919E+02  0.13157640854E+02 -0.28780951538E+02  0.54367078573E+02  0.39999987222E+02 0.  0.
        -12    1    3    3    0    0  0.18823218919E+02 -0.13157640854E+02  0.28780951538E+02  0.36820921427E+02  0.00000000000E+00 0.  1.
         11    1    4    4    0    0 -0.51749572129E+01  0.20156227465E+02 -0.20355572378E+02  0.29110187475E+02  0.51100000000E-03 0. -1.
        -11    1    4    4    0    0 -0.49759524372E+01 -0.42678664544E+01  0.55465491374E+01  0.85871412195E+01  0.51100000000E-03 0.  1.
         12    1    4    4    0    0 -0.86723092686E+01 -0.27307201563E+01 -0.13971928298E+02  0.16669749878E+02  0.00000000000E+00 0. -1.
</event>
<event>
 8    1  0.1262344E-006  0.9118800E+02  0.7816164E-02  0.1184000E+00
        -11   -1    0    0    0    0  0.00000000000E+00  0.00000000000E+00  0.45593999997E+02  0.45594000000E+02  0.51100000000E-03 0. -1.
         11   -1    0    0    0    0 -0.00000000000E+00 -0.00000000000E+00 -0.45593999997E+02  0.45594000000E+02  0.51100000000E-03 0.  1.
         23    2    1    2    0    0  0.17763568394E-14  0.17763568394E-14  0.00000000000E+00  0.91188000000E+02  0.91188000000E+02 0.  0.
    9900012    2    3    3    0    0  0.14964174509E+02  0.96343548411E+01 -0.32234027828E+02  0.54367083907E+02  0.39999999382E+02 0.  0.
         12    1    3    3    0    0 -0.14964174509E+02 -0.96343548411E+01  0.32234027828E+02  0.36820916093E+02  0.00000000000E+00 0. -1.
         11    1    4    4    0    0  0.46054239421E+00  0.99809441846E+01 -0.14669626394E+02  0.17749064339E+02  0.51100000000E-03 0. -1.
        -11    1    4    4    0    0  0.13835088722E+02  0.58853822118E+01 -0.23557302095E+02  0.27946267837E+02  0.51100000000E-03 0.  1.
         12    1    4    4    0    0  0.66854339279E+00 -0.62319715553E+01  0.59929006619E+01  0.86717517307E+01  0.00000000000E+00 0. -1.
</event>
<event>
 8    1  0.1262344E-006  0.9118800E+02  0.7816164E-02  0.1184000E+00
        -11   -1    0    0    0    0  0.00000000000E+00  0.00000000000E+00  0.45593999997E+02  0.45594000000E+02  0.51100000000E-03 0. -1.
         11   -1    0    0    0    0 -0.00000000000E+00 -0.00000000000E+00 -0.45593999997E+02  0.45594000000E+02  0.51100000000E-03 0.  1.
         23    2    1    2    0    0  0.44408920985E-15  0.00000000000E+00  0.00000000000E+00  0.91188000000E+02  0.91188000000E+02 0.  0.
    9900012    2    3    3    0    0 -0.27360606201E+01  0.25749092069E+02 -0.26177818360E+02  0.54367082790E+02  0.39999996836E+02 0.  0.
         12    1    3    3    0    0  0.27360606201E+01 -0.25749092069E+02  0.26177818360E+02  0.36820917210E+02  0.00000000000E+00 0. -1.
         11    1    4    4    0    0 -0.30775285352E+01  0.26807952809E+01 -0.89238077759E+00  0.41778210752E+01  0.51100000000E-03 0. -1.
        -11    1    4    4    0    0 -0.60337620126E+01  0.25142766080E+02 -0.31701851307E+02  0.40909318581E+02  0.51100000000E-03 0.  1.
         12    1    4    4    0    0  0.63752299277E+01 -0.20744692916E+01  0.64164137252E+01  0.92799431338E+01  0.00000000000E+00 0. -1.
</event>
<event>
 8    1  0.1262344E-006  0.9118800E+02  0.7816164E-02  0.1184000E+00
        -11   -1    0    0    0    0  0.00000000000E+00  0.00000000000E+00  0.45593999997E+02  0.45594000000E+02  0.51100000000E-03 0.  1.
         11   -1    0    0    0    0 -0.00000000000E+00 -0.00000000000E+00 -0.45593999997E+02  0.45594000000E+02  0.51100000000E-03 0. -1.
         23    2    1    2    0    0 -0.17763568394E-14  0.00000000000E+00  0.00000000000E+00  0.91188000000E+02  0.91188000000E+02 0.  0.
    9900012    2    3    3    0    0 -0.14578193108E+02 -0.17168116285E+02 -0.29129243693E+02  0.54367071587E+02  0.39999971297E+02 0.  0.
        -12    1    3    3    0    0  0.14578193108E+02  0.17168116285E+02  0.29129243693E+02  0.36820928413E+02  0.00000000000E+00 0.  1.
         11    1    4    4    0    0 -0.22144418566E+01  0.65698706037E+01 -0.11533615396E+02  0.13457014411E+02  0.51100000000E-03 0. -1.
        -11    1    4    4    0    0 -0.20518386769E+01 -0.14931891761E+01  0.62268830347E+01  0.67241154407E+01  0.51100000000E-03 0.  1.
        -12    1    4    4    0    0 -0.10311912574E+02 -0.22244797713E+02 -0.23822511332E+02  0.34185941736E+02  0.00000000000E+00 0.  1.
</event>
<event>
 8    1  0.1262344E-006  0.9118800E+02  0.7816164E-02  0.1184000E+00
        -11   -1    0    0    0    0  0.00000000000E+00  0.00000000000E+00  0.45593999997E+02  0.45594000000E+02  0.51100000000E-03 0.  1.
         11   -1    0    0    0    0 -0.00000000000E+00 -0.00000000000E+00 -0.45593999997E+02  0.45594000000E+02  0.51100000000E-03 0. -1.
         23    2    1    2    0    0 -0.35527136788E-14  0.00000000000E+00  0.00000000000E+00  0.91188000000E+02  0.91188000000E+02 0.  0.
    9900012    2    3    3    0    0 -0.27966028405E+02 -0.22092799563E+02 -0.92513762516E+01  0.54367102404E+02  0.40000041550E+02 0.  0.
        -12    1    3    3    0    0  0.27966028405E+02  0.22092799563E+02  0.92513762516E+01  0.36820897596E+02  0.00000000000E+00 0.  1.
         11    1    4    4    0    0 -0.70952586378E+01 -0.17704257125E+01 -0.35571799018E+01  0.81320742406E+01  0.51100000000E-03 0. -1.
        -11    1    4    4    0    0 -0.22823455173E+02 -0.26250994038E+02  0.36728588061E+01  0.34978774794E+02  0.51100000000E-03 0.  1.
        -12    1    4    4    0    0  0.19526854059E+01  0.59286201874E+01 -0.93670551559E+01  0.11256253369E+02  0.00000000000E+00 0.  1.
</event>
<event>
 8    1  0.1262344E-006  0.9118800E+02  0.7816164E-02  0.1184000E+00
        -11   -1    0    0    0    0  0.00000000000E+00  0.00000000000E+00  0.45593999997E+02  0.45594000000E+02  0.51100000000E-03 0.  1.
         11   -1    0    0    0    0 -0.00000000000E+00 -0.00000000000E+00 -0.45593999997E+02  0.45594000000E+02  0.51100000000E-03 0. -1.
         23    2    1    2    0    0  0.88817841970E-15  0.00000000000E+00  0.35527136788E-14  0.91188000000E+02  0.91188000000E+02 0.  0.
    9900012    2    3    3    0    0  0.57492605079E+01  0.21832291358E+02 -0.29087411490E+02  0.54367075928E+02  0.39999981193E+02 0.  0.
        -12    1    3    3    0    0 -0.57492605079E+01 -0.21832291358E+02  0.29087411490E+02  0.36820924072E+02  0.00000000000E+00 0.  1.
         11    1    4    4    0    0 -0.40834890226E+01  0.19356721246E+02 -0.36384896819E+02  0.41415193550E+02  0.51100000000E-03 0. -1.
        -11    1    4    4    0    0  0.87834436558E+01  0.93777708631E+00  0.61798817975E+01  0.10780503124E+02  0.51100000000E-03 0.  1.
         12    1    4    4    0    0  0.10493058747E+01  0.15377930258E+01  0.11176035315E+01  0.21713792536E+01  0.00000000000E+00 0. -1.
</event>
<event>
 8    1  0.1262344E-006  0.9118800E+02  0.7816164E-02  0.1184000E+00
        -11   -1    0    0    0    0  0.00000000000E+00  0.00000000000E+00  0.45593999997E+02  0.45594000000E+02  0.51100000000E-03 0. -1.
         11   -1    0    0    0    0 -0.00000000000E+00 -0.00000000000E+00 -0.45593999997E+02  0.45594000000E+02  0.51100000000E-03 0.  1.
         23    2    1    2    0    0  0.71054273576E-14  0.00000000000E+00  0.00000000000E+00  0.91188000000E+02  0.91188000000E+02 0.  0.
    9900012    2    3    3    0    0 -0.32174900279E+02  0.17371435921E+02  0.43347082327E+01  0.54367072670E+02  0.39999973767E+02 0.  0.
        -12    1    3    3    0    0  0.32174900279E+02 -0.17371435921E+02 -0.43347082327E+01  0.36820927330E+02  0.00000000000E+00 0.  1.
         11    1    4    4    0    0  0.33058464028E-01  0.10789643262E+01 -0.18396280479E+01  0.21329529988E+01  0.51100000000E-03 0. -1.
        -11    1    4    4    0    0  0.80164589225E+01  0.43227053843E+01  0.46805019764E+01  0.10239946021E+02  0.51100000000E-03 0.  1.
         12    1    4    4    0    0 -0.40224417666E+02  0.11969766210E+02  0.14938343042E+01  0.41994173651E+02  0.00000000000E+00 0. -1.
</event>
<event>
 8    1  0.1262344E-006  0.9118800E+02  0.7816164E-02  0.1184000E+00
        -11   -1    0    0    0    0  0.00000000000E+00  0.00000000000E+00  0.45593999997E+02  0.45594000000E+02  0.51100000000E-03 0.  1.
         11   -1    0    0    0    0 -0.00000000000E+00 -0.00000000000E+00 -0.45593999997E+02  0.45594000000E+02  0.51100000000E-03 0. -1.
         23    2    1    2    0    0 -0.55511151231E-16  0.00000000000E+00 -0.35527136788E-14  0.91188000000E+02  0.91188000000E+02 0.  0.
    9900012    2    3    3    0    0  0.22106036533E+00 -0.19796691610E+02  0.31045481209E+02  0.54367085157E+02  0.40000002233E+02 0.  0.
         12    1    3    3    0    0 -0.22106036533E+00  0.19796691610E+02 -0.31045481209E+02  0.36820914843E+02  0.00000000000E+00 0. -1.
         11    1    4    4    0    0  0.10817811686E+02  0.14973670732E+01  0.16757336537E+02  0.20001887059E+02  0.51100000000E-03 0. -1.
        -11    1    4    4    0    0 -0.48839325410E+01  0.20585263901E+01  0.78590760000E+01  0.94792090282E+01  0.51100000000E-03 0.  1.
        -12    1    4    4    0    0 -0.57128187800E+01 -0.23352585073E+02  0.64290686716E+01  0.24885989070E+02  0.00000000000E+00 0.  1.
</event>
<event>
 8    1  0.1262344E-006  0.9118800E+02  0.7816164E-02  0.1184000E+00
        -11   -1    0    0    0    0  0.00000000000E+00  0.00000000000E+00  0.45593999997E+02  0.45594000000E+02  0.51100000000E-03 0.  1.
         11   -1    0    0    0    0 -0.00000000000E+00 -0.00000000000E+00 -0.45593999997E+02  0.45594000000E+02  0.51100000000E-03 0. -1.
         23    2    1    2    0    0 -0.35527136788E-14  0.00000000000E+00  0.00000000000E+00  0.91188000000E+02  0.91188000000E+02 0.  0.
    9900012    2    3    3    0    0  0.21067827904E+02 -0.23994165242E+02 -0.18335918299E+02  0.54367092377E+02  0.40000018693E+02 0.  0.
        -12    1    3    3    0    0 -0.21067827904E+02  0.23994165242E+02  0.18335918299E+02  0.36820907623E+02  0.00000000000E+00 0.  1.
         11    1    4    4    0    0  0.25005834070E+02 -0.13856797461E+02 -0.17905772591E+02  0.33733058945E+02  0.51100000000E-03 0. -1.
        -11    1    4    4    0    0 -0.29906810109E+01  0.32961134273E+01 -0.47325853582E+01  0.64966068888E+01  0.51100000000E-03 0.  1.
        -12    1    4    4    0    0 -0.94732515528E+00 -0.13433481209E+02  0.43024396501E+01  0.14137426544E+02  0.00000000000E+00 0.  1.
</event>
<event>
 8    1  0.1262344E-006  0.9118800E+02  0.7816164E-02  0.1184000E+00
        -11   -1    0    0    0    0  0.00000000000E+00  0.00000000000E+00  0.45593999997E+02  0.45594000000E+02  0.51100000000E-03 0.  1.
         11   -1    0    0    0    0 -0.00000000000E+00 -0.00000000000E+00 -0.45593999997E+02  0.45594000000E+02  0.51100000000E-03 0. -1.
         23    2    1    2    0    0  0.71054273576E-14 -0.35527136788E-14 -0.44408920985E-15  0.91188000000E+02  0.91188000000E+02 0.  0.
    9900012    2    3    3    0    0 -0.27592516525E+02  0.24070417002E+02 -0.38791015652E+01  0.54367090563E+02  0.40000014556E+02 0.  0.
         12    1    3    3    0    0  0.27592516525E+02 -0.24070417002E+02  0.38791015652E+01  0.36820909437E+02  0.00000000000E+00 0. -1.
         11    1    4    4    0    0 -0.13175229141E+02  0.12528521689E+02 -0.13926882685E+02  0.22902152305E+02  0.51100000000E-03 0. -1.
        -11    1    4    4    0    0 -0.38866134164E+01  0.17244781770E+02  0.75988613935E+01  0.19241386564E+02  0.51100000000E-03 0.  1.
        -12    1    4    4    0    0 -0.10530673968E+02 -0.57028864578E+01  0.24489197266E+01  0.12223551693E+02  0.00000000000E+00 0.  1.
</event>
<event>
 8    1  0.1262344E-006  0.9118800E+02  0.7816164E-02  0.1184000E+00
        -11   -1    0    0    0    0  0.00000000000E+00  0.00000000000E+00  0.45593999997E+02  0.45594000000E+02  0.51100000000E-03 0.  1.
         11   -1    0    0    0    0 -0.00000000000E+00 -0.00000000000E+00 -0.45593999997E+02  0.45594000000E+02  0.51100000000E-03 0. -1.
         23    2    1    2    0    0  0.00000000000E+00 -0.35527136788E-14 -0.27755575616E-16  0.91188000000E+02  0.91188000000E+02 0.  0.
    9900012    2    3    3    0    0 -0.20261707585E+02 -0.30743881911E+02  0.23980681415E+00  0.54367074203E+02  0.39999977261E+02 0.  0.
         12    1    3    3    0    0  0.20261707585E+02  0.30743881911E+02 -0.23980681415E+00  0.36820925797E+02  0.00000000000E+00 0. -1.
         11    1    4    4    0    0 -0.16656859687E+01 -0.32925918749E+01  0.28434089614E+01  0.46583951940E+01  0.51100000000E-03 0. -1.
        -11    1    4    4    0    0 -0.67399157374E+01  0.22866208500E+01  0.12443090102E+02  0.14334768593E+02  0.51100000000E-03 0.  1.
        -12    1    4    4    0    0 -0.11856105879E+02 -0.29737910886E+02 -0.15046692249E+02  0.35373910416E+02  0.00000000000E+00 0.  1.
</event>
<event>
 8    1  0.1262344E-006  0.9118800E+02  0.7816164E-02  0.1184000E+00
        -11   -1    0    0    0    0  0.00000000000E+00  0.00000000000E+00  0.45593999997E+02  0.45594000000E+02  0.51100000000E-03 0.  1.
         11   -1    0    0    0    0 -0.00000000000E+00 -0.00000000000E+00 -0.45593999997E+02  0.45594000000E+02  0.51100000000E-03 0. -1.
         23    2    1    2    0    0  0.00000000000E+00  0.00000000000E+00  0.00000000000E+00  0.91188000000E+02  0.91188000000E+02 0.  0.
    9900012    2    3    3    0    0 -0.25912307819E+02  0.13031419207E+02  0.22682902245E+02  0.54367086956E+02  0.40000006335E+02 0.  0.
         12    1    3    3    0    0  0.25912307819E+02 -0.13031419207E+02 -0.22682902245E+02  0.36820913044E+02  0.00000000000E+00 0. -1.
         11    1    4    4    0    0  0.27731775097E+01  0.99624945913E+01  0.18151056886E+02  0.20890253190E+02  0.51100000000E-03 0. -1.
        -11    1    4    4    0    0 -0.26209928179E+02 -0.49626389976E+00  0.85382260583E+01  0.27570054724E+02  0.51100000000E-03 0.  1.
         12    1    4    4    0    0 -0.24755571506E+01  0.35651885159E+01 -0.40063806990E+01  0.59067790432E+01  0.00000000000E+00 0. -1.
</event>
<event>
 8    1  0.1262344E-006  0.9118800E+02  0.7816164E-02  0.1184000E+00
        -11   -1    0    0    0    0  0.00000000000E+00  0.00000000000E+00  0.45593999997E+02  0.45594000000E+02  0.51100000000E-03 0. -1.
         11   -1    0    0    0    0 -0.00000000000E+00 -0.00000000000E+00 -0.45593999997E+02  0.45594000000E+02  0.51100000000E-03 0.  1.
         23    2    1    2    0    0  0.35527136788E-14 -0.17763568394E-14 -0.35527136788E-14  0.91188000000E+02  0.91188000000E+02 0.  0.
    9900012    2    3    3    0    0  0.18622037305E+02 -0.14669294866E+02 -0.28174665199E+02  0.54367078714E+02  0.39999987545E+02 0.  0.
        -12    1    3    3    0    0 -0.18622037305E+02  0.14669294866E+02  0.28174665199E+02  0.36820921286E+02  0.00000000000E+00 0.  1.
         11    1    4    4    0    0  0.33729456796E+01 -0.14890677635E+01 -0.12296340509E+02  0.12837214477E+02  0.51100000000E-03 0. -1.
        -11    1    4    4    0    0 -0.83915603769E+01  0.38434215010E+01 -0.33693546288E+01  0.98256157705E+01  0.51100000000E-03 0.  1.
         12    1    4    4    0    0  0.23640652002E+02 -0.17023648604E+02 -0.12508970061E+02  0.31704248467E+02  0.00000000000E+00 0. -1.
</event>
<event>
 8    1  0.1262344E-006  0.9118800E+02  0.7816164E-02  0.1184000E+00
        -11   -1    0    0    0    0  0.00000000000E+00  0.00000000000E+00  0.45593999997E+02  0.45594000000E+02  0.51100000000E-03 0. -1.
         11   -1    0    0    0    0 -0.00000000000E+00 -0.00000000000E+00 -0.45593999997E+02  0.45594000000E+02  0.51100000000E-03 0.  1.
         23    2    1    2    0    0  0.66613381478E-15  0.00000000000E+00  0.71054273576E-14  0.91188000000E+02  0.91188000000E+02 0.  0.
    9900012    2    3    3    0    0  0.54659528463E+00  0.11339424576E+02  0.35027117182E+02  0.54367078580E+02  0.39999987239E+02 0.  0.
        -12    1    3    3    0    0 -0.54659528463E+00 -0.11339424576E+02 -0.35027117182E+02  0.36820921420E+02  0.00000000000E+00 0.  1.
         11    1    4    4    0    0 -0.60093420172E+01 -0.10174655859E+02  0.21038801628E+02  0.24130209024E+02  0.51100000000E-03 0. -1.
        -11    1    4    4    0    0  0.82025090891E+01  0.12432002356E+02  0.14767194339E+02  0.20973933033E+02  0.51100000000E-03 0.  1.
        -12    1    4    4    0    0 -0.16465717872E+01  0.90820780786E+01 -0.77887878564E+00  0.92629365235E+01  0.00000000000E+00 0.  1.
</event>
<event>
 8    1  0.1262344E-006  0.9118800E+02  0.7816164E-02  0.1184000E+00
        -11   -1    0    0    0    0  0.00000000000E+00  0.00000000000E+00  0.45593999997E+02  0.45594000000E+02  0.51100000000E-03 0. -1.
         11   -1    0    0    0    0 -0.00000000000E+00 -0.00000000000E+00 -0.45593999997E+02  0.45594000000E+02  0.51100000000E-03 0.  1.
         23    2    1    2    0    0  0.35527136788E-14  0.00000000000E+00  0.88817841970E-15  0.91188000000E+02  0.91188000000E+02 0.  0.
    9900012    2    3    3    0    0 -0.29861550789E+02  0.21292519787E+02 -0.32704648695E+01  0.54367088077E+02  0.40000008888E+02 0.  0.
        -12    1    3    3    0    0  0.29861550789E+02 -0.21292519787E+02  0.32704648695E+01  0.36820911923E+02  0.00000000000E+00 0.  1.
         11    1    4    4    0    0 -0.16181595906E+02  0.12261577085E+02 -0.11640734688E+01  0.20335815350E+02  0.51100000000E-03 0. -1.
        -11    1    4    4    0    0 -0.14403431946E+02  0.65914629779E+01 -0.14442325825E+02  0.21435648148E+02  0.51100000000E-03 0.  1.
         12    1    4    4    0    0  0.72347706286E+00  0.24394797244E+01  0.12335934425E+02  0.12595624578E+02  0.00000000000E+00 0. -1.
</event>
<event>
 8    1  0.1262344E-006  0.9118800E+02  0.7816164E-02  0.1184000E+00
        -11   -1    0    0    0    0  0.00000000000E+00  0.00000000000E+00  0.45593999997E+02  0.45594000000E+02  0.51100000000E-03 0. -1.
         11   -1    0    0    0    0 -0.00000000000E+00 -0.00000000000E+00 -0.45593999997E+02  0.45594000000E+02  0.51100000000E-03 0.  1.
         23    2    1    2    0    0 -0.88817841970E-15 -0.35527136788E-14  0.00000000000E+00  0.91188000000E+02  0.91188000000E+02 0.  0.
    9900012    2    3    3    0    0 -0.46161830828E+01 -0.17998396924E+02 -0.31788878359E+02  0.54367024654E+02  0.39999864303E+02 0.  0.
         12    1    3    3    0    0  0.46161830828E+01  0.17998396924E+02  0.31788878359E+02  0.36820975346E+02  0.00000000000E+00 0. -1.
         11    1    4    4    0    0 -0.10915505424E+02 -0.73410010309E+01  0.96749132037E+00  0.13189942930E+02  0.51100000000E-03 0. -1.
        -11    1    4    4    0    0  0.12426152134E+02 -0.53398602525E+00 -0.11989284150E+02  0.17275338857E+02  0.51100000000E-03 0.  1.
        -12    1    4    4    0    0 -0.61268297929E+01 -0.10123409868E+02 -0.20767085530E+02  0.23901742867E+02  0.00000000000E+00 0.  1.
</event>
<event>
 8    1  0.1262344E-006  0.9118800E+02  0.7816164E-02  0.1184000E+00
        -11   -1    0    0    0    0  0.00000000000E+00  0.00000000000E+00  0.45593999997E+02  0.45594000000E+02  0.51100000000E-03 0.  1.
         11   -1    0    0    0    0 -0.00000000000E+00 -0.00000000000E+00 -0.45593999997E+02  0.45594000000E+02  0.51100000000E-03 0. -1.
         23    2    1    2    0    0  0.00000000000E+00  0.00000000000E+00 -0.11102230246E-14  0.91188000000E+02  0.91188000000E+02 0.  0.
    9900012    2    3    3    0    0 -0.90224198342E+01  0.35649497800E+02  0.18678036658E+01  0.54367089587E+02  0.40000012332E+02 0.  0.
         12    1    3    3    0    0  0.90224198342E+01 -0.35649497800E+02 -0.18678036658E+01  0.36820910413E+02  0.00000000000E+00 0. -1.
         11    1    4    4    0    0  0.21763395138E+01  0.45399440083E+01 -0.10736639404E+02  0.11858455685E+02  0.51100000000E-03 0. -1.
        -11    1    4    4    0    0 -0.64365049038E+01 -0.15077097923E+01 -0.12924652240E+01  0.67358927256E+01  0.51100000000E-03 0.  1.
        -12    1    4    4    0    0 -0.47622544442E+01  0.32617263585E+02  0.13896908294E+02  0.35772741176E+02  0.00000000000E+00 0.  1.
</event>
<event>
 8    1  0.1262344E-006  0.9118800E+02  0.7816164E-02  0.1184000E+00
        -11   -1    0    0    0    0  0.00000000000E+00  0.00000000000E+00  0.45593999997E+02  0.45594000000E+02  0.51100000000E-03 0.  1.
         11   -1    0    0    0    0 -0.00000000000E+00 -0.00000000000E+00 -0.45593999997E+02  0.45594000000E+02  0.51100000000E-03 0. -1.
         23    2    1    2    0    0  0.35527136788E-14  0.17763568394E-14  0.00000000000E+00  0.91188000000E+02  0.91188000000E+02 0.  0.
    9900012    2    3    3    0    0 -0.18756003437E+02 -0.11887186932E+02  0.29371523499E+02  0.54367091935E+02  0.40000017685E+02 0.  0.
         12    1    3    3    0    0  0.18756003437E+02  0.11887186932E+02 -0.29371523499E+02  0.36820908065E+02  0.00000000000E+00 0. -1.
         11    1    4    4    0    0 -0.44867143689E+01 -0.90151404388E+01  0.28166043874E+02  0.29912027526E+02  0.51100000000E-03 0. -1.
        -11    1    4    4    0    0  0.29943632969E+01  0.12896660188E+01  0.53078439749E+01  0.62291779487E+01  0.51100000000E-03 0.  1.
        -12    1    4    4    0    0 -0.17263652365E+02 -0.41617125117E+01 -0.41023643501E+01  0.18225886460E+02  0.00000000000E+00 0.  1.
</event>
<event>
 8    1  0.1262344E-006  0.9118800E+02  0.7816164E-02  0.1184000E+00
        -11   -1    0    0    0    0  0.00000000000E+00  0.00000000000E+00  0.45593999997E+02  0.45594000000E+02  0.51100000000E-03 0.  1.
         11   -1    0    0    0    0 -0.00000000000E+00 -0.00000000000E+00 -0.45593999997E+02  0.45594000000E+02  0.51100000000E-03 0. -1.
         23    2    1    2    0    0  0.35527136788E-14 -0.17763568394E-14  0.35527136788E-14  0.91188000000E+02  0.91188000000E+02 0.  0.
    9900012    2    3    3    0    0  0.18947920078E+02  0.13039278285E+02  0.28752981624E+02  0.54367076522E+02  0.39999982547E+02 0.  0.
         12    1    3    3    0    0 -0.18947920078E+02 -0.13039278285E+02 -0.28752981624E+02  0.36820923478E+02  0.00000000000E+00 0. -1.
         11    1    4    4    0    0 -0.39171338324E+01  0.41797733307E+01  0.19456708981E+01  0.60497998365E+01  0.51100000000E-03 0. -1.
        -11    1    4    4    0    0 -0.23656512976E+01 -0.61766731499E+01  0.15486354444E+02  0.16839678486E+02  0.51100000000E-03 0.  1.
        -12    1    4    4    0    0  0.25230705208E+02  0.15036178105E+02  0.11320956282E+02  0.31477598200E+02  0.00000000000E+00 0.  1.
</event>
<event>
 8    1  0.1262344E-006  0.9118800E+02  0.7816164E-02  0.1184000E+00
        -11   -1    0    0    0    0  0.00000000000E+00  0.00000000000E+00  0.45593999997E+02  0.45594000000E+02  0.51100000000E-03 0.  1.
         11   -1    0    0    0    0 -0.00000000000E+00 -0.00000000000E+00 -0.45593999997E+02  0.45594000000E+02  0.51100000000E-03 0. -1.
         23    2    1    2    0    0  0.00000000000E+00  0.88817841970E-15  0.00000000000E+00  0.91188000000E+02  0.91188000000E+02 0.  0.
    9900012    2    3    3    0    0 -0.32441135200E+02 -0.44753604924E+01 -0.16832364994E+02  0.54367019352E+02  0.39999852217E+02 0.  0.
        -12    1    3    3    0    0  0.32441135200E+02  0.44753604924E+01  0.16832364994E+02  0.36820980648E+02  0.00000000000E+00 0.  1.
         11    1    4    4    0    0 -0.51143930924E+01 -0.12180245394E+02 -0.42829815436E+01  0.13887380089E+02  0.51100000000E-03 0.  1.
        -11    1    4    4    0    0 -0.10703156032E+02 -0.68669160791E+01  0.34675131915E+01  0.13180885155E+02  0.51100000000E-03 0. -1.
         12    1    4    4    0    0 -0.16623586075E+02  0.14571800981E+02 -0.16016896642E+02  0.27298754108E+02  0.00000000000E+00 0. -1.
</event>
<event>
 8    1  0.1262344E-006  0.9118800E+02  0.7816164E-02  0.1184000E+00
        -11   -1    0    0    0    0  0.00000000000E+00  0.00000000000E+00  0.45593999997E+02  0.45594000000E+02  0.51100000000E-03 0. -1.
         11   -1    0    0    0    0 -0.00000000000E+00 -0.00000000000E+00 -0.45593999997E+02  0.45594000000E+02  0.51100000000E-03 0.  1.
         23    2    1    2    0    0  0.00000000000E+00 -0.88817841970E-15  0.00000000000E+00  0.91188000000E+02  0.91188000000E+02 0.  0.
    9900012    2    3    3    0    0 -0.75942779267E+01  0.69577364572E+01 -0.35351053142E+02  0.54367080511E+02  0.39999991640E+02 0.  0.
         12    1    3    3    0    0  0.75942779267E+01 -0.69577364572E+01  0.35351053142E+02  0.36820919489E+02  0.00000000000E+00 0. -1.
         11    1    4    4    0    0 -0.48724440014E+01 -0.51841852654E+01  0.27751593331E+01  0.76366220934E+01  0.51100000000E-03 0. -1.
        -11    1    4    4    0    0 -0.59996780839E+01  0.12550628451E+02 -0.72665203340E+01  0.15694480866E+02  0.51100000000E-03 0.  1.
        -12    1    4    4    0    0  0.32778441586E+01 -0.40870672884E+00 -0.30859692141E+02  0.31035977551E+02  0.00000000000E+00 0.  1.
</event>
<event>
 8    1  0.1262344E-006  0.9118800E+02  0.7816164E-02  0.1184000E+00
        -11   -1    0    0    0    0  0.00000000000E+00  0.00000000000E+00  0.45593999997E+02  0.45594000000E+02  0.51100000000E-03 0. -1.
         11   -1    0    0    0    0 -0.00000000000E+00 -0.00000000000E+00 -0.45593999997E+02  0.45594000000E+02  0.51100000000E-03 0.  1.
         23    2    1    2    0    0  0.00000000000E+00 -0.88817841970E-15  0.00000000000E+00  0.91188000000E+02  0.91188000000E+02 0.  0.
    9900012    2    3    3    0    0  0.14753731885E+02  0.54965392496E+01  0.33285044622E+02  0.54367099091E+02  0.40000033998E+02 0.  0.
        -12    1    3    3    0    0 -0.14753731885E+02 -0.54965392496E+01 -0.33285044622E+02  0.36820900909E+02  0.00000000000E+00 0.  1.
         11    1    4    4    0    0  0.78871202439E+01  0.12041575266E+01  0.12531998023E+02  0.14856232221E+02  0.51100000000E-03 0. -1.
        -11    1    4    4    0    0 -0.72096725525E+01 -0.17231415235E+01  0.22884756395E+02  0.24055366772E+02  0.51100000000E-03 0.  1.
        -12    1    4    4    0    0  0.14076284193E+02  0.60155232464E+01 -0.21317097960E+01  0.15455500098E+02  0.00000000000E+00 0.  1.
</event>
<event>
 8    1  0.1262344E-006  0.9118800E+02  0.7816164E-02  0.1184000E+00
        -11   -1    0    0    0    0  0.00000000000E+00  0.00000000000E+00  0.45593999997E+02  0.45594000000E+02  0.51100000000E-03 0.  1.
         11   -1    0    0    0    0 -0.00000000000E+00 -0.00000000000E+00 -0.45593999997E+02  0.45594000000E+02  0.51100000000E-03 0. -1.
         23    2    1    2    0    0  0.00000000000E+00  0.17763568394E-14  0.00000000000E+00  0.91188000000E+02  0.91188000000E+02 0.  0.
    9900012    2    3    3    0    0 -0.10066880545E+02  0.91647354570E+01  0.34211778759E+02  0.54367078423E+02  0.39999986881E+02 0.  0.
         12    1    3    3    0    0  0.10066880545E+02 -0.91647354570E+01 -0.34211778759E+02  0.36820921577E+02  0.00000000000E+00 0. -1.
         11    1    4    4    0    0  0.11484825767E+02  0.46963754383E+01  0.10525976601E+02  0.16271243001E+02  0.51100000000E-03 0. -1.
        -11    1    4    4    0    0 -0.40032655495E+01 -0.75626052483E+01  0.65090293084E+01  0.10751120686E+02  0.51100000000E-03 0.  1.
        -12    1    4    4    0    0 -0.17548440763E+02  0.12030965267E+02  0.17176772850E+02  0.27344714736E+02  0.00000000000E+00 0.  1.
</event>
<event>
 8    1  0.1262344E-006  0.9118800E+02  0.7816164E-02  0.1184000E+00
        -11   -1    0    0    0    0  0.00000000000E+00  0.00000000000E+00  0.45593999997E+02  0.45594000000E+02  0.51100000000E-03 0.  1.
         11   -1    0    0    0    0 -0.00000000000E+00 -0.00000000000E+00 -0.45593999997E+02  0.45594000000E+02  0.51100000000E-03 0. -1.
         23    2    1    2    0    0  0.00000000000E+00 -0.17763568394E-14  0.00000000000E+00  0.91188000000E+02  0.91188000000E+02 0.  0.
    9900012    2    3    3    0    0  0.27103195312E+02 -0.83155346687E+01 -0.23495721315E+02  0.54367078867E+02  0.39999987894E+02 0.  0.
        -12    1    3    3    0    0 -0.27103195312E+02  0.83155346687E+01  0.23495721315E+02  0.36820921133E+02  0.00000000000E+00 0.  1.
         11    1    4    4    0    0  0.96233801695E+01  0.26039924732E+01 -0.22452109999E+02  0.24565981893E+02  0.51100000000E-03 0. -1.
        -11    1    4    4    0    0  0.22420771976E+02 -0.70653547794E+01 -0.52912813812E+00  0.23513617991E+02  0.51100000000E-03 0.  1.
         12    1    4    4    0    0 -0.49409568336E+01 -0.38541723625E+01 -0.51448317731E+00  0.62874789838E+01  0.00000000000E+00 0. -1.
</event>
<event>
 8    1  0.1262344E-006  0.9118800E+02  0.7816164E-02  0.1184000E+00
        -11   -1    0    0    0    0  0.00000000000E+00  0.00000000000E+00  0.45593999997E+02  0.45594000000E+02  0.51100000000E-03 0.  1.
         11   -1    0    0    0    0 -0.00000000000E+00 -0.00000000000E+00 -0.45593999997E+02  0.45594000000E+02  0.51100000000E-03 0. -1.
         23    2    1    2    0    0  0.00000000000E+00  0.71054273576E-14  0.88817841970E-15  0.91188000000E+02  0.91188000000E+02 0.  0.
    9900012    2    3    3    0    0  0.10596361461E+02  0.35048796842E+02  0.38835724806E+01  0.54367038965E+02  0.39999896929E+02 0.  0.
         12    1    3    3    0    0 -0.10596361461E+02 -0.35048796842E+02 -0.38835724806E+01  0.36820961035E+02  0.00000000000E+00 0. -1.
         11    1    4    4    0    0 -0.97281742270E+01  0.85856804605E+01  0.12963954343E+02  0.18341630114E+02  0.51100000000E-03 0. -1.
        -11    1    4    4    0    0  0.19593170611E+02  0.18767050700E+02 -0.69904021168E+01  0.28017142049E+02  0.51100000000E-03 0.  1.
         12    1    4    4    0    0  0.73136507711E+00  0.76960656817E+01 -0.20899797454E+01  0.80082668031E+01  0.00000000000E+00 0. -1.
</event>
<event>
 8    1  0.1262344E-006  0.9118800E+02  0.7816164E-02  0.1184000E+00
        -11   -1    0    0    0    0  0.00000000000E+00  0.00000000000E+00  0.45593999997E+02  0.45594000000E+02  0.51100000000E-03 0.  1.
         11   -1    0    0    0    0 -0.00000000000E+00 -0.00000000000E+00 -0.45593999997E+02  0.45594000000E+02  0.51100000000E-03 0. -1.
         23    2    1    2    0    0  0.35527136788E-14  0.33306690739E-15  0.00000000000E+00  0.91188000000E+02  0.91188000000E+02 0.  0.
    9900012    2    3    3    0    0  0.29731007017E+02 -0.44613974874E+00 -0.21717478189E+02  0.54367072828E+02  0.39999974125E+02 0.  0.
         12    1    3    3    0    0 -0.29731007017E+02  0.44613974874E+00  0.21717478189E+02  0.36820927172E+02  0.00000000000E+00 0. -1.
         11    1    4    4    0    0  0.32986693856E+02 -0.83636840891E+01 -0.12523209142E+02  0.36261604357E+02  0.51100000000E-03 0.  1.
        -11    1    4    4    0    0  0.85749817131E+00  0.50221397533E+01 -0.11495540580E+02  0.12573966927E+02  0.51100000000E-03 0. -1.
         12    1    4    4    0    0 -0.41131850103E+01  0.28954045871E+01  0.23012715322E+01  0.55315015427E+01  0.00000000000E+00 0. -1.
</event>
<event>
 8    1  0.1262344E-006  0.9118800E+02  0.7816164E-02  0.1184000E+00
        -11   -1    0    0    0    0  0.00000000000E+00  0.00000000000E+00  0.45593999997E+02  0.45594000000E+02  0.51100000000E-03 0.  1.
         11   -1    0    0    0    0 -0.00000000000E+00 -0.00000000000E+00 -0.45593999997E+02  0.45594000000E+02  0.51100000000E-03 0. -1.
         23    2    1    2    0    0  0.88817841970E-15 -0.71054273576E-14  0.17763568394E-14  0.91188000000E+02  0.91188000000E+02 0.  0.
    9900012    2    3    3    0    0  0.41243971593E+01  0.35198715401E+02  0.99909733787E+01  0.54367085198E+02  0.40000002326E+02 0.  0.
         12    1    3    3    0    0 -0.41243971593E+01 -0.35198715401E+02 -0.99909733787E+01  0.36820914802E+02  0.00000000000E+00 0. -1.
         11    1    4    4    0    0 -0.13120505644E+01  0.13810944406E+02 -0.25241718828E+01  0.14100890257E+02  0.51100000000E-03 0.  1.
        -11    1    4    4    0    0  0.18205689541E+01 -0.18067859308E+00  0.17696926783E+02  0.17791243181E+02  0.51100000000E-03 0. -1.
         12    1    4    4    0    0  0.36158787696E+01  0.21568449588E+02 -0.51817815220E+01  0.22474951760E+02  0.00000000000E+00 0. -1.
</event>
<event>
 8    1  0.1262344E-006  0.9118800E+02  0.7816164E-02  0.1184000E+00
        -11   -1    0    0    0    0  0.00000000000E+00  0.00000000000E+00  0.45593999997E+02  0.45594000000E+02  0.51100000000E-03 0.  1.
         11   -1    0    0    0    0 -0.00000000000E+00 -0.00000000000E+00 -0.45593999997E+02  0.45594000000E+02  0.51100000000E-03 0. -1.
         23    2    1    2    0    0 -0.35527136788E-14  0.88817841970E-15  0.00000000000E+00  0.91188000000E+02  0.91188000000E+02 0.  0.
    9900012    2    3    3    0    0 -0.31593642383E+02  0.79401050813E+01 -0.17163244401E+02  0.54367075702E+02  0.39999980679E+02 0.  0.
        -12    1    3    3    0    0  0.31593642383E+02 -0.79401050813E+01  0.17163244401E+02  0.36820924298E+02  0.00000000000E+00 0.  1.
         11    1    4    4    0    0 -0.18916382871E+02  0.95180845596E+01 -0.91962516428E+01  0.23086674060E+02  0.51100000000E-03 0. -1.
        -11    1    4    4    0    0 -0.56413608523E+01 -0.14023190633E+02 -0.77408407310E+01  0.16982209611E+02  0.51100000000E-03 0.  1.
        -12    1    4    4    0    0 -0.70358986600E+01  0.12445211154E+02 -0.22615202764E+00  0.14298192032E+02  0.00000000000E+00 0.  1.
</event>
<event>
 8    1  0.1262344E-006  0.9118800E+02  0.7816164E-02  0.1184000E+00
        -11   -1    0    0    0    0  0.00000000000E+00  0.00000000000E+00  0.45593999997E+02  0.45594000000E+02  0.51100000000E-03 0.  1.
         11   -1    0    0    0    0 -0.00000000000E+00 -0.00000000000E+00 -0.45593999997E+02  0.45594000000E+02  0.51100000000E-03 0. -1.
         23    2    1    2    0    0  0.35527136788E-14  0.00000000000E+00 -0.17763568394E-14  0.91188000000E+02  0.91188000000E+02 0.  0.
    9900012    2    3    3    0    0  0.26716122287E+02  0.23446582257E+02 -0.96065817439E+01  0.54367084444E+02  0.40000000607E+02 0.  0.
        -12    1    3    3    0    0 -0.26716122287E+02 -0.23446582257E+02  0.96065817439E+01  0.36820915556E+02  0.00000000000E+00 0.  1.
         11    1    4    4    0    0  0.16748402985E+02  0.15134791027E+02 -0.10858746656E+02  0.25049616388E+02  0.51100000000E-03 0. -1.
        -11    1    4    4    0    0  0.14681687255E+02 -0.29621780848E+01 -0.47371265762E+01  0.15708813071E+02  0.51100000000E-03 0.  1.
        -12    1    4    4    0    0 -0.47139679529E+01  0.11273969314E+02  0.59892914885E+01  0.13608654985E+02  0.00000000000E+00 0.  1.
</event>
<event>
 8    1  0.1262344E-006  0.9118800E+02  0.7816164E-02  0.1184000E+00
        -11   -1    0    0    0    0  0.00000000000E+00  0.00000000000E+00  0.45593999997E+02  0.45594000000E+02  0.51100000000E-03 0.  1.
         11   -1    0    0    0    0 -0.00000000000E+00 -0.00000000000E+00 -0.45593999997E+02  0.45594000000E+02  0.51100000000E-03 0. -1.
         23    2    1    2    0    0  0.00000000000E+00 -0.35527136788E-14 -0.88817841970E-15  0.91188000000E+02  0.91188000000E+02 0.  0.
    9900012    2    3    3    0    0 -0.21733712508E+02  0.28772961618E+02 -0.74526056462E+01  0.54367096825E+02  0.40000028833E+02 0.  0.
        -12    1    3    3    0    0  0.21733712508E+02 -0.28772961618E+02  0.74526056462E+01  0.36820903175E+02  0.00000000000E+00 0.  1.
         11    1    4    4    0    0 -0.48568415322E+01  0.71249878222E+01 -0.17346476087E+02  0.19371489205E+02  0.51100000000E-03 0. -1.
        -11    1    4    4    0    0 -0.36096381924E+01  0.10689402993E+02  0.13313646375E+02  0.17451246497E+02  0.51100000000E-03 0.  1.
         12    1    4    4    0    0 -0.13267232784E+02  0.10958570803E+02 -0.34197759341E+01  0.17544361123E+02  0.00000000000E+00 0. -1.
</event>
<event>
 8    1  0.1262344E-006  0.9118800E+02  0.7816164E-02  0.1184000E+00
        -11   -1    0    0    0    0  0.00000000000E+00  0.00000000000E+00  0.45593999997E+02  0.45594000000E+02  0.51100000000E-03 0.  1.
         11   -1    0    0    0    0 -0.00000000000E+00 -0.00000000000E+00 -0.45593999997E+02  0.45594000000E+02  0.51100000000E-03 0. -1.
         23    2    1    2    0    0  0.17763568394E-14  0.00000000000E+00  0.00000000000E+00  0.91188000000E+02  0.91188000000E+02 0.  0.
    9900012    2    3    3    0    0  0.78904139855E+01  0.14016169926E+02  0.33122009660E+02  0.54367093219E+02  0.40000020612E+02 0.  0.
         12    1    3    3    0    0 -0.78904139855E+01 -0.14016169926E+02 -0.33122009660E+02  0.36820906781E+02  0.00000000000E+00 0. -1.
         11    1    4    4    0    0 -0.38744078691E+01  0.32819277646E+00 -0.55678388959E+01  0.67911396000E+01  0.51100000000E-03 0. -1.
        -11    1    4    4    0    0 -0.39670469888E+01  0.95600600556E+01  0.89687348363E+01  0.13695634885E+02  0.51100000000E-03 0.  1.
         12    1    4    4    0    0  0.15731868843E+02  0.41279170941E+01  0.29721113719E+02  0.33880318734E+02  0.00000000000E+00 0. -1.
</event>
<event>
 8    1  0.1262344E-006  0.9118800E+02  0.7816164E-02  0.1184000E+00
        -11   -1    0    0    0    0  0.00000000000E+00  0.00000000000E+00  0.45593999997E+02  0.45594000000E+02  0.51100000000E-03 0.  1.
         11   -1    0    0    0    0 -0.00000000000E+00 -0.00000000000E+00 -0.45593999997E+02  0.45594000000E+02  0.51100000000E-03 0. -1.
         23    2    1    2    0    0  0.00000000000E+00  0.00000000000E+00  0.00000000000E+00  0.91188000000E+02  0.91188000000E+02 0.  0.
    9900012    2    3    3    0    0  0.32663232324E+02 -0.11613694240E+02 -0.12410247015E+02  0.54367097367E+02  0.40000030066E+02 0.  0.
        -12    1    3    3    0    0 -0.32663232324E+02  0.11613694240E+02  0.12410247015E+02  0.36820902633E+02  0.00000000000E+00 0.  1.
         11    1    4    4    0    0  0.11759413102E+02  0.85626961663E+01 -0.85217312419E+01  0.16858928369E+02  0.51100000000E-03 0. -1.
        -11    1    4    4    0    0  0.19232292729E+02 -0.95610289146E+01 -0.11477796249E+02  0.24352292798E+02  0.51100000000E-03 0.  1.
        -12    1    4    4    0    0  0.16715264936E+01 -0.10615361492E+02  0.75892804763E+01  0.13155876199E+02  0.00000000000E+00 0.  1.
</event>
<event>
 8    1  0.1262344E-006  0.9118800E+02  0.7816164E-02  0.1184000E+00
        -11   -1    0    0    0    0  0.00000000000E+00  0.00000000000E+00  0.45593999997E+02  0.45594000000E+02  0.51100000000E-03 0. -1.
         11   -1    0    0    0    0 -0.00000000000E+00 -0.00000000000E+00 -0.45593999997E+02  0.45594000000E+02  0.51100000000E-03 0.  1.
         23    2    1    2    0    0  0.00000000000E+00 -0.17763568394E-14 -0.71054273576E-14  0.91188000000E+02  0.91188000000E+02 0.  0.
    9900012    2    3    3    0    0  0.50822729158E+01 -0.15633157805E+02 -0.32947730718E+02  0.54367108098E+02  0.40000054532E+02 0.  0.
         12    1    3    3    0    0 -0.50822729158E+01  0.15633157805E+02  0.32947730718E+02  0.36820891902E+02  0.00000000000E+00 0. -1.
         11    1    4    4    0    0 -0.10820290644E+02 -0.98577316953E+01 -0.19484924387E+02  0.24370388639E+02  0.51100000000E-03 0. -1.
        -11    1    4    4    0    0  0.41504915658E+01 -0.31006749915E+01 -0.16726145624E+02  0.17510131733E+02  0.51100000000E-03 0.  1.
        -12    1    4    4    0    0  0.11752071994E+02 -0.26747511178E+01  0.32633392918E+01  0.12486587726E+02  0.00000000000E+00 0.  1.
</event>
<event>
 8    1  0.1262344E-006  0.9118800E+02  0.7816164E-02  0.1184000E+00
        -11   -1    0    0    0    0  0.00000000000E+00  0.00000000000E+00  0.45593999997E+02  0.45594000000E+02  0.51100000000E-03 0.  1.
         11   -1    0    0    0    0 -0.00000000000E+00 -0.00000000000E+00 -0.45593999997E+02  0.45594000000E+02  0.51100000000E-03 0. -1.
         23    2    1    2    0    0 -0.17763568394E-14  0.00000000000E+00  0.00000000000E+00  0.91188000000E+02  0.91188000000E+02 0.  0.
    9900012    2    3    3    0    0 -0.12723800766E+02 -0.33089041797E+02 -0.99499247272E+01  0.54367071235E+02  0.39999970496E+02 0.  0.
        -12    1    3    3    0    0  0.12723800766E+02  0.33089041797E+02  0.99499247272E+01  0.36820928765E+02  0.00000000000E+00 0.  1.
         11    1    4    4    0    0  0.34787118018E+01 -0.83177454941E+01 -0.13069871337E+01  0.91101340020E+01  0.51100000000E-03 0. -1.
        -11    1    4    4    0    0  0.22516336620E+01  0.71250165223E+01 -0.32317600725E+00  0.74793153152E+01  0.51100000000E-03 0.  1.
         12    1    4    4    0    0 -0.18454146230E+02 -0.31896312826E+02 -0.83197615862E+01  0.37777621918E+02  0.00000000000E+00 0. -1.
</event>
<event>
 8    1  0.1262344E-006  0.9118800E+02  0.7816164E-02  0.1184000E+00
        -11   -1    0    0    0    0  0.00000000000E+00  0.00000000000E+00  0.45593999997E+02  0.45594000000E+02  0.51100000000E-03 0. -1.
         11   -1    0    0    0    0 -0.00000000000E+00 -0.00000000000E+00 -0.45593999997E+02  0.45594000000E+02  0.51100000000E-03 0.  1.
         23    2    1    2    0    0  0.35527136788E-14  0.00000000000E+00  0.00000000000E+00  0.91188000000E+02  0.91188000000E+02 0.  0.
    9900012    2    3    3    0    0 -0.23240310197E+02 -0.12468972120E+02  0.25694244331E+02  0.54367061996E+02  0.39999949432E+02 0.  0.
        -12    1    3    3    0    0  0.23240310197E+02  0.12468972120E+02 -0.25694244331E+02  0.36820938004E+02  0.00000000000E+00 0.  1.
         11    1    4    4    0    0 -0.13006079283E+01 -0.53522637691E+01  0.85266313030E+01  0.10150948235E+02  0.51100000000E-03 0. -1.
        -11    1    4    4    0    0 -0.27819037759E+02 -0.67963987139E+01  0.22385828893E+02  0.36348524493E+02  0.51100000000E-03 0.  1.
        -12    1    4    4    0    0  0.58793354909E+01 -0.32030963742E+00 -0.52182158649E+01  0.78675892681E+01  0.00000000000E+00 0.  1.
</event>
<event>
 8    1  0.1262344E-006  0.9118800E+02  0.7816164E-02  0.1184000E+00
        -11   -1    0    0    0    0  0.00000000000E+00  0.00000000000E+00  0.45593999997E+02  0.45594000000E+02  0.51100000000E-03 0. -1.
         11   -1    0    0    0    0 -0.00000000000E+00 -0.00000000000E+00 -0.45593999997E+02  0.45594000000E+02  0.51100000000E-03 0.  1.
         23    2    1    2    0    0  0.42188474936E-14 -0.35527136788E-14  0.00000000000E+00  0.91188000000E+02  0.91188000000E+02 0.  0.
    9900012    2    3    3    0    0  0.14576282242E+01  0.25974624862E+02 -0.26057069808E+02  0.54367126793E+02  0.40000097150E+02 0.  0.
         12    1    3    3    0    0 -0.14576282242E+01 -0.25974624862E+02  0.26057069808E+02  0.36820873207E+02  0.00000000000E+00 0. -1.
         11    1    4    4    0    0 -0.15348023225E+02  0.13890032739E+02 -0.62804847804E+01  0.21631905042E+02  0.51100000000E-03 0.  1.
        -11    1    4    4    0    0  0.19367431852E+02  0.92400008136E+01 -0.13403402172E+02  0.25300715832E+02  0.51100000000E-03 0. -1.
         12    1    4    4    0    0 -0.25617804019E+01  0.28445913092E+01 -0.63731828557E+01  0.74345059188E+01  0.00000000000E+00 0. -1.
</event>
<event>
 8    1  0.1262344E-006  0.9118800E+02  0.7816164E-02  0.1184000E+00
        -11   -1    0    0    0    0  0.00000000000E+00  0.00000000000E+00  0.45593999997E+02  0.45594000000E+02  0.51100000000E-03 0.  1.
         11   -1    0    0    0    0 -0.00000000000E+00 -0.00000000000E+00 -0.45593999997E+02  0.45594000000E+02  0.51100000000E-03 0. -1.
         23    2    1    2    0    0  0.00000000000E+00  0.00000000000E+00  0.17763568394E-14  0.91188000000E+02  0.91188000000E+02 0.  0.
    9900012    2    3    3    0    0 -0.17397356557E+02  0.30081709797E+02  0.12173851397E+02  0.54367082884E+02  0.39999997050E+02 0.  0.
         12    1    3    3    0    0  0.17397356557E+02 -0.30081709797E+02 -0.12173851397E+02  0.36820917116E+02  0.00000000000E+00 0. -1.
         11    1    4    4    0    0 -0.12177081804E+02  0.73017384166E+01 -0.31143243976E+01  0.14536014649E+02  0.51100000000E-03 0. -1.
        -11    1    4    4    0    0  0.41322450048E+00  0.28573162986E+02  0.13242910180E+02  0.31495572193E+02  0.51100000000E-03 0.  1.
         12    1    4    4    0    0 -0.56334992531E+01 -0.57931916054E+01  0.20452656146E+01  0.83354960408E+01  0.00000000000E+00 0. -1.
</event>
<event>
 8    1  0.1262344E-006  0.9118800E+02  0.7816164E-02  0.1184000E+00
        -11   -1    0    0    0    0  0.00000000000E+00  0.00000000000E+00  0.45593999997E+02  0.45594000000E+02  0.51100000000E-03 0. -1.
         11   -1    0    0    0    0 -0.00000000000E+00 -0.00000000000E+00 -0.45593999997E+02  0.45594000000E+02  0.51100000000E-03 0.  1.
         23    2    1    2    0    0  0.00000000000E+00  0.00000000000E+00  0.44408920985E-15  0.91188000000E+02  0.91188000000E+02 0.  0.
    9900012    2    3    3    0    0 -0.17629550458E+02  0.32119984502E+02 -0.36449168806E+01  0.54367083759E+02  0.39999999045E+02 0.  0.
         12    1    3    3    0    0  0.17629550458E+02 -0.32119984502E+02  0.36449168806E+01  0.36820916241E+02  0.00000000000E+00 0. -1.
         11    1    4    4    0    0 -0.43399382389E+00  0.80175523560E+01 -0.10890873615E+02  0.13530728908E+02  0.51100000000E-03 0. -1.
        -11    1    4    4    0    0  0.28128806262E+01  0.59869988691E+01 -0.75647401076E+01  0.10048967411E+02  0.51100000000E-03 0.  1.
        -12    1    4    4    0    0 -0.20008437260E+02  0.18115433277E+02  0.14810696842E+02  0.30787387440E+02  0.00000000000E+00 0.  1.
</event>
<event>
 8    1  0.1262344E-006  0.9118800E+02  0.7816164E-02  0.1184000E+00
        -11   -1    0    0    0    0  0.00000000000E+00  0.00000000000E+00  0.45593999997E+02  0.45594000000E+02  0.51100000000E-03 0.  1.
         11   -1    0    0    0    0 -0.00000000000E+00 -0.00000000000E+00 -0.45593999997E+02  0.45594000000E+02  0.51100000000E-03 0. -1.
         23    2    1    2    0    0  0.17763568394E-14 -0.17763568394E-14  0.00000000000E+00  0.91188000000E+02  0.91188000000E+02 0.  0.
    9900012    2    3    3    0    0 -0.11034247365E+02  0.98300197782E+01 -0.33725286492E+02  0.54367097611E+02  0.40000030625E+02 0.  0.
        -12    1    3    3    0    0  0.11034247365E+02 -0.98300197782E+01  0.33725286492E+02  0.36820902389E+02  0.00000000000E+00 0.  1.
         11    1    4    4    0    0 -0.26049774329E+01  0.96559283819E+01 -0.33712053795E+01  0.10554045969E+02  0.51100000000E-03 0. -1.
        -11    1    4    4    0    0 -0.26751653496E+01 -0.13318819022E+02 -0.49126564237E+01  0.14445817498E+02  0.51100000000E-03 0.  1.
        -12    1    4    4    0    0 -0.57541045826E+01  0.13492910418E+02 -0.25441424689E+02  0.29367234144E+02  0.00000000000E+00 0.  1.
</event>
<event>
 8    1  0.1262344E-006  0.9118800E+02  0.7816164E-02  0.1184000E+00
        -11   -1    0    0    0    0  0.00000000000E+00  0.00000000000E+00  0.45593999997E+02  0.45594000000E+02  0.51100000000E-03 0.  1.
         11   -1    0    0    0    0 -0.00000000000E+00 -0.00000000000E+00 -0.45593999997E+02  0.45594000000E+02  0.51100000000E-03 0. -1.
         23    2    1    2    0    0 -0.88817841970E-15 -0.17763568394E-14  0.00000000000E+00  0.91188000000E+02  0.91188000000E+02 0.  0.
    9900012    2    3    3    0    0  0.21973816573E+01  0.15825493708E+02  0.33173848679E+02  0.54367095972E+02  0.40000026888E+02 0.  0.
         12    1    3    3    0    0 -0.21973816573E+01 -0.15825493708E+02 -0.33173848679E+02  0.36820904028E+02  0.00000000000E+00 0. -1.
         11    1    4    4    0    0 -0.58601010345E+01  0.70130719128E+01 -0.18606648303E+01  0.93266304559E+01  0.51100000000E-03 0. -1.
        -11    1    4    4    0    0  0.10999400231E+01  0.17256438446E+02  0.19858288503E+02  0.26331467077E+02  0.51100000000E-03 0.  1.
         12    1    4    4    0    0  0.69575426687E+01 -0.84440166501E+01  0.15176225006E+02  0.18708998439E+02  0.00000000000E+00 0. -1.
</event>
<event>
 8    1  0.1262344E-006  0.9118800E+02  0.7816164E-02  0.1184000E+00
        -11   -1    0    0    0    0  0.00000000000E+00  0.00000000000E+00  0.45593999997E+02  0.45594000000E+02  0.51100000000E-03 0.  1.
         11   -1    0    0    0    0 -0.00000000000E+00 -0.00000000000E+00 -0.45593999997E+02  0.45594000000E+02  0.51100000000E-03 0. -1.
         23    2    1    2    0    0  0.88817841970E-15  0.35527136788E-14  0.00000000000E+00  0.91188000000E+02  0.91188000000E+02 0.  0.
    9900012    2    3    3    0    0 -0.66811709947E+01  0.20406327713E+02  0.29911919939E+02  0.54367092746E+02  0.40000019533E+02 0.  0.
        -12    1    3    3    0    0  0.66811709947E+01 -0.20406327713E+02 -0.29911919939E+02  0.36820907254E+02  0.00000000000E+00 0.  1.
         11    1    4    4    0    0  0.85099105893E+01  0.62690566366E+01  0.41473423415E+01  0.11354298662E+02  0.51100000000E-03 0. -1.
        -11    1    4    4    0    0  0.77890186011E+01  0.12381571789E+01  0.79837103766E+01  0.11222364974E+02  0.51100000000E-03 0.  1.
         12    1    4    4    0    0 -0.22980100185E+02  0.12899113898E+02  0.17780867221E+02  0.31790429110E+02  0.00000000000E+00 0. -1.
</event>
<event>
 8    1  0.1262344E-006  0.9118800E+02  0.7816164E-02  0.1184000E+00
        -11   -1    0    0    0    0  0.00000000000E+00  0.00000000000E+00  0.45593999997E+02  0.45594000000E+02  0.51100000000E-03 0. -1.
         11   -1    0    0    0    0 -0.00000000000E+00 -0.00000000000E+00 -0.45593999997E+02  0.45594000000E+02  0.51100000000E-03 0.  1.
         23    2    1    2    0    0  0.17763568394E-14  0.00000000000E+00  0.71054273576E-14  0.91188000000E+02  0.91188000000E+02 0.  0.
    9900012    2    3    3    0    0  0.11815545720E+02  0.26440875621E+01  0.34773300788E+02  0.54367071612E+02  0.39999971354E+02 0.  0.
        -12    1    3    3    0    0 -0.11815545720E+02 -0.26440875621E+01 -0.34773300788E+02  0.36820928388E+02  0.00000000000E+00 0.  1.
         11    1    4    4    0    0  0.60009812322E+01 -0.27477168955E+01  0.82847034045E+01  0.10592357370E+02  0.51100000000E-03 0. -1.
        -11    1    4    4    0    0 -0.65598460280E+01  0.33353343598E+01 -0.56480144908E+01  0.92766428815E+01  0.51100000000E-03 0.  1.
        -12    1    4    4    0    0  0.12374410516E+02  0.20564700978E+01  0.32136611874E+02  0.34498071361E+02  0.00000000000E+00 0.  1.
</event>
<event>
 8    1  0.1262344E-006  0.9118800E+02  0.7816164E-02  0.1184000E+00
        -11   -1    0    0    0    0  0.00000000000E+00  0.00000000000E+00  0.45593999997E+02  0.45594000000E+02  0.51100000000E-03 0.  1.
         11   -1    0    0    0    0 -0.00000000000E+00 -0.00000000000E+00 -0.45593999997E+02  0.45594000000E+02  0.51100000000E-03 0. -1.
         23    2    1    2    0    0 -0.88817841970E-15 -0.35527136788E-14  0.00000000000E+00  0.91188000000E+02  0.91188000000E+02 0.  0.
    9900012    2    3    3    0    0 -0.43134114797E+01  0.29393693180E+02  0.21752781692E+02  0.54367106085E+02  0.40000049942E+02 0.  0.
         12    1    3    3    0    0  0.43134114797E+01 -0.29393693180E+02 -0.21752781692E+02  0.36820893915E+02  0.00000000000E+00 0. -1.
         11    1    4    4    0    0  0.49231971306E+01 -0.75398888471E+00  0.69225827847E+01  0.85281018930E+01  0.51100000000E-03 0. -1.
        -11    1    4    4    0    0 -0.19522224892E+02  0.16499702398E+02  0.12926413813E+02  0.28643491726E+02  0.51100000000E-03 0.  1.
        -12    1    4    4    0    0  0.10285616281E+02  0.13647979667E+02  0.19037850947E+01  0.17195512466E+02  0.00000000000E+00 0.  1.
</event>
<event>
 8    1  0.1262344E-006  0.9118800E+02  0.7816164E-02  0.1184000E+00
        -11   -1    0    0    0    0  0.00000000000E+00  0.00000000000E+00  0.45593999997E+02  0.45594000000E+02  0.51100000000E-03 0.  1.
         11   -1    0    0    0    0 -0.00000000000E+00 -0.00000000000E+00 -0.45593999997E+02  0.45594000000E+02  0.51100000000E-03 0. -1.
         23    2    1    2    0    0 -0.17763568394E-14 -0.35527136788E-14  0.00000000000E+00  0.91188000000E+02  0.91188000000E+02 0.  0.
    9900012    2    3    3    0    0 -0.12448295687E+02  0.20479803231E+02  0.27953485526E+02  0.54367085305E+02  0.40000002570E+02 0.  0.
         12    1    3    3    0    0  0.12448295687E+02 -0.20479803231E+02 -0.27953485526E+02  0.36820914695E+02  0.00000000000E+00 0. -1.
         11    1    4    4    0    0  0.50988822300E+00  0.22599283984E+02  0.82925659984E+01  0.24078087003E+02  0.51100000000E-03 0. -1.
        -11    1    4    4    0    0  0.34647161805E+01 -0.43814867645E+01  0.89560286216E+01  0.10555194617E+02  0.51100000000E-03 0.  1.
         12    1    4    4    0    0 -0.16422900090E+02  0.22620060115E+01  0.10704890906E+02  0.19733803685E+02  0.00000000000E+00 0. -1.
</event>
<event>
 8    1  0.1262344E-006  0.9118800E+02  0.7816164E-02  0.1184000E+00
        -11   -1    0    0    0    0  0.00000000000E+00  0.00000000000E+00  0.45593999997E+02  0.45594000000E+02  0.51100000000E-03 0. -1.
         11   -1    0    0    0    0 -0.00000000000E+00 -0.00000000000E+00 -0.45593999997E+02  0.45594000000E+02  0.51100000000E-03 0.  1.
         23    2    1    2    0    0 -0.17763568394E-14  0.00000000000E+00  0.00000000000E+00  0.91188000000E+02  0.91188000000E+02 0.  0.
    9900012    2    3    3    0    0  0.77182860816E+01 -0.30143677268E+02 -0.19686805650E+02  0.54367034016E+02  0.39999885647E+02 0.  0.
         12    1    3    3    0    0 -0.77182860816E+01  0.30143677268E+02  0.19686805650E+02  0.36820965984E+02  0.00000000000E+00 0. -1.
         11    1    4    4    0    0 -0.72106028193E+01 -0.16547108744E+02 -0.86686924688E+01  0.20023631793E+02  0.51100000000E-03 0.  1.
        -11    1    4    4    0    0 -0.30346764608E+01 -0.23847837151E+01 -0.12533138619E+02  0.13113962730E+02  0.51100000000E-03 0. -1.
        -12    1    4    4    0    0  0.17963565362E+02 -0.11211784809E+02  0.15150254380E+01  0.21229439493E+02  0.00000000000E+00 0.  1.
</event>
<event>
 8    1  0.1262344E-006  0.9118800E+02  0.7816164E-02  0.1184000E+00
        -11   -1    0    0    0    0  0.00000000000E+00  0.00000000000E+00  0.45593999997E+02  0.45594000000E+02  0.51100000000E-03 0. -1.
         11   -1    0    0    0    0 -0.00000000000E+00 -0.00000000000E+00 -0.45593999997E+02  0.45594000000E+02  0.51100000000E-03 0.  1.
         23    2    1    2    0    0 -0.71054273576E-14  0.00000000000E+00 -0.35527136788E-14  0.91188000000E+02  0.91188000000E+02 0.  0.
    9900012    2    3    3    0    0 -0.27055998291E+02  0.91909558803E+01 -0.23222396416E+02  0.54367076481E+02  0.39999982454E+02 0.  0.
         12    1    3    3    0    0  0.27055998291E+02 -0.91909558803E+01  0.23222396416E+02  0.36820923519E+02  0.00000000000E+00 0. -1.
         11    1    4    4    0    0 -0.19044846666E+02  0.45138816508E+01  0.67663315150E-01  0.19572580072E+02  0.51100000000E-03 0. -1.
        -11    1    4    4    0    0  0.52483426649E+01 -0.18653470553E+01  0.16427877647E+01  0.58071828167E+01  0.51100000000E-03 0.  1.
        -12    1    4    4    0    0 -0.13259494290E+02  0.65424212848E+01 -0.24932847496E+02  0.28987313593E+02  0.00000000000E+00 0.  1.
</event>
<event>
 8    1  0.1262344E-006  0.9118800E+02  0.7816164E-02  0.1184000E+00
        -11   -1    0    0    0    0  0.00000000000E+00  0.00000000000E+00  0.45593999997E+02  0.45594000000E+02  0.51100000000E-03 0.  1.
         11   -1    0    0    0    0 -0.00000000000E+00 -0.00000000000E+00 -0.45593999997E+02  0.45594000000E+02  0.51100000000E-03 0. -1.
         23    2    1    2    0    0  0.17763568394E-14  0.00000000000E+00  0.35527136788E-14  0.91188000000E+02  0.91188000000E+02 0.  0.
    9900012    2    3    3    0    0 -0.10797799150E+02 -0.25602279144E+02  0.24160111638E+02  0.54367079883E+02  0.39999990209E+02 0.  0.
         12    1    3    3    0    0  0.10797799150E+02  0.25602279144E+02 -0.24160111638E+02  0.36820920117E+02  0.00000000000E+00 0. -1.
         11    1    4    4    0    0  0.34174042327E+00 -0.58044010610E+01  0.33438773255E+01  0.67074118722E+01  0.51100000000E-03 0. -1.
        -11    1    4    4    0    0  0.63644125004E+01 -0.59487469489E+01 -0.75755870004E+01  0.11544819418E+02  0.51100000000E-03 0.  1.
        -12    1    4    4    0    0 -0.17503952074E+02 -0.13849131134E+02  0.28391821313E+02  0.36114848593E+02  0.00000000000E+00 0.  1.
</event>
<event>
 8    1  0.1262344E-006  0.9118800E+02  0.7816164E-02  0.1184000E+00
        -11   -1    0    0    0    0  0.00000000000E+00  0.00000000000E+00  0.45593999997E+02  0.45594000000E+02  0.51100000000E-03 0. -1.
         11   -1    0    0    0    0 -0.00000000000E+00 -0.00000000000E+00 -0.45593999997E+02  0.45594000000E+02  0.51100000000E-03 0.  1.
         23    2    1    2    0    0  0.00000000000E+00  0.00000000000E+00  0.00000000000E+00  0.91188000000E+02  0.91188000000E+02 0.  0.
    9900012    2    3    3    0    0 -0.20440623081E+02  0.29476546179E+02 -0.83123203496E+01  0.54367075023E+02  0.39999979129E+02 0.  0.
         12    1    3    3    0    0  0.20440623081E+02 -0.29476546179E+02  0.83123203496E+01  0.36820924977E+02  0.00000000000E+00 0. -1.
         11    1    4    4    0    0 -0.10481402413E+02 -0.65456108337E+01 -0.28438421781E+01  0.12680388651E+02  0.51100000000E-03 0. -1.
        -11    1    4    4    0    0  0.38850593555E+01  0.24292766858E+01  0.12216204708E+01  0.47420911261E+01  0.51100000000E-03 0.  1.
         12    1    4    4    0    0 -0.13844280023E+02  0.33592880327E+02 -0.66900986423E+01  0.36944595246E+02  0.00000000000E+00 0. -1.
</event>
<event>
 8    1  0.1262344E-006  0.9118800E+02  0.7816164E-02  0.1184000E+00
        -11   -1    0    0    0    0  0.00000000000E+00  0.00000000000E+00  0.45593999997E+02  0.45594000000E+02  0.51100000000E-03 0.  1.
         11   -1    0    0    0    0 -0.00000000000E+00 -0.00000000000E+00 -0.45593999997E+02  0.45594000000E+02  0.51100000000E-03 0. -1.
         23    2    1    2    0    0  0.00000000000E+00 -0.35527136788E-14  0.17763568394E-14  0.91188000000E+02  0.91188000000E+02 0.  0.
    9900012    2    3    3    0    0  0.30261650501E+02  0.17778170937E+02 -0.11133232615E+02  0.54367085816E+02  0.40000003734E+02 0.  0.
        -12    1    3    3    0    0 -0.30261650501E+02 -0.17778170937E+02  0.11133232615E+02  0.36820914184E+02  0.00000000000E+00 0.  1.
         11    1    4    4    0    0  0.25596518858E+02  0.77058395877E+01 -0.11193082817E+02  0.28980111191E+02  0.51100000000E-03 0. -1.
        -11    1    4    4    0    0  0.11272933592E+02  0.27042996601E+01 -0.67113417732E+01  0.13395311757E+02  0.51100000000E-03 0.  1.
        -12    1    4    4    0    0 -0.66078019495E+01  0.73680316891E+01  0.67711919750E+01  0.11991662868E+02  0.00000000000E+00 0.  1.
</event>
<event>
 8    1  0.1262344E-006  0.9118800E+02  0.7816164E-02  0.1184000E+00
        -11   -1    0    0    0    0  0.00000000000E+00  0.00000000000E+00  0.45593999997E+02  0.45594000000E+02  0.51100000000E-03 0.  1.
         11   -1    0    0    0    0 -0.00000000000E+00 -0.00000000000E+00 -0.45593999997E+02  0.45594000000E+02  0.51100000000E-03 0. -1.
         23    2    1    2    0    0  0.88817841970E-15  0.00000000000E+00  0.35527136788E-14  0.91188000000E+02  0.91188000000E+02 0.  0.
    9900012    2    3    3    0    0 -0.42525243746E+01 -0.34594945108E+02  0.11869654660E+02  0.54367042756E+02  0.39999905572E+02 0.  0.
         12    1    3    3    0    0  0.42525243746E+01  0.34594945108E+02 -0.11869654660E+02  0.36820957244E+02  0.00000000000E+00 0. -1.
         11    1    4    4    0    0 -0.53658675025E+01 -0.51104843877E+01 -0.13288108714E+02  0.15214579133E+02  0.51100000000E-03 0. -1.
        -11    1    4    4    0    0 -0.13368022469E+01 -0.23354462379E+02  0.19298248587E+02  0.30325572576E+02  0.51100000000E-03 0.  1.
         12    1    4    4    0    0  0.24501453749E+01 -0.61299983413E+01  0.58595147869E+01  0.88268910473E+01  0.00000000000E+00 0. -1.
</event>
<event>
 8    1  0.1262344E-006  0.9118800E+02  0.7816164E-02  0.1184000E+00
        -11   -1    0    0    0    0  0.00000000000E+00  0.00000000000E+00  0.45593999997E+02  0.45594000000E+02  0.51100000000E-03 0. -1.
         11   -1    0    0    0    0 -0.00000000000E+00 -0.00000000000E+00 -0.45593999997E+02  0.45594000000E+02  0.51100000000E-03 0.  1.
         23    2    1    2    0    0 -0.35527136788E-14  0.00000000000E+00 -0.88817841970E-15  0.91188000000E+02  0.91188000000E+02 0.  0.
    9900012    2    3    3    0    0 -0.17459688025E+02 -0.32356183903E+02 -0.20038079989E+01  0.54367101190E+02  0.40000038782E+02 0.  0.
         12    1    3    3    0    0  0.17459688025E+02  0.32356183903E+02  0.20038079989E+01  0.36820898810E+02  0.00000000000E+00 0. -1.
         11    1    4    4    0    0 -0.37932490037E+01  0.30183271655E+01  0.10250391445E+02  0.11338851878E+02  0.51100000000E-03 0. -1.
        -11    1    4    4    0    0 -0.71825883175E+01 -0.25869476189E+01 -0.70574048107E+00  0.76668078631E+01  0.51100000000E-03 0.  1.
        -12    1    4    4    0    0 -0.64838507039E+01 -0.32787563450E+02 -0.11548458962E+02  0.35361441449E+02  0.00000000000E+00 0.  1.
</event>
<event>
 8    1  0.1262344E-006  0.9118800E+02  0.7816164E-02  0.1184000E+00
        -11   -1    0    0    0    0  0.00000000000E+00  0.00000000000E+00  0.45593999997E+02  0.45594000000E+02  0.51100000000E-03 0. -1.
         11   -1    0    0    0    0 -0.00000000000E+00 -0.00000000000E+00 -0.45593999997E+02  0.45594000000E+02  0.51100000000E-03 0.  1.
         23    2    1    2    0    0  0.35527136788E-14  0.00000000000E+00  0.00000000000E+00  0.91188000000E+02  0.91188000000E+02 0.  0.
    9900012    2    3    3    0    0  0.30207828992E+02  0.96251470781E+01 -0.18724933734E+02  0.54367088387E+02  0.40000009595E+02 0.  0.
         12    1    3    3    0    0 -0.30207828992E+02 -0.96251470781E+01  0.18724933734E+02  0.36820911613E+02  0.00000000000E+00 0. -1.
         11    1    4    4    0    0  0.15872955923E+02  0.27580005732E+01  0.13163115800E+01  0.16164466380E+02  0.51100000000E-03 0. -1.
        -11    1    4    4    0    0  0.17350543079E+02 -0.35266157329E+01 -0.20846144350E+02  0.27350321720E+02  0.51100000000E-03 0.  1.
         12    1    4    4    0    0 -0.30156700108E+01  0.10393762238E+02  0.80489903531E+00  0.10852300287E+02  0.00000000000E+00 0. -1.
</event>
<event>
 8    1  0.1262344E-006  0.9118800E+02  0.7816164E-02  0.1184000E+00
        -11   -1    0    0    0    0  0.00000000000E+00  0.00000000000E+00  0.45593999997E+02  0.45594000000E+02  0.51100000000E-03 0.  1.
         11   -1    0    0    0    0 -0.00000000000E+00 -0.00000000000E+00 -0.45593999997E+02  0.45594000000E+02  0.51100000000E-03 0. -1.
         23    2    1    2    0    0  0.00000000000E+00  0.00000000000E+00 -0.17763568394E-14  0.91188000000E+02  0.91188000000E+02 0.  0.
    9900012    2    3    3    0    0  0.18168942599E+01 -0.36359319407E+02  0.55207765756E+01  0.54367079500E+02  0.39999989336E+02 0.  0.
        -12    1    3    3    0    0 -0.18168942599E+01  0.36359319407E+02 -0.55207765756E+01  0.36820920500E+02  0.00000000000E+00 0.  1.
         11    1    4    4    0    0  0.44676078960E+01 -0.33644607607E+02  0.11630407127E+01  0.33959855791E+02  0.51100000000E-03 0.  1.
        -11    1    4    4    0    0 -0.57577522329E+01 -0.24424597996E+01 -0.65534751596E+01  0.90589931878E+01  0.51100000000E-03 0. -1.
         12    1    4    4    0    0  0.31070385967E+01 -0.27225199996E+00  0.10911211023E+02  0.11348230522E+02  0.00000000000E+00 0. -1.
</event>
<event>
 8    1  0.1262344E-006  0.9118800E+02  0.7816164E-02  0.1184000E+00
        -11   -1    0    0    0    0  0.00000000000E+00  0.00000000000E+00  0.45593999997E+02  0.45594000000E+02  0.51100000000E-03 0. -1.
         11   -1    0    0    0    0 -0.00000000000E+00 -0.00000000000E+00 -0.45593999997E+02  0.45594000000E+02  0.51100000000E-03 0.  1.
         23    2    1    2    0    0 -0.71054273576E-14  0.35527136788E-14  0.00000000000E+00  0.91188000000E+02  0.91188000000E+02 0.  0.
    9900012    2    3    3    0    0 -0.32229251633E+02  0.17033771076E+02  0.51871364291E+01  0.54367076570E+02  0.39999982657E+02 0.  0.
         12    1    3    3    0    0  0.32229251633E+02 -0.17033771076E+02 -0.51871364291E+01  0.36820923430E+02  0.00000000000E+00 0. -1.
         11    1    4    4    0    0  0.22589171032E+01 -0.12509112594E+00 -0.67267561155E+01  0.70970136232E+01  0.51100000000E-03 0.  1.
        -11    1    4    4    0    0 -0.38378635890E+02  0.15648818508E+02  0.97878300038E+01  0.42586462989E+02  0.51100000000E-03 0. -1.
         12    1    4    4    0    0  0.38904671543E+01  0.15100436939E+01  0.21260625408E+01  0.46835999577E+01  0.00000000000E+00 0. -1.
</event>
<event>
 8    1  0.1262344E-006  0.9118800E+02  0.7816164E-02  0.1184000E+00
        -11   -1    0    0    0    0  0.00000000000E+00  0.00000000000E+00  0.45593999997E+02  0.45594000000E+02  0.51100000000E-03 0. -1.
         11   -1    0    0    0    0 -0.00000000000E+00 -0.00000000000E+00 -0.45593999997E+02  0.45594000000E+02  0.51100000000E-03 0.  1.
         23    2    1    2    0    0 -0.35527136788E-14 -0.35527136788E-14 -0.17763568394E-14  0.91188000000E+02  0.91188000000E+02 0.  0.
    9900012    2    3    3    0    0  0.24193374553E+02 -0.23097449412E+02 -0.15393758693E+02  0.54367090881E+02  0.40000015282E+02 0.  0.
         12    1    3    3    0    0 -0.24193374553E+02  0.23097449412E+02  0.15393758693E+02  0.36820909119E+02  0.00000000000E+00 0. -1.
         11    1    4    4    0    0 -0.93812566795E+01 -0.71923860325E+01 -0.60251839283E+01  0.13268053186E+02  0.51100000000E-03 0. -1.
        -11    1    4    4    0    0  0.41344412754E+01 -0.74678135856E+01  0.13707994561E+01  0.86452840219E+01  0.51100000000E-03 0.  1.
        -12    1    4    4    0    0  0.29440189957E+02 -0.84372497943E+01 -0.10739374221E+02  0.32453753673E+02  0.00000000000E+00 0.  1.
</event>
<event>
 8    1  0.1262344E-006  0.9118800E+02  0.7816164E-02  0.1184000E+00
        -11   -1    0    0    0    0  0.00000000000E+00  0.00000000000E+00  0.45593999997E+02  0.45594000000E+02  0.51100000000E-03 0.  1.
         11   -1    0    0    0    0 -0.00000000000E+00 -0.00000000000E+00 -0.45593999997E+02  0.45594000000E+02  0.51100000000E-03 0. -1.
         23    2    1    2    0    0  0.00000000000E+00  0.17763568394E-14  0.35527136788E-14  0.91188000000E+02  0.91188000000E+02 0.  0.
    9900012    2    3    3    0    0 -0.18013863279E+02  0.75394387099E+01 -0.31216006162E+02  0.54367062383E+02  0.39999950314E+02 0.  0.
        -12    1    3    3    0    0  0.18013863279E+02 -0.75394387099E+01  0.31216006162E+02  0.36820937617E+02  0.00000000000E+00 0.  1.
         11    1    4    4    0    0 -0.61478934435E+01 -0.52303613015E+01 -0.29632618474E+02  0.30712299670E+02  0.51100000000E-03 0. -1.
        -11    1    4    4    0    0 -0.13722413417E+02  0.37432774213E+01 -0.23122910195E+01  0.14410532463E+02  0.51100000000E-03 0.  1.
         12    1    4    4    0    0  0.18564435817E+01  0.90265225902E+01  0.72890333181E+00  0.92442302497E+01  0.00000000000E+00 0. -1.
</event>
<event>
 8    1  0.1262344E-006  0.9118800E+02  0.7816164E-02  0.1184000E+00
        -11   -1    0    0    0    0  0.00000000000E+00  0.00000000000E+00  0.45593999997E+02  0.45594000000E+02  0.51100000000E-03 0.  1.
         11   -1    0    0    0    0 -0.00000000000E+00 -0.00000000000E+00 -0.45593999997E+02  0.45594000000E+02  0.51100000000E-03 0. -1.
         23    2    1    2    0    0  0.71054273576E-14  0.88817841970E-15  0.88817841970E-15  0.91188000000E+02  0.91188000000E+02 0.  0.
    9900012    2    3    3    0    0  0.35770978007E+02 -0.62636074162E+01  0.60815007409E+01  0.54367078003E+02  0.39999985924E+02 0.  0.
         12    1    3    3    0    0 -0.35770978007E+02  0.62636074162E+01 -0.60815007409E+01  0.36820921997E+02  0.00000000000E+00 0. -1.
         11    1    4    4    0    0  0.23629995903E+02  0.31037383675E+00 -0.11078839524E+02  0.26100071336E+02  0.51100000000E-03 0. -1.
        -11    1    4    4    0    0  0.11427848910E+02 -0.18720828869E+01  0.19718137234E+02  0.22867124027E+02  0.51100000000E-03 0.  1.
         12    1    4    4    0    0  0.71313319463E+00 -0.47018983661E+01 -0.25577969692E+01  0.53998826407E+01  0.00000000000E+00 0. -1.
</event>
<event>
 8    1  0.1262344E-006  0.9118800E+02  0.7816164E-02  0.1184000E+00
        -11   -1    0    0    0    0  0.00000000000E+00  0.00000000000E+00  0.45593999997E+02  0.45594000000E+02  0.51100000000E-03 0.  1.
         11   -1    0    0    0    0 -0.00000000000E+00 -0.00000000000E+00 -0.45593999997E+02  0.45594000000E+02  0.51100000000E-03 0. -1.
         23    2    1    2    0    0 -0.17763568394E-14  0.35527136788E-14  0.00000000000E+00  0.91188000000E+02  0.91188000000E+02 0.  0.
    9900012    2    3    3    0    0 -0.14246954160E+02 -0.27064064197E+02  0.20502227821E+02  0.54367073622E+02  0.39999975935E+02 0.  0.
         12    1    3    3    0    0  0.14246954160E+02  0.27064064197E+02 -0.20502227821E+02  0.36820926378E+02  0.00000000000E+00 0. -1.
         11    1    4    4    0    0  0.80353010922E+01 -0.32481524886E+01 -0.30794142428E+01  0.91977905266E+01  0.51100000000E-03 0. -1.
        -11    1    4    4    0    0 -0.15441093559E+02 -0.24637719592E+02  0.11514387673E+02  0.31273402769E+02  0.51100000000E-03 0.  1.
         12    1    4    4    0    0 -0.68411616929E+01  0.82180788303E+00  0.12067254391E+02  0.13895880326E+02  0.00000000000E+00 0. -1.
</event>
<event>
 8    1  0.1262344E-006  0.9118800E+02  0.7816164E-02  0.1184000E+00
        -11   -1    0    0    0    0  0.00000000000E+00  0.00000000000E+00  0.45593999997E+02  0.45594000000E+02  0.51100000000E-03 0.  1.
         11   -1    0    0    0    0 -0.00000000000E+00 -0.00000000000E+00 -0.45593999997E+02  0.45594000000E+02  0.51100000000E-03 0. -1.
         23    2    1    2    0    0  0.00000000000E+00  0.71054273576E-14  0.26645352591E-14  0.91188000000E+02  0.91188000000E+02 0.  0.
    9900012    2    3    3    0    0  0.14884641289E+02 -0.33539812267E+02 -0.30486967023E+01  0.54367270719E+02  0.40000425256E+02 0.  0.
         12    1    3    3    0    0 -0.14884641289E+02  0.33539812267E+02  0.30486967023E+01  0.36820729281E+02  0.00000000000E+00 0. -1.
         11    1    4    4    0    0 -0.63699889930E+01 -0.16588171363E+02 -0.26202007375E+00  0.17771123874E+02  0.51100000000E-03 0. -1.
        -11    1    4    4    0    0  0.54483876822E+01 -0.59520125977E+01 -0.12615898488E+02  0.14975722928E+02  0.51100000000E-03 0.  1.
        -12    1    4    4    0    0  0.15806242600E+02 -0.10999628306E+02  0.98292218599E+01  0.21620423917E+02  0.00000000000E+00 0.  1.
</event>
<event>
 8    1  0.1262344E-006  0.9118800E+02  0.7816164E-02  0.1184000E+00
        -11   -1    0    0    0    0  0.00000000000E+00  0.00000000000E+00  0.45593999997E+02  0.45594000000E+02  0.51100000000E-03 0.  1.
         11   -1    0    0    0    0 -0.00000000000E+00 -0.00000000000E+00 -0.45593999997E+02  0.45594000000E+02  0.51100000000E-03 0. -1.
         23    2    1    2    0    0  0.22204460493E-15  0.00000000000E+00  0.00000000000E+00  0.91188000000E+02  0.91188000000E+02 0.  0.
    9900012    2    3    3    0    0 -0.14153810627E+01 -0.27315728147E+02 -0.24650211041E+02  0.54367011256E+02  0.39999833760E+02 0.  0.
        -12    1    3    3    0    0  0.14153810627E+01  0.27315728147E+02  0.24650211041E+02  0.36820988744E+02  0.00000000000E+00 0.  1.
         11    1    4    4    0    0  0.65071364659E+01 -0.15722155391E+01 -0.15369120950E+02  0.16763787332E+02  0.51100000000E-03 0. -1.
        -11    1    4    4    0    0 -0.33164230024E+01 -0.29679834547E+02 -0.52412492718E+01  0.30320981753E+02  0.51100000000E-03 0.  1.
        -12    1    4    4    0    0 -0.46060945262E+01  0.39363219390E+01 -0.40398408188E+01  0.72822421707E+01  0.00000000000E+00 0.  1.
</event>
<event>
 8    1  0.1262344E-006  0.9118800E+02  0.7816164E-02  0.1184000E+00
        -11   -1    0    0    0    0  0.00000000000E+00  0.00000000000E+00  0.45593999997E+02  0.45594000000E+02  0.51100000000E-03 0. -1.
         11   -1    0    0    0    0 -0.00000000000E+00 -0.00000000000E+00 -0.45593999997E+02  0.45594000000E+02  0.51100000000E-03 0.  1.
         23    2    1    2    0    0  0.35527136788E-14  0.35527136788E-14  0.35527136788E-14  0.91188000000E+02  0.91188000000E+02 0.  0.
    9900012    2    3    3    0    0 -0.23557184043E+02 -0.18362175217E+02 -0.21532989304E+02  0.54367081664E+02  0.39999994270E+02 0.  0.
         12    1    3    3    0    0  0.23557184043E+02  0.18362175217E+02  0.21532989304E+02  0.36820918336E+02  0.00000000000E+00 0. -1.
         11    1    4    4    0    0 -0.16182876869E+02 -0.12631526346E+02 -0.38358069701E+01  0.20884309349E+02  0.51100000000E-03 0. -1.
        -11    1    4    4    0    0 -0.58058216813E+01 -0.84357473257E+00 -0.24368922363E+02  0.25065186237E+02  0.51100000000E-03 0.  1.
        -12    1    4    4    0    0 -0.15684854924E+01 -0.48870741379E+01  0.66717400292E+01  0.84175860783E+01  0.00000000000E+00 0.  1.
</event>
<event>
 8    1  0.1262344E-006  0.9118800E+02  0.7816164E-02  0.1184000E+00
        -11   -1    0    0    0    0  0.00000000000E+00  0.00000000000E+00  0.45593999997E+02  0.45594000000E+02  0.51100000000E-03 0. -1.
         11   -1    0    0    0    0 -0.00000000000E+00 -0.00000000000E+00 -0.45593999997E+02  0.45594000000E+02  0.51100000000E-03 0.  1.
         23    2    1    2    0    0  0.35527136788E-14  0.00000000000E+00  0.35527136788E-14  0.91188000000E+02  0.91188000000E+02 0.  0.
    9900012    2    3    3    0    0  0.17414559474E+02 -0.17074337551E+02  0.27585857438E+02  0.54367089975E+02  0.40000013216E+02 0.  0.
        -12    1    3    3    0    0 -0.17414559474E+02  0.17074337551E+02 -0.27585857438E+02  0.36820910025E+02  0.00000000000E+00 0.  1.
         11    1    4    4    0    0 -0.56577684681E+01  0.20740559394E+01  0.52818820827E+01  0.80131348844E+01  0.51100000000E-03 0. -1.
        -11    1    4    4    0    0  0.11832338806E+02  0.58658304566E+01  0.69034115839E+01  0.14901989811E+02  0.51100000000E-03 0.  1.
         12    1    4    4    0    0  0.11239989136E+02 -0.25014223947E+02  0.15400563771E+02  0.31451965280E+02  0.00000000000E+00 0. -1.
</event>
<event>
 8    1  0.1262344E-006  0.9118800E+02  0.7816164E-02  0.1184000E+00
        -11   -1    0    0    0    0  0.00000000000E+00  0.00000000000E+00  0.45593999997E+02  0.45594000000E+02  0.51100000000E-03 0.  1.
         11   -1    0    0    0    0 -0.00000000000E+00 -0.00000000000E+00 -0.45593999997E+02  0.45594000000E+02  0.51100000000E-03 0. -1.
         23    2    1    2    0    0  0.00000000000E+00 -0.35527136788E-14  0.71054273576E-14  0.91188000000E+02  0.91188000000E+02 0.  0.
    9900012    2    3    3    0    0 -0.16067517072E+02  0.25240253749E+02 -0.21460346449E+02  0.54367055093E+02  0.39999933695E+02 0.  0.
        -12    1    3    3    0    0  0.16067517072E+02 -0.25240253749E+02  0.21460346449E+02  0.36820944907E+02  0.00000000000E+00 0.  1.
         11    1    4    4    0    0 -0.26177751412E+01 -0.67038543159E-02  0.87472072370E+00  0.27600594626E+01  0.51100000000E-03 0. -1.
        -11    1    4    4    0    0 -0.15050443645E+00  0.69473447475E+01  0.99798575915E+01  0.12160830911E+02  0.51100000000E-03 0.  1.
         12    1    4    4    0    0 -0.13299237494E+02  0.18299612856E+02 -0.32314924764E+02  0.39446164720E+02  0.00000000000E+00 0. -1.
</event>
<event>
 8    1  0.1262344E-006  0.9118800E+02  0.7816164E-02  0.1184000E+00
        -11   -1    0    0    0    0  0.00000000000E+00  0.00000000000E+00  0.45593999997E+02  0.45594000000E+02  0.51100000000E-03 0. -1.
         11   -1    0    0    0    0 -0.00000000000E+00 -0.00000000000E+00 -0.45593999997E+02  0.45594000000E+02  0.51100000000E-03 0.  1.
         23    2    1    2    0    0  0.00000000000E+00  0.35527136788E-14  0.53290705182E-14  0.91188000000E+02  0.91188000000E+02 0.  0.
    9900012    2    3    3    0    0  0.19867022870E+02  0.26804957011E+02  0.15574832725E+02  0.54367085665E+02  0.40000003390E+02 0.  0.
        -12    1    3    3    0    0 -0.19867022870E+02 -0.26804957011E+02 -0.15574832725E+02  0.36820914335E+02  0.00000000000E+00 0.  1.
         11    1    4    4    0    0  0.33700445923E+01  0.15006285403E+01 -0.58118894081E+01  0.68838321685E+01  0.51100000000E-03 0. -1.
        -11    1    4    4    0    0  0.68530762420E+01 -0.62739091630E+01  0.59655556375E+01  0.11041487422E+02  0.51100000000E-03 0.  1.
         12    1    4    4    0    0  0.96439020361E+01  0.31578237634E+02  0.15421166496E+02  0.36441766074E+02  0.00000000000E+00 0. -1.
</event>
<event>
 8    1  0.1262344E-006  0.9118800E+02  0.7816164E-02  0.1184000E+00
        -11   -1    0    0    0    0  0.00000000000E+00  0.00000000000E+00  0.45593999997E+02  0.45594000000E+02  0.51100000000E-03 0. -1.
         11   -1    0    0    0    0 -0.00000000000E+00 -0.00000000000E+00 -0.45593999997E+02  0.45594000000E+02  0.51100000000E-03 0.  1.
         23    2    1    2    0    0  0.00000000000E+00  0.00000000000E+00  0.00000000000E+00  0.91188000000E+02  0.91188000000E+02 0.  0.
    9900012    2    3    3    0    0 -0.46344736691E+01  0.20758513758E+02 -0.30056363564E+02  0.54367092483E+02  0.40000018934E+02 0.  0.
         12    1    3    3    0    0  0.46344736691E+01 -0.20758513758E+02  0.30056363564E+02  0.36820907517E+02  0.00000000000E+00 0. -1.
         11    1    4    4    0    0  0.30371106855E+01  0.55346260133E+01 -0.18624215825E+02  0.19665135183E+02  0.51100000000E-03 0. -1.
        -11    1    4    4    0    0 -0.48357434987E+01  0.23414614547E+02 -0.10003965521E+02  0.25917328489E+02  0.51100000000E-03 0.  1.
         12    1    4    4    0    0 -0.28358408559E+01 -0.81907268025E+01 -0.14281822189E+01  0.87846288119E+01  0.00000000000E+00 0. -1.
</event>
<event>
 8    1  0.1262344E-006  0.9118800E+02  0.7816164E-02  0.1184000E+00
        -11   -1    0    0    0    0  0.00000000000E+00  0.00000000000E+00  0.45593999997E+02  0.45594000000E+02  0.51100000000E-03 0.  1.
         11   -1    0    0    0    0 -0.00000000000E+00 -0.00000000000E+00 -0.45593999997E+02  0.45594000000E+02  0.51100000000E-03 0. -1.
         23    2    1    2    0    0  0.88817841970E-15  0.35527136788E-14  0.00000000000E+00  0.91188000000E+02  0.91188000000E+02 0.  0.
    9900012    2    3    3    0    0 -0.78493617511E+01 -0.31391388213E+02 -0.17571224354E+02  0.54367086661E+02  0.40000005661E+02 0.  0.
        -12    1    3    3    0    0  0.78493617511E+01  0.31391388213E+02  0.17571224354E+02  0.36820913339E+02  0.00000000000E+00 0.  1.
         11    1    4    4    0    0 -0.16625772533E+02 -0.71487665990E+01 -0.12286593555E+02  0.21874221304E+02  0.51100000000E-03 0. -1.
        -11    1    4    4    0    0 -0.45387605369E+01 -0.65276193904E+00  0.98137928597E+00  0.46893017524E+01  0.51100000000E-03 0.  1.
        -12    1    4    4    0    0  0.13315171319E+02 -0.23589859675E+02 -0.62660100851E+01  0.27803563604E+02  0.00000000000E+00 0.  1.
</event>
<event>
 8    1  0.1262344E-006  0.9118800E+02  0.7816164E-02  0.1184000E+00
        -11   -1    0    0    0    0  0.00000000000E+00  0.00000000000E+00  0.45593999997E+02  0.45594000000E+02  0.51100000000E-03 0.  1.
         11   -1    0    0    0    0 -0.00000000000E+00 -0.00000000000E+00 -0.45593999997E+02  0.45594000000E+02  0.51100000000E-03 0. -1.
         23    2    1    2    0    0  0.00000000000E+00  0.00000000000E+00 -0.71054273576E-14  0.91188000000E+02  0.91188000000E+02 0.  0.
    9900012    2    3    3    0    0 -0.13731018383E+02  0.62893008934E+00  0.34159093400E+02  0.54367080934E+02  0.39999992606E+02 0.  0.
         12    1    3    3    0    0  0.13731018383E+02 -0.62893008934E+00 -0.34159093400E+02  0.36820919066E+02  0.00000000000E+00 0. -1.
         11    1    4    4    0    0 -0.12998497292E+02  0.78936241078E+01  0.14167311536E+01  0.15273420077E+02  0.51100000000E-03 0. -1.
        -11    1    4    4    0    0 -0.10226083000E+02 -0.17471954730E+01  0.15470332691E+02  0.18626772651E+02  0.51100000000E-03 0.  1.
        -12    1    4    4    0    0  0.94935619090E+01 -0.55174985455E+01  0.17272029556E+02  0.20466888207E+02  0.00000000000E+00 0.  1.
</event>
<event>
 8    1  0.1262344E-006  0.9118800E+02  0.7816164E-02  0.1184000E+00
        -11   -1    0    0    0    0  0.00000000000E+00  0.00000000000E+00  0.45593999997E+02  0.45594000000E+02  0.51100000000E-03 0.  1.
         11   -1    0    0    0    0 -0.00000000000E+00 -0.00000000000E+00 -0.45593999997E+02  0.45594000000E+02  0.51100000000E-03 0. -1.
         23    2    1    2    0    0  0.00000000000E+00  0.35527136788E-14 -0.17763568394E-14  0.91188000000E+02  0.91188000000E+02 0.  0.
    9900012    2    3    3    0    0 -0.13631352423E+02 -0.31034371312E+02  0.14381827492E+02  0.54367042196E+02  0.39999904293E+02 0.  0.
         12    1    3    3    0    0  0.13631352423E+02  0.31034371312E+02 -0.14381827492E+02  0.36820957804E+02  0.00000000000E+00 0. -1.
         11    1    4    4    0    0 -0.80064366769E+01 -0.16472918025E+02 -0.36103111873E+00  0.18319126624E+02  0.51100000000E-03 0. -1.
        -11    1    4    4    0    0  0.48679451813E+01 -0.20336843584E+02  0.90236439010E+01  0.22775211234E+02  0.51100000000E-03 0.  1.
        -12    1    4    4    0    0 -0.10492860928E+02  0.57753902976E+01  0.57192147099E+01  0.13272704338E+02  0.00000000000E+00 0.  1.
</event>
<event>
 8    1  0.1262344E-006  0.9118800E+02  0.7816164E-02  0.1184000E+00
        -11   -1    0    0    0    0  0.00000000000E+00  0.00000000000E+00  0.45593999997E+02  0.45594000000E+02  0.51100000000E-03 0.  1.
         11   -1    0    0    0    0 -0.00000000000E+00 -0.00000000000E+00 -0.45593999997E+02  0.45594000000E+02  0.51100000000E-03 0. -1.
         23    2    1    2    0    0 -0.35527136788E-14  0.17763568394E-14  0.35527136788E-14  0.91188000000E+02  0.91188000000E+02 0.  0.
    9900012    2    3    3    0    0  0.23101344837E+02  0.22696760266E+01  0.28582448001E+02  0.54367083440E+02  0.39999998319E+02 0.  0.
         12    1    3    3    0    0 -0.23101344837E+02 -0.22696760266E+01 -0.28582448001E+02  0.36820916560E+02  0.00000000000E+00 0. -1.
         11    1    4    4    0    0  0.59664096766E+00  0.93434600325E+01 -0.36538700257E+01  0.10050223492E+02  0.51100000000E-03 0. -1.
        -11    1    4    4    0    0 -0.29503730536E+01 -0.30694726004E+01  0.73458690550E+01  0.84904744057E+01  0.51100000000E-03 0.  1.
         12    1    4    4    0    0  0.25455076923E+02 -0.40043114055E+01  0.24890448972E+02  0.35826385542E+02  0.00000000000E+00 0. -1.
</event>
<event>
 8    1  0.1262344E-006  0.9118800E+02  0.7816164E-02  0.1184000E+00
        -11   -1    0    0    0    0  0.00000000000E+00  0.00000000000E+00  0.45593999997E+02  0.45594000000E+02  0.51100000000E-03 0. -1.
         11   -1    0    0    0    0 -0.00000000000E+00 -0.00000000000E+00 -0.45593999997E+02  0.45594000000E+02  0.51100000000E-03 0.  1.
         23    2    1    2    0    0  0.44408920985E-15  0.17763568394E-14  0.00000000000E+00  0.91188000000E+02  0.91188000000E+02 0.  0.
    9900012    2    3    3    0    0 -0.30115335217E+01  0.83147817763E+01  0.35743194609E+02  0.54367069933E+02  0.39999967526E+02 0.  0.
        -12    1    3    3    0    0  0.30115335217E+01 -0.83147817763E+01 -0.35743194609E+02  0.36820930067E+02  0.00000000000E+00 0.  1.
         11    1    4    4    0    0 -0.24328098858E+01  0.17914339033E+02  0.33209565341E+01  0.18381263817E+02  0.51100000000E-03 0. -1.
        -11    1    4    4    0    0 -0.56446923124E+01 -0.64154489063E+01  0.25185981271E+02  0.26596131087E+02  0.51100000000E-03 0.  1.
         12    1    4    4    0    0  0.50659686765E+01 -0.31841083504E+01  0.72362568044E+01  0.93896750294E+01  0.00000000000E+00 0. -1.
</event>
<event>
 8    1  0.1262344E-006  0.9118800E+02  0.7816164E-02  0.1184000E+00
        -11   -1    0    0    0    0  0.00000000000E+00  0.00000000000E+00  0.45593999997E+02  0.45594000000E+02  0.51100000000E-03 0. -1.
         11   -1    0    0    0    0 -0.00000000000E+00 -0.00000000000E+00 -0.45593999997E+02  0.45594000000E+02  0.51100000000E-03 0.  1.
         23    2    1    2    0    0  0.00000000000E+00  0.00000000000E+00 -0.71054273576E-14  0.91188000000E+02  0.91188000000E+02 0.  0.
    9900012    2    3    3    0    0  0.30947662482E+02  0.32520709898E+01  0.19683637542E+02  0.54367090645E+02  0.40000014744E+02 0.  0.
        -12    1    3    3    0    0 -0.30947662482E+02 -0.32520709898E+01 -0.19683637542E+02  0.36820909355E+02  0.00000000000E+00 0.  1.
         11    1    4    4    0    0  0.84820086293E+01 -0.14480021086E+01  0.89279405686E+00  0.86509110494E+01  0.51100000000E-03 0. -1.
        -11    1    4    4    0    0 -0.39696324405E+01 -0.84160870327E+01 -0.21255986403E+01  0.95449815346E+01  0.51100000000E-03 0.  1.
        -12    1    4    4    0    0  0.26435286293E+02  0.13116160131E+02  0.20916442126E+02  0.36171198061E+02  0.00000000000E+00 0.  1.
</event>
<event>
 8    1  0.1262344E-006  0.9118800E+02  0.7816164E-02  0.1184000E+00
        -11   -1    0    0    0    0  0.00000000000E+00  0.00000000000E+00  0.45593999997E+02  0.45594000000E+02  0.51100000000E-03 0.  1.
         11   -1    0    0    0    0 -0.00000000000E+00 -0.00000000000E+00 -0.45593999997E+02  0.45594000000E+02  0.51100000000E-03 0. -1.
         23    2    1    2    0    0  0.00000000000E+00  0.00000000000E+00  0.71054273576E-14  0.91188000000E+02  0.91188000000E+02 0.  0.
    9900012    2    3    3    0    0 -0.12610127765E+02 -0.15908026773E+02  0.30719693976E+02  0.54367078827E+02  0.39999987801E+02 0.  0.
         12    1    3    3    0    0  0.12610127765E+02  0.15908026773E+02 -0.30719693976E+02  0.36820921173E+02  0.00000000000E+00 0. -1.
         11    1    4    4    0    0 -0.74044953604E+01  0.26196288630E+00  0.59671522907E+01  0.95132582651E+01  0.51100000000E-03 0. -1.
        -11    1    4    4    0    0 -0.18194925437E+02 -0.34866095716E+01  0.16890616037E+02  0.25069995379E+02  0.51100000000E-03 0.  1.
         12    1    4    4    0    0  0.12989293032E+02 -0.12683380088E+02  0.78619256487E+01  0.19783825182E+02  0.00000000000E+00 0. -1.
</event>
<event>
 8    1  0.1262344E-006  0.9118800E+02  0.7816164E-02  0.1184000E+00
        -11   -1    0    0    0    0  0.00000000000E+00  0.00000000000E+00  0.45593999997E+02  0.45594000000E+02  0.51100000000E-03 0. -1.
         11   -1    0    0    0    0 -0.00000000000E+00 -0.00000000000E+00 -0.45593999997E+02  0.45594000000E+02  0.51100000000E-03 0.  1.
         23    2    1    2    0    0  0.44408920985E-15  0.88817841970E-15  0.71054273576E-14  0.91188000000E+02  0.91188000000E+02 0.  0.
    9900012    2    3    3    0    0 -0.30431213408E+01 -0.48303136655E+01 -0.36375638798E+02  0.54367087253E+02  0.40000007010E+02 0.  0.
         12    1    3    3    0    0  0.30431213408E+01  0.48303136655E+01  0.36375638798E+02  0.36820912747E+02  0.00000000000E+00 0. -1.
         11    1    4    4    0    0 -0.50002124187E+01 -0.12046159206E+02  0.30850740847E+01  0.13402602666E+02  0.51100000000E-03 0. -1.
        -11    1    4    4    0    0 -0.14762618316E+01  0.28653720629E+01 -0.43230435112E+01  0.53924402190E+01  0.51100000000E-03 0.  1.
         12    1    4    4    0    0  0.34333529095E+01  0.43504734775E+01 -0.35137669371E+02  0.35572044368E+02  0.00000000000E+00 0. -1.
</event>
<event>
 8    1  0.1262344E-006  0.9118800E+02  0.7816164E-02  0.1184000E+00
        -11   -1    0    0    0    0  0.00000000000E+00  0.00000000000E+00  0.45593999997E+02  0.45594000000E+02  0.51100000000E-03 0. -1.
         11   -1    0    0    0    0 -0.00000000000E+00 -0.00000000000E+00 -0.45593999997E+02  0.45594000000E+02  0.51100000000E-03 0.  1.
         23    2    1    2    0    0  0.00000000000E+00  0.00000000000E+00  0.00000000000E+00  0.91188000000E+02  0.91188000000E+02 0.  0.
    9900012    2    3    3    0    0  0.13636472643E+02 -0.26961135082E+02  0.21045761076E+02  0.54367078633E+02  0.39999987359E+02 0.  0.
        -12    1    3    3    0    0 -0.13636472643E+02  0.26961135082E+02 -0.21045761076E+02  0.36820921367E+02  0.00000000000E+00 0.  1.
         11    1    4    4    0    0  0.47257446283E+01  0.71161623093E+00  0.37707071911E+01  0.60874701588E+01  0.51100000000E-03 0. -1.
        -11    1    4    4    0    0 -0.13678022688E+01 -0.11494346288E+02 -0.97588358992E+01  0.15140203367E+02  0.51100000000E-03 0.  1.
         12    1    4    4    0    0  0.10278530284E+02 -0.16178405025E+02  0.27033889785E+02  0.33139405107E+02  0.00000000000E+00 0. -1.
</event>
<event>
 8    1  0.1262344E-006  0.9118800E+02  0.7816164E-02  0.1184000E+00
        -11   -1    0    0    0    0  0.00000000000E+00  0.00000000000E+00  0.45593999997E+02  0.45594000000E+02  0.51100000000E-03 0.  1.
         11   -1    0    0    0    0 -0.00000000000E+00 -0.00000000000E+00 -0.45593999997E+02  0.45594000000E+02  0.51100000000E-03 0. -1.
         23    2    1    2    0    0  0.00000000000E+00  0.44408920985E-15  0.00000000000E+00  0.91188000000E+02  0.91188000000E+02 0.  0.
    9900012    2    3    3    0    0 -0.33530524821E+02 -0.12125737194E+01  0.15166178273E+02  0.54367090271E+02  0.40000013892E+02 0.  0.
         12    1    3    3    0    0  0.33530524821E+02  0.12125737194E+01 -0.15166178273E+02  0.36820909729E+02  0.00000000000E+00 0. -1.
         11    1    4    4    0    0 -0.11330515988E+02 -0.56226850168E+00 -0.91629898653E+01  0.14582767980E+02  0.51100000000E-03 0. -1.
        -11    1    4    4    0    0 -0.15446951650E+02  0.32830711002E+01  0.17472725103E+01  0.15888355252E+02  0.51100000000E-03 0.  1.
        -12    1    4    4    0    0 -0.67530571831E+01 -0.39333763179E+01  0.22581895628E+02  0.23895967039E+02  0.00000000000E+00 0.  1.
</event>
<event>
 8    1  0.1262344E-006  0.9118800E+02  0.7816164E-02  0.1184000E+00
        -11   -1    0    0    0    0  0.00000000000E+00  0.00000000000E+00  0.45593999997E+02  0.45594000000E+02  0.51100000000E-03 0. -1.
         11   -1    0    0    0    0 -0.00000000000E+00 -0.00000000000E+00 -0.45593999997E+02  0.45594000000E+02  0.51100000000E-03 0.  1.
         23    2    1    2    0    0  0.00000000000E+00  0.88817841970E-15  0.35527136788E-14  0.91188000000E+02  0.91188000000E+02 0.  0.
    9900012    2    3    3    0    0  0.24153427536E+02 -0.49375058376E+01  0.27349826606E+02  0.54367081476E+02  0.39999993840E+02 0.  0.
        -12    1    3    3    0    0 -0.24153427536E+02  0.49375058376E+01 -0.27349826606E+02  0.36820918524E+02  0.00000000000E+00 0.  1.
         11    1    4    4    0    0  0.12677527409E+01  0.80404362781E+01 -0.32381229831E+01  0.87602085174E+01  0.51100000000E-03 0. -1.
        -11    1    4    4    0    0  0.13811905837E+02 -0.62427514908E+01  0.25405921666E+01  0.15368646585E+02  0.51100000000E-03 0.  1.
         12    1    4    4    0    0  0.90737689581E+01 -0.67351906249E+01  0.28047357422E+02  0.30238226374E+02  0.00000000000E+00 0. -1.
</event>
<event>
 8    1  0.1262344E-006  0.9118800E+02  0.7816164E-02  0.1184000E+00
        -11   -1    0    0    0    0  0.00000000000E+00  0.00000000000E+00  0.45593999997E+02  0.45594000000E+02  0.51100000000E-03 0.  1.
         11   -1    0    0    0    0 -0.00000000000E+00 -0.00000000000E+00 -0.45593999997E+02  0.45594000000E+02  0.51100000000E-03 0. -1.
         23    2    1    2    0    0  0.00000000000E+00  0.35527136788E-14  0.35527136788E-14  0.91188000000E+02  0.91188000000E+02 0.  0.
    9900012    2    3    3    0    0  0.14453530182E+02  0.26231285709E+02  0.21419538420E+02  0.54367061517E+02  0.39999948340E+02 0.  0.
         12    1    3    3    0    0 -0.14453530182E+02 -0.26231285709E+02 -0.21419538420E+02  0.36820938483E+02  0.00000000000E+00 0. -1.
         11    1    4    4    0    0 -0.21081380637E+01 -0.41378581795E+01  0.17891751105E+01  0.49766720051E+01  0.51100000000E-03 0. -1.
        -11    1    4    4    0    0  0.21873518177E+02  0.32716568304E+02  0.15664460641E+02  0.42357997668E+02  0.51100000000E-03 0.  1.
        -12    1    4    4    0    0 -0.53118499304E+01 -0.23474244155E+01  0.39659026683E+01  0.70323918437E+01  0.00000000000E+00 0.  1.
</event>
<event>
 8    1  0.1262344E-006  0.9118800E+02  0.7816164E-02  0.1184000E+00
        -11   -1    0    0    0    0  0.00000000000E+00  0.00000000000E+00  0.45593999997E+02  0.45594000000E+02  0.51100000000E-03 0.  1.
         11   -1    0    0    0    0 -0.00000000000E+00 -0.00000000000E+00 -0.45593999997E+02  0.45594000000E+02  0.51100000000E-03 0. -1.
         23    2    1    2    0    0  0.00000000000E+00 -0.17763568394E-14  0.00000000000E+00  0.91188000000E+02  0.91188000000E+02 0.  0.
    9900012    2    3    3    0    0  0.31366624342E+02 -0.10019243775E+02 -0.16478160095E+02  0.54367080286E+02  0.39999991128E+02 0.  0.
        -12    1    3    3    0    0 -0.31366624342E+02  0.10019243775E+02  0.16478160095E+02  0.36820919714E+02  0.00000000000E+00 0.  1.
         11    1    4    4    0    0 -0.16031492326E+01  0.23559665265E+01 -0.14802182870E+01  0.32111854781E+01  0.51100000000E-03 0. -1.
        -11    1    4    4    0    0  0.39809411955E+02 -0.11912672384E+02 -0.10196277119E+02  0.42786272458E+02  0.51100000000E-03 0.  1.
        -12    1    4    4    0    0 -0.68396383797E+01 -0.46253791723E+00 -0.48016646895E+01  0.83696223499E+01  0.00000000000E+00 0.  1.
</event>
<event>
 8    1  0.1262344E-006  0.9118800E+02  0.7816164E-02  0.1184000E+00
        -11   -1    0    0    0    0  0.00000000000E+00  0.00000000000E+00  0.45593999997E+02  0.45594000000E+02  0.51100000000E-03 0.  1.
         11   -1    0    0    0    0 -0.00000000000E+00 -0.00000000000E+00 -0.45593999997E+02  0.45594000000E+02  0.51100000000E-03 0. -1.
         23    2    1    2    0    0 -0.35527136788E-14  0.35527136788E-14  0.17763568394E-14  0.91188000000E+02  0.91188000000E+02 0.  0.
    9900012    2    3    3    0    0 -0.27856798752E+02  0.23608993922E+02  0.47322716899E+01  0.54367078962E+02  0.39999988110E+02 0.  0.
         12    1    3    3    0    0  0.27856798752E+02 -0.23608993922E+02 -0.47322716899E+01  0.36820921038E+02  0.00000000000E+00 0. -1.
         11    1    4    4    0    0 -0.74876222940E+01  0.68702078653E+00 -0.17399675057E+01  0.77177699086E+01  0.51100000000E-03 0. -1.
        -11    1    4    4    0    0 -0.13328649277E+02  0.66030943196E+01  0.19563026946E+02  0.24575715039E+02  0.51100000000E-03 0.  1.
         12    1    4    4    0    0 -0.70405271806E+01  0.16318878816E+02 -0.13090787750E+02  0.22073594014E+02  0.00000000000E+00 0. -1.
</event>
<event>
 8    1  0.1262344E-006  0.9118800E+02  0.7816164E-02  0.1184000E+00
        -11   -1    0    0    0    0  0.00000000000E+00  0.00000000000E+00  0.45593999997E+02  0.45594000000E+02  0.51100000000E-03 0.  1.
         11   -1    0    0    0    0 -0.00000000000E+00 -0.00000000000E+00 -0.45593999997E+02  0.45594000000E+02  0.51100000000E-03 0. -1.
         23    2    1    2    0    0  0.88817841970E-15  0.00000000000E+00  0.00000000000E+00  0.91188000000E+02  0.91188000000E+02 0.  0.
    9900012    2    3    3    0    0 -0.73075551889E+01  0.33951325077E+02  0.12234678452E+02  0.54367079396E+02  0.39999989098E+02 0.  0.
         12    1    3    3    0    0  0.73075551889E+01 -0.33951325077E+02 -0.12234678452E+02  0.36820920604E+02  0.00000000000E+00 0. -1.
         11    1    4    4    0    0  0.91663402076E+01  0.81173514509E+01 -0.88454623141E+01  0.15104813511E+02  0.51100000000E-03 0. -1.
        -11    1    4    4    0    0 -0.14632207185E+02  0.25002254485E+02  0.22593190540E+02  0.36737807167E+02  0.51100000000E-03 0.  1.
        -12    1    4    4    0    0 -0.18416882111E+01  0.83171914162E+00 -0.15130497742E+01  0.25244587176E+01  0.00000000000E+00 0.  1.
</event>
<event>
 8    1  0.1262344E-006  0.9118800E+02  0.7816164E-02  0.1184000E+00
        -11   -1    0    0    0    0  0.00000000000E+00  0.00000000000E+00  0.45593999997E+02  0.45594000000E+02  0.51100000000E-03 0. -1.
         11   -1    0    0    0    0 -0.00000000000E+00 -0.00000000000E+00 -0.45593999997E+02  0.45594000000E+02  0.51100000000E-03 0.  1.
         23    2    1    2    0    0  0.35527136788E-14 -0.44408920985E-15  0.00000000000E+00  0.91188000000E+02  0.91188000000E+02 0.  0.
    9900012    2    3    3    0    0  0.20478820894E+02 -0.22992707532E+01  0.30514110720E+02  0.54367086048E+02  0.40000004264E+02 0.  0.
        -12    1    3    3    0    0 -0.20478820894E+02  0.22992707532E+01 -0.30514110720E+02  0.36820913952E+02  0.00000000000E+00 0.  1.
         11    1    4    4    0    0  0.10801339658E+02  0.61761107424E+01  0.10786744289E+02  0.16467153213E+02  0.51100000000E-03 0. -1.
        -11    1    4    4    0    0 -0.86375163387E+01 -0.14874452229E+01 -0.16247939632E+01  0.89139854990E+01  0.51100000000E-03 0.  1.
         12    1    4    4    0    0  0.18314997574E+02 -0.69879362726E+01  0.21352160394E+02  0.28985947336E+02  0.00000000000E+00 0. -1.
</event>
<event>
 8    1  0.1262344E-006  0.9118800E+02  0.7816164E-02  0.1184000E+00
        -11   -1    0    0    0    0  0.00000000000E+00  0.00000000000E+00  0.45593999997E+02  0.45594000000E+02  0.51100000000E-03 0.  1.
         11   -1    0    0    0    0 -0.00000000000E+00 -0.00000000000E+00 -0.45593999997E+02  0.45594000000E+02  0.51100000000E-03 0. -1.
         23    2    1    2    0    0 -0.35527136788E-14 -0.35527136788E-14  0.00000000000E+00  0.91188000000E+02  0.91188000000E+02 0.  0.
    9900012    2    3    3    0    0  0.27985594093E+02  0.23472931209E+02  0.46489180217E+01  0.54367022079E+02  0.39999858434E+02 0.  0.
        -12    1    3    3    0    0 -0.27985594093E+02 -0.23472931209E+02 -0.46489180217E+01  0.36820977921E+02  0.00000000000E+00 0.  1.
         11    1    4    4    0    0  0.18503192804E+02  0.28378083395E+02  0.11555192982E+02  0.35793941474E+02  0.51100000000E-03 0. -1.
        -11    1    4    4    0    0  0.99283302376E+01 -0.13451829902E+01  0.82189781338E+00  0.10052699879E+02  0.51100000000E-03 0.  1.
        -12    1    4    4    0    0 -0.44592894845E+00 -0.35599691956E+01 -0.77281727737E+01  0.85203807263E+01  0.00000000000E+00 0.  1.
</event>
<event>
 8    1  0.1262344E-006  0.9118800E+02  0.7816164E-02  0.1184000E+00
        -11   -1    0    0    0    0  0.00000000000E+00  0.00000000000E+00  0.45593999997E+02  0.45594000000E+02  0.51100000000E-03 0.  1.
         11   -1    0    0    0    0 -0.00000000000E+00 -0.00000000000E+00 -0.45593999997E+02  0.45594000000E+02  0.51100000000E-03 0. -1.
         23    2    1    2    0    0  0.00000000000E+00  0.22204460493E-15  0.00000000000E+00  0.91188000000E+02  0.91188000000E+02 0.  0.
    9900012    2    3    3    0    0  0.73587726667E+00  0.19283523709E+01 -0.36763004716E+02  0.54367101396E+02  0.40000039253E+02 0.  0.
        -12    1    3    3    0    0 -0.73587726667E+00 -0.19283523709E+01  0.36763004716E+02  0.36820898604E+02  0.00000000000E+00 0.  1.
         11    1    4    4    0    0  0.42800845382E+01  0.28389260443E+01 -0.32161331865E+01  0.60598793448E+01  0.51100000000E-03 0. -1.
        -11    1    4    4    0    0  0.58684129763E+00  0.15425094942E+02 -0.25079928141E+02  0.29449630431E+02  0.51100000000E-03 0.  1.
         12    1    4    4    0    0 -0.41310485691E+01 -0.16335668615E+02 -0.84669433888E+01  0.18857591621E+02  0.00000000000E+00 0. -1.
</event>
<event>
 8    1  0.1262344E-006  0.9118800E+02  0.7816164E-02  0.1184000E+00
        -11   -1    0    0    0    0  0.00000000000E+00  0.00000000000E+00  0.45593999997E+02  0.45594000000E+02  0.51100000000E-03 0.  1.
         11   -1    0    0    0    0 -0.00000000000E+00 -0.00000000000E+00 -0.45593999997E+02  0.45594000000E+02  0.51100000000E-03 0. -1.
         23    2    1    2    0    0  0.00000000000E+00 -0.88817841970E-15 -0.12212453271E-14  0.91188000000E+02  0.91188000000E+02 0.  0.
    9900012    2    3    3    0    0 -0.36506068866E+02  0.47274944607E+01  0.85829912754E+00  0.54367096353E+02  0.40000027757E+02 0.  0.
         12    1    3    3    0    0  0.36506068866E+02 -0.47274944607E+01 -0.85829912754E+00  0.36820903647E+02  0.00000000000E+00 0. -1.
         11    1    4    4    0    0 -0.13167266393E+02 -0.24780417020E+01  0.36532975003E+01  0.13887554782E+02  0.51100000000E-03 0. -1.
        -11    1    4    4    0    0 -0.10123621161E+02  0.15191682082E+02  0.96485556743E+01  0.20648717557E+02  0.51100000000E-03 0.  1.
         12    1    4    4    0    0 -0.13215181312E+02 -0.79861459192E+01 -0.12443554047E+02  0.19830824014E+02  0.00000000000E+00 0. -1.
</event>
<event>
 8    1  0.1262344E-006  0.9118800E+02  0.7816164E-02  0.1184000E+00
        -11   -1    0    0    0    0  0.00000000000E+00  0.00000000000E+00  0.45593999997E+02  0.45594000000E+02  0.51100000000E-03 0.  1.
         11   -1    0    0    0    0 -0.00000000000E+00 -0.00000000000E+00 -0.45593999997E+02  0.45594000000E+02  0.51100000000E-03 0. -1.
         23    2    1    2    0    0  0.11102230246E-14  0.00000000000E+00 -0.35527136788E-14  0.91188000000E+02  0.91188000000E+02 0.  0.
    9900012    2    3    3    0    0 -0.16944224156E+01  0.35830488192E+02 -0.83117106703E+01  0.54367089016E+02  0.40000011031E+02 0.  0.
         12    1    3    3    0    0  0.16944224156E+01 -0.35830488192E+02  0.83117106703E+01  0.36820910984E+02  0.00000000000E+00 0. -1.
         11    1    4    4    0    0  0.42737510628E+01  0.10289581648E+02 -0.18218400534E+02  0.21355340244E+02  0.51100000000E-03 0. -1.
        -11    1    4    4    0    0  0.42061144419E+01  0.17908238637E+02  0.83357611767E+01  0.20196072005E+02  0.51100000000E-03 0.  1.
        -12    1    4    4    0    0 -0.10174287920E+02  0.76326679068E+01  0.15709286874E+01  0.12815676767E+02  0.00000000000E+00 0.  1.
</event>
<event>
 8    1  0.1262344E-006  0.9118800E+02  0.7816164E-02  0.1184000E+00
        -11   -1    0    0    0    0  0.00000000000E+00  0.00000000000E+00  0.45593999997E+02  0.45594000000E+02  0.51100000000E-03 0. -1.
         11   -1    0    0    0    0 -0.00000000000E+00 -0.00000000000E+00 -0.45593999997E+02  0.45594000000E+02  0.51100000000E-03 0.  1.
         23    2    1    2    0    0  0.00000000000E+00  0.35527136788E-14 -0.35527136788E-14  0.91188000000E+02  0.91188000000E+02 0.  0.
    9900012    2    3    3    0    0  0.15925136895E+02  0.99091844657E+01 -0.31685586386E+02  0.54367105028E+02  0.40000047533E+02 0.  0.
         12    1    3    3    0    0 -0.15925136895E+02 -0.99091844657E+01  0.31685586386E+02  0.36820894972E+02  0.00000000000E+00 0. -1.
         11    1    4    4    0    0  0.50857573690E+01 -0.21878457056E+01 -0.47344264701E+01  0.72846682223E+01  0.51100000000E-03 0. -1.
        -11    1    4    4    0    0  0.10670888305E+02 -0.10382315566E+02 -0.16707411354E+02  0.22378514877E+02  0.51100000000E-03 0.  1.
        -12    1    4    4    0    0  0.16849122153E+00  0.22479345737E+02 -0.10243748562E+02  0.24703921929E+02  0.00000000000E+00 0.  1.
</event>
<event>
 8    1  0.1262344E-006  0.9118800E+02  0.7816164E-02  0.1184000E+00
        -11   -1    0    0    0    0  0.00000000000E+00  0.00000000000E+00  0.45593999997E+02  0.45594000000E+02  0.51100000000E-03 0.  1.
         11   -1    0    0    0    0 -0.00000000000E+00 -0.00000000000E+00 -0.45593999997E+02  0.45594000000E+02  0.51100000000E-03 0. -1.
         23    2    1    2    0    0  0.00000000000E+00 -0.88817841970E-15 -0.17763568394E-14  0.91188000000E+02  0.91188000000E+02 0.  0.
    9900012    2    3    3    0    0 -0.36096844365E+02  0.50137719757E+01  0.52592277942E+01  0.54367088014E+02  0.40000008745E+02 0.  0.
        -12    1    3    3    0    0  0.36096844365E+02 -0.50137719757E+01 -0.52592277942E+01  0.36820911986E+02  0.00000000000E+00 0.  1.
         11    1    4    4    0    0 -0.18921814137E+02 -0.70457657185E+01 -0.14351985473E+02  0.24772108349E+02  0.51100000000E-03 0. -1.
        -11    1    4    4    0    0 -0.66932518488E+00  0.28997138875E+01  0.11475858050E+01  0.31895595735E+01  0.51100000000E-03 0.  1.
         12    1    4    4    0    0 -0.16505705043E+02  0.91598238067E+01  0.18463627462E+02  0.26405420091E+02  0.00000000000E+00 0. -1.
</event>
<event>
 8    1  0.1262344E-006  0.9118800E+02  0.7816164E-02  0.1184000E+00
        -11   -1    0    0    0    0  0.00000000000E+00  0.00000000000E+00  0.45593999997E+02  0.45594000000E+02  0.51100000000E-03 0. -1.
         11   -1    0    0    0    0 -0.00000000000E+00 -0.00000000000E+00 -0.45593999997E+02  0.45594000000E+02  0.51100000000E-03 0.  1.
         23    2    1    2    0    0  0.00000000000E+00  0.00000000000E+00  0.00000000000E+00  0.91188000000E+02  0.91188000000E+02 0.  0.
    9900012    2    3    3    0    0 -0.23374933903E+02  0.27264054657E+02 -0.81279097100E+01  0.54367093880E+02  0.40000022117E+02 0.  0.
        -12    1    3    3    0    0  0.23374933903E+02 -0.27264054657E+02  0.81279097100E+01  0.36820906120E+02  0.00000000000E+00 0.  1.
         11    1    4    4    0    0  0.41704019945E+01  0.18056206917E+02 -0.13761774525E+01  0.18582592006E+02  0.51100000000E-03 0. -1.
        -11    1    4    4    0    0 -0.14229500568E+02  0.13282862097E+02 -0.93887360639E+01  0.21611605147E+02  0.51100000000E-03 0.  1.
        -12    1    4    4    0    0 -0.13315835330E+02 -0.40750143573E+01  0.26370038064E+01  0.14172896726E+02  0.00000000000E+00 0.  1.
</event>
<event>
 8    1  0.1262344E-006  0.9118800E+02  0.7816164E-02  0.1184000E+00
        -11   -1    0    0    0    0  0.00000000000E+00  0.00000000000E+00  0.45593999997E+02  0.45594000000E+02  0.51100000000E-03 0.  1.
         11   -1    0    0    0    0 -0.00000000000E+00 -0.00000000000E+00 -0.45593999997E+02  0.45594000000E+02  0.51100000000E-03 0. -1.
         23    2    1    2    0    0  0.00000000000E+00  0.00000000000E+00  0.00000000000E+00  0.91188000000E+02  0.91188000000E+02 0.  0.
    9900012    2    3    3    0    0  0.14885697899E+01 -0.16441647696E+02 -0.32912566300E+02  0.54367073349E+02  0.39999975313E+02 0.  0.
        -12    1    3    3    0    0 -0.14885697899E+01  0.16441647696E+02  0.32912566300E+02  0.36820926651E+02  0.00000000000E+00 0.  1.
         11    1    4    4    0    0 -0.17999522866E+01 -0.19372998140E+01 -0.33276913404E+02  0.33381820274E+02  0.51100000000E-03 0. -1.
        -11    1    4    4    0    0  0.58667921001E+00 -0.10530611386E+02 -0.66606175646E+01  0.12474044864E+02  0.51100000000E-03 0.  1.
        -12    1    4    4    0    0  0.27018428665E+01 -0.39737364964E+01  0.70249646689E+01  0.85112082114E+01  0.00000000000E+00 0.  1.
</event>
<event>
 8    1  0.1262344E-006  0.9118800E+02  0.7816164E-02  0.1184000E+00
        -11   -1    0    0    0    0  0.00000000000E+00  0.00000000000E+00  0.45593999997E+02  0.45594000000E+02  0.51100000000E-03 0.  1.
         11   -1    0    0    0    0 -0.00000000000E+00 -0.00000000000E+00 -0.45593999997E+02  0.45594000000E+02  0.51100000000E-03 0. -1.
         23    2    1    2    0    0  0.71054273576E-14 -0.17763568394E-14  0.00000000000E+00  0.91188000000E+02  0.91188000000E+02 0.  0.
    9900012    2    3    3    0    0 -0.35257150280E+02  0.95154765263E+01 -0.47083678651E+01  0.54367086550E+02  0.40000005407E+02 0.  0.
         12    1    3    3    0    0  0.35257150280E+02 -0.95154765263E+01  0.47083678651E+01  0.36820913450E+02  0.00000000000E+00 0. -1.
         11    1    4    4    0    0 -0.21649154527E+02  0.15342082687E+02  0.28404468054E+00  0.26535750876E+02  0.51100000000E-03 0. -1.
        -11    1    4    4    0    0  0.57224337385E+01  0.14117756282E+01 -0.40830093127E+01  0.71700992758E+01  0.51100000000E-03 0.  1.
        -12    1    4    4    0    0 -0.19330429491E+02 -0.72383817891E+01 -0.90940323293E+00  0.20661236398E+02  0.00000000000E+00 0.  1.
</event>
<event>
 8    1  0.1262344E-006  0.9118800E+02  0.7816164E-02  0.1184000E+00
        -11   -1    0    0    0    0  0.00000000000E+00  0.00000000000E+00  0.45593999997E+02  0.45594000000E+02  0.51100000000E-03 0. -1.
         11   -1    0    0    0    0 -0.00000000000E+00 -0.00000000000E+00 -0.45593999997E+02  0.45594000000E+02  0.51100000000E-03 0.  1.
         23    2    1    2    0    0 -0.35527136788E-14 -0.88817841970E-15 -0.71054273576E-14  0.91188000000E+02  0.91188000000E+02 0.  0.
    9900012    2    3    3    0    0 -0.31736086519E+02 -0.16854088590E+01 -0.18594678764E+02  0.54367056654E+02  0.39999937254E+02 0.  0.
         12    1    3    3    0    0  0.31736086519E+02  0.16854088590E+01  0.18594678764E+02  0.36820943346E+02  0.00000000000E+00 0. -1.
         11    1    4    4    0    0 -0.96657190176E+00 -0.75748187117E+01  0.39703065795E+01  0.86067110067E+01  0.51100000000E-03 0. -1.
        -11    1    4    4    0    0 -0.15856121599E+02  0.74379234245E+01  0.13152708263E+01  0.17563292249E+02  0.51100000000E-03 0.  1.
        -12    1    4    4    0    0 -0.14913393019E+02 -0.15485135718E+01 -0.23880256169E+02  0.28197053398E+02  0.00000000000E+00 0.  1.
</event>
<event>
 8    1  0.1262344E-006  0.9118800E+02  0.7816164E-02  0.1184000E+00
        -11   -1    0    0    0    0  0.00000000000E+00  0.00000000000E+00  0.45593999997E+02  0.45594000000E+02  0.51100000000E-03 0.  1.
         11   -1    0    0    0    0 -0.00000000000E+00 -0.00000000000E+00 -0.45593999997E+02  0.45594000000E+02  0.51100000000E-03 0. -1.
         23    2    1    2    0    0  0.00000000000E+00  0.00000000000E+00  0.35527136788E-14  0.91188000000E+02  0.91188000000E+02 0.  0.
    9900012    2    3    3    0    0 -0.26994886373E+02  0.20786547214E+02 -0.13963376438E+02  0.54367077729E+02  0.39999985298E+02 0.  0.
        -12    1    3    3    0    0  0.26994886373E+02 -0.20786547214E+02  0.13963376438E+02  0.36820922271E+02  0.00000000000E+00 0.  1.
         11    1    4    4    0    0 -0.15163444474E+02 -0.15761757616E+01 -0.53637505106E+01  0.16161194206E+02  0.51100000000E-03 0. -1.
        -11    1    4    4    0    0 -0.34997632303E+01  0.17616966087E+02  0.75024212134E+01  0.19465152481E+02  0.51100000000E-03 0.  1.
        -12    1    4    4    0    0 -0.83316786683E+01  0.47457568882E+01 -0.16102047140E+02  0.18740731042E+02  0.00000000000E+00 0.  1.
</event>
<event>
 8    1  0.1262344E-006  0.9118800E+02  0.7816164E-02  0.1184000E+00
        -11   -1    0    0    0    0  0.00000000000E+00  0.00000000000E+00  0.45593999997E+02  0.45594000000E+02  0.51100000000E-03 0. -1.
         11   -1    0    0    0    0 -0.00000000000E+00 -0.00000000000E+00 -0.45593999997E+02  0.45594000000E+02  0.51100000000E-03 0.  1.
         23    2    1    2    0    0  0.00000000000E+00  0.00000000000E+00  0.00000000000E+00  0.91188000000E+02  0.91188000000E+02 0.  0.
    9900012    2    3    3    0    0 -0.66952749151E+01 -0.24458671681E+02 -0.26696939054E+02  0.54367083642E+02  0.39999998779E+02 0.  0.
         12    1    3    3    0    0  0.66952749151E+01  0.24458671681E+02  0.26696939054E+02  0.36820916358E+02  0.00000000000E+00 0. -1.
         11    1    4    4    0    0 -0.36381065748E+01  0.40727135150E+01 -0.12943570635E+01  0.56123235201E+01  0.51100000000E-03 0. -1.
        -11    1    4    4    0    0 -0.36732623359E+01 -0.19491198855E+02 -0.31928905431E+02  0.37587959392E+02  0.51100000000E-03 0.  1.
        -12    1    4    4    0    0  0.61609399560E+00 -0.90401863410E+01  0.65263234405E+01  0.11166800730E+02  0.00000000000E+00 0.  1.
</event>
<event>
 8    1  0.1262344E-006  0.9118800E+02  0.7816164E-02  0.1184000E+00
        -11   -1    0    0    0    0  0.00000000000E+00  0.00000000000E+00  0.45593999997E+02  0.45594000000E+02  0.51100000000E-03 0. -1.
         11   -1    0    0    0    0 -0.00000000000E+00 -0.00000000000E+00 -0.45593999997E+02  0.45594000000E+02  0.51100000000E-03 0.  1.
         23    2    1    2    0    0 -0.88817841970E-15  0.35527136788E-14  0.00000000000E+00  0.91188000000E+02  0.91188000000E+02 0.  0.
    9900012    2    3    3    0    0  0.56592814675E+01  0.28664173361E+02  0.22408218396E+02  0.54366938733E+02  0.39999668428E+02 0.  0.
         12    1    3    3    0    0 -0.56592814675E+01 -0.28664173361E+02 -0.22408218396E+02  0.36821061267E+02  0.00000000000E+00 0. -1.
         11    1    4    4    0    0 -0.32279847581E+01 -0.70435736725E+01  0.32908762409E+00  0.77550057771E+01  0.51100000000E-03 0. -1.
        -11    1    4    4    0    0 -0.14674896191E+01  0.18652348197E+02  0.28948295029E+01  0.18932608303E+02  0.51100000000E-03 0.  1.
        -12    1    4    4    0    0  0.10354755845E+02  0.17055398836E+02  0.19184301269E+02  0.27679324652E+02  0.00000000000E+00 0.  1.
</event>
<event>
 8    1  0.1262344E-006  0.9118800E+02  0.7816164E-02  0.1184000E+00
        -11   -1    0    0    0    0  0.00000000000E+00  0.00000000000E+00  0.45593999997E+02  0.45594000000E+02  0.51100000000E-03 0.  1.
         11   -1    0    0    0    0 -0.00000000000E+00 -0.00000000000E+00 -0.45593999997E+02  0.45594000000E+02  0.51100000000E-03 0. -1.
         23    2    1    2    0    0  0.00000000000E+00  0.00000000000E+00  0.00000000000E+00  0.91188000000E+02  0.91188000000E+02 0.  0.
    9900012    2    3    3    0    0  0.22723119519E+02  0.20796558818E+02  0.20172810743E+02  0.54367091367E+02  0.40000016388E+02 0.  0.
         12    1    3    3    0    0 -0.22723119519E+02 -0.20796558818E+02 -0.20172810743E+02  0.36820908633E+02  0.00000000000E+00 0. -1.
         11    1    4    4    0    0  0.10060514609E+02  0.89407881481E+01 -0.10673856588E+02  0.17177976063E+02  0.51100000000E-03 0. -1.
        -11    1    4    4    0    0 -0.21130868699E+01  0.68328911366E+00  0.27377343366E+01  0.35252247718E+01  0.51100000000E-03 0.  1.
         12    1    4    4    0    0  0.14775691780E+02  0.11172481556E+02  0.28108932994E+02  0.33663890532E+02  0.00000000000E+00 0. -1.
</event>
<event>
 8    1  0.1262344E-006  0.9118800E+02  0.7816164E-02  0.1184000E+00
        -11   -1    0    0    0    0  0.00000000000E+00  0.00000000000E+00  0.45593999997E+02  0.45594000000E+02  0.51100000000E-03 0. -1.
         11   -1    0    0    0    0 -0.00000000000E+00 -0.00000000000E+00 -0.45593999997E+02  0.45594000000E+02  0.51100000000E-03 0.  1.
         23    2    1    2    0    0  0.35527136788E-14  0.00000000000E+00  0.00000000000E+00  0.91188000000E+02  0.91188000000E+02 0.  0.
    9900012    2    3    3    0    0 -0.13917996259E+02  0.33406841928E+01  0.33925056675E+02  0.54367078486E+02  0.39999987025E+02 0.  0.
        -12    1    3    3    0    0  0.13917996259E+02 -0.33406841928E+01 -0.33925056675E+02  0.36820921514E+02  0.00000000000E+00 0.  1.
         11    1    4    4    0    0 -0.90702133170E+01 -0.78572563588E+00  0.20398196408E+02  0.22337693510E+02  0.51100000000E-03 0. -1.
        -11    1    4    4    0    0  0.96854285226E+01 -0.36361073328E+01  0.11435604298E+02  0.15420825144E+02  0.51100000000E-03 0.  1.
        -12    1    4    4    0    0 -0.14533211464E+02  0.77625171615E+01  0.20912559685E+01  0.16608559832E+02  0.00000000000E+00 0.  1.
</event>
<event>
 8    1  0.1262344E-006  0.9118800E+02  0.7816164E-02  0.1184000E+00
        -11   -1    0    0    0    0  0.00000000000E+00  0.00000000000E+00  0.45593999997E+02  0.45594000000E+02  0.51100000000E-03 0.  1.
         11   -1    0    0    0    0 -0.00000000000E+00 -0.00000000000E+00 -0.45593999997E+02  0.45594000000E+02  0.51100000000E-03 0. -1.
         23    2    1    2    0    0  0.00000000000E+00 -0.44408920985E-15  0.00000000000E+00  0.91188000000E+02  0.91188000000E+02 0.  0.
    9900012    2    3    3    0    0  0.12518943394E+02 -0.39338949365E+01 -0.34403188341E+02  0.54367097769E+02  0.40000030984E+02 0.  0.
        -12    1    3    3    0    0 -0.12518943394E+02  0.39338949365E+01  0.34403188341E+02  0.36820902231E+02  0.00000000000E+00 0.  1.
         11    1    4    4    0    0 -0.37203571507E+00  0.37677220983E+01 -0.73081245945E+01  0.82306029994E+01  0.51100000000E-03 0. -1.
        -11    1    4    4    0    0 -0.23994429716E+01 -0.54883626930E+01 -0.29848230620E+02  0.30443329696E+02  0.51100000000E-03 0.  1.
        -12    1    4    4    0    0  0.15290422081E+02 -0.22132543418E+01  0.27531668730E+01  0.15693165073E+02  0.00000000000E+00 0.  1.
</event>
<event>
 8    1  0.1262344E-006  0.9118800E+02  0.7816164E-02  0.1184000E+00
        -11   -1    0    0    0    0  0.00000000000E+00  0.00000000000E+00  0.45593999997E+02  0.45594000000E+02  0.51100000000E-03 0.  1.
         11   -1    0    0    0    0 -0.00000000000E+00 -0.00000000000E+00 -0.45593999997E+02  0.45594000000E+02  0.51100000000E-03 0. -1.
         23    2    1    2    0    0  0.00000000000E+00 -0.88817841970E-15  0.00000000000E+00  0.91188000000E+02  0.91188000000E+02 0.  0.
    9900012    2    3    3    0    0  0.15635515406E+02  0.66593637393E+01  0.32664382125E+02  0.54367104750E+02  0.40000046898E+02 0.  0.
         12    1    3    3    0    0 -0.15635515406E+02 -0.66593637393E+01 -0.32664382125E+02  0.36820895250E+02  0.00000000000E+00 0. -1.
         11    1    4    4    0    0  0.16002478807E+02  0.14873970438E+02  0.34748774091E+02  0.41046213292E+02  0.51100000000E-03 0. -1.
        -11    1    4    4    0    0 -0.39543198352E+01 -0.84310005299E+01 -0.26518379201E+01  0.96824924431E+01  0.51100000000E-03 0.  1.
         12    1    4    4    0    0  0.35873564346E+01  0.21639383145E+00  0.56744595443E+00  0.36383990148E+01  0.00000000000E+00 0. -1.
</event>
<event>
 8    1  0.1262344E-006  0.9118800E+02  0.7816164E-02  0.1184000E+00
        -11   -1    0    0    0    0  0.00000000000E+00  0.00000000000E+00  0.45593999997E+02  0.45594000000E+02  0.51100000000E-03 0. -1.
         11   -1    0    0    0    0 -0.00000000000E+00 -0.00000000000E+00 -0.45593999997E+02  0.45594000000E+02  0.51100000000E-03 0.  1.
         23    2    1    2    0    0  0.00000000000E+00  0.00000000000E+00  0.17763568394E-14  0.91188000000E+02  0.91188000000E+02 0.  0.
    9900012    2    3    3    0    0  0.86942199148E+01 -0.33025340544E+02 -0.13766514366E+02  0.54367088880E+02  0.40000010719E+02 0.  0.
        -12    1    3    3    0    0 -0.86942199148E+01  0.33025340544E+02  0.13766514366E+02  0.36820911120E+02  0.00000000000E+00 0.  1.
         11    1    4    4    0    0  0.25448673677E+01 -0.15384122909E+02 -0.16789585561E+02  0.22913702695E+02  0.51100000000E-03 0. -1.
        -11    1    4    4    0    0 -0.11878236102E+01 -0.15533078259E+02  0.12003624817E+02  0.19666582167E+02  0.51100000000E-03 0.  1.
        -12    1    4    4    0    0  0.73371761573E+01 -0.21081393749E+01 -0.89805536223E+01  0.11786804018E+02  0.00000000000E+00 0.  1.
</event>
<event>
 8    1  0.1262344E-006  0.9118800E+02  0.7816164E-02  0.1184000E+00
        -11   -1    0    0    0    0  0.00000000000E+00  0.00000000000E+00  0.45593999997E+02  0.45594000000E+02  0.51100000000E-03 0. -1.
         11   -1    0    0    0    0 -0.00000000000E+00 -0.00000000000E+00 -0.45593999997E+02  0.45594000000E+02  0.51100000000E-03 0.  1.
         23    2    1    2    0    0 -0.22204460493E-15  0.35527136788E-14  0.00000000000E+00  0.91188000000E+02  0.91188000000E+02 0.  0.
    9900012    2    3    3    0    0 -0.33801859661E+00  0.26149050372E+02  0.25920907712E+02  0.54367074583E+02  0.39999978127E+02 0.  0.
        -12    1    3    3    0    0  0.33801859661E+00 -0.26149050372E+02 -0.25920907712E+02  0.36820925417E+02  0.00000000000E+00 0.  1.
         11    1    4    4    0    0 -0.74481017661E+01  0.15071905502E+02 -0.49379137470E+01  0.17521973285E+02  0.51100000000E-03 0. -1.
        -11    1    4    4    0    0  0.74812743901E+01 -0.14297029172E+01  0.11373731198E+02  0.13688508997E+02  0.51100000000E-03 0.  1.
         12    1    4    4    0    0 -0.37119122056E+00  0.12506847788E+02  0.19485090261E+02  0.23156592301E+02  0.00000000000E+00 0. -1.
</event>
<event>
 8    1  0.1262344E-006  0.9118800E+02  0.7816164E-02  0.1184000E+00
        -11   -1    0    0    0    0  0.00000000000E+00  0.00000000000E+00  0.45593999997E+02  0.45594000000E+02  0.51100000000E-03 0. -1.
         11   -1    0    0    0    0 -0.00000000000E+00 -0.00000000000E+00 -0.45593999997E+02  0.45594000000E+02  0.51100000000E-03 0.  1.
         23    2    1    2    0    0  0.00000000000E+00  0.00000000000E+00  0.00000000000E+00  0.91188000000E+02  0.91188000000E+02 0.  0.
    9900012    2    3    3    0    0 -0.23998052036E+02 -0.15312223201E+02 -0.23353995385E+02  0.54367085002E+02  0.40000001879E+02 0.  0.
         12    1    3    3    0    0  0.23998052036E+02  0.15312223201E+02  0.23353995385E+02  0.36820914998E+02  0.00000000000E+00 0. -1.
         11    1    4    4    0    0  0.55599058510E+01 -0.61924799286E+01 -0.13211796404E+02  0.15614446043E+02  0.51100000000E-03 0. -1.
        -11    1    4    4    0    0 -0.23339886742E+02 -0.11554640246E+02  0.66139310167E+00  0.26051822689E+02  0.51100000000E-03 0.  1.
         12    1    4    4    0    0 -0.62180711447E+01  0.24348969739E+01 -0.10803592082E+02  0.12700816270E+02  0.00000000000E+00 0. -1.
</event>
<event>
 8    1  0.1262344E-006  0.9118800E+02  0.7816164E-02  0.1184000E+00
        -11   -1    0    0    0    0  0.00000000000E+00  0.00000000000E+00  0.45593999997E+02  0.45594000000E+02  0.51100000000E-03 0.  1.
         11   -1    0    0    0    0 -0.00000000000E+00 -0.00000000000E+00 -0.45593999997E+02  0.45594000000E+02  0.51100000000E-03 0. -1.
         23    2    1    2    0    0  0.00000000000E+00  0.35527136788E-14  0.00000000000E+00  0.91188000000E+02  0.91188000000E+02 0.  0.
    9900012    2    3    3    0    0 -0.17883066035E+02 -0.29087012740E+02 -0.13781220029E+02  0.54367076784E+02  0.39999983145E+02 0.  0.
        -12    1    3    3    0    0  0.17883066035E+02  0.29087012740E+02  0.13781220029E+02  0.36820923216E+02  0.00000000000E+00 0.  1.
         11    1    4    4    0    0 -0.58085379546E+01 -0.13651850295E+02 -0.11566991613E+02  0.18812427405E+02  0.51100000000E-03 0. -1.
        -11    1    4    4    0    0 -0.56656084717E+01  0.71522924268E+01 -0.71137806356E+01  0.11569800409E+02  0.51100000000E-03 0.  1.
        -12    1    4    4    0    0 -0.64089196088E+01 -0.22587454872E+02  0.48995522194E+01  0.23984848970E+02  0.00000000000E+00 0.  1.
</event>
<event>
 8    1  0.1262344E-006  0.9118800E+02  0.7816164E-02  0.1184000E+00
        -11   -1    0    0    0    0  0.00000000000E+00  0.00000000000E+00  0.45593999997E+02  0.45594000000E+02  0.51100000000E-03 0. -1.
         11   -1    0    0    0    0 -0.00000000000E+00 -0.00000000000E+00 -0.45593999997E+02  0.45594000000E+02  0.51100000000E-03 0.  1.
         23    2    1    2    0    0  0.00000000000E+00  0.00000000000E+00  0.00000000000E+00  0.91188000000E+02  0.91188000000E+02 0.  0.
    9900012    2    3    3    0    0  0.48211468224E+01  0.35966537588E+02  0.62405436258E+01  0.54367086548E+02  0.40000005402E+02 0.  0.
        -12    1    3    3    0    0 -0.48211468224E+01 -0.35966537588E+02 -0.62405436258E+01  0.36820913452E+02  0.00000000000E+00 0.  1.
         11    1    4    4    0    0  0.10097818667E+02  0.35501216352E+02 -0.36766299773E+01  0.37092046487E+02  0.51100000000E-03 0. -1.
        -11    1    4    4    0    0 -0.81687009922E+01 -0.26399530745E+01  0.28752409330E+01  0.90533992964E+01  0.51100000000E-03 0.  1.
         12    1    4    4    0    0  0.28920291477E+01  0.31052743100E+01  0.70419326700E+01  0.82216407645E+01  0.00000000000E+00 0. -1.
</event>
<event>
 8    1  0.1262344E-006  0.9118800E+02  0.7816164E-02  0.1184000E+00
        -11   -1    0    0    0    0  0.00000000000E+00  0.00000000000E+00  0.45593999997E+02  0.45594000000E+02  0.51100000000E-03 0. -1.
         11   -1    0    0    0    0 -0.00000000000E+00 -0.00000000000E+00 -0.45593999997E+02  0.45594000000E+02  0.51100000000E-03 0.  1.
         23    2    1    2    0    0  0.17763568394E-14  0.00000000000E+00  0.35527136788E-14  0.91188000000E+02  0.91188000000E+02 0.  0.
    9900012    2    3    3    0    0 -0.14117555262E+02 -0.26532434183E+02  0.21272157838E+02  0.54367080276E+02  0.39999991105E+02 0.  0.
        -12    1    3    3    0    0  0.14117555262E+02  0.26532434183E+02 -0.21272157838E+02  0.36820919724E+02  0.00000000000E+00 0.  1.
         11    1    4    4    0    0 -0.19206930547E+02 -0.18559649907E+02  0.42721081449E+01  0.27048432376E+02  0.51100000000E-03 0. -1.
        -11    1    4    4    0    0  0.11067096980E+01 -0.46369663704E+01 -0.36633480266E+01  0.60121861666E+01  0.51100000000E-03 0.  1.
        -12    1    4    4    0    0  0.39826655875E+01 -0.33358179057E+01  0.20663397719E+02  0.21306461733E+02  0.00000000000E+00 0.  1.
</event>
<event>
 8    1  0.1262344E-006  0.9118800E+02  0.7816164E-02  0.1184000E+00
        -11   -1    0    0    0    0  0.00000000000E+00  0.00000000000E+00  0.45593999997E+02  0.45594000000E+02  0.51100000000E-03 0.  1.
         11   -1    0    0    0    0 -0.00000000000E+00 -0.00000000000E+00 -0.45593999997E+02  0.45594000000E+02  0.51100000000E-03 0. -1.
         23    2    1    2    0    0  0.00000000000E+00  0.17763568394E-14  0.00000000000E+00  0.91188000000E+02  0.91188000000E+02 0.  0.
    9900012    2    3    3    0    0 -0.19520096450E+02 -0.80576990911E+01 -0.30163206432E+02  0.54367086074E+02  0.40000004323E+02 0.  0.
        -12    1    3    3    0    0  0.19520096450E+02  0.80576990911E+01  0.30163206432E+02  0.36820913926E+02  0.00000000000E+00 0.  1.
         11    1    4    4    0    0 -0.11338307280E+02 -0.11150946504E+01 -0.12851847124E+02  0.17174708813E+02  0.51100000000E-03 0. -1.
        -11    1    4    4    0    0 -0.31661448510E+00  0.41484502670E+01 -0.22318466006E+02  0.22702947154E+02  0.51100000000E-03 0.  1.
        -12    1    4    4    0    0 -0.78651746856E+01 -0.11091054708E+02  0.50071066972E+01  0.14489430108E+02  0.00000000000E+00 0.  1.
</event>
<event>
 8    1  0.1262344E-006  0.9118800E+02  0.7816164E-02  0.1184000E+00
        -11   -1    0    0    0    0  0.00000000000E+00  0.00000000000E+00  0.45593999997E+02  0.45594000000E+02  0.51100000000E-03 0. -1.
         11   -1    0    0    0    0 -0.00000000000E+00 -0.00000000000E+00 -0.45593999997E+02  0.45594000000E+02  0.51100000000E-03 0.  1.
         23    2    1    2    0    0 -0.88817841970E-15  0.00000000000E+00 -0.35527136788E-14  0.91188000000E+02  0.91188000000E+02 0.  0.
    9900012    2    3    3    0    0  0.33207835581E+01  0.21587521274E+02  0.29643381942E+02  0.54367098718E+02  0.40000033148E+02 0.  0.
        -12    1    3    3    0    0 -0.33207835581E+01 -0.21587521274E+02 -0.29643381942E+02  0.36820901282E+02  0.00000000000E+00 0.  1.
         11    1    4    4    0    0 -0.37377482007E+00  0.63042623311E+01 -0.21916079879E+01  0.66848019409E+01  0.51100000000E-03 0. -1.
        -11    1    4    4    0    0 -0.14119412609E+02  0.66794594978E+01  0.12317007918E+02  0.19891748941E+02  0.51100000000E-03 0.  1.
         12    1    4    4    0    0  0.17813970987E+02  0.86037994456E+01  0.19517982012E+02  0.27790547837E+02  0.00000000000E+00 0. -1.
</event>
<event>
 8    1  0.1262344E-006  0.9118800E+02  0.7816164E-02  0.1184000E+00
        -11   -1    0    0    0    0  0.00000000000E+00  0.00000000000E+00  0.45593999997E+02  0.45594000000E+02  0.51100000000E-03 0.  1.
         11   -1    0    0    0    0 -0.00000000000E+00 -0.00000000000E+00 -0.45593999997E+02  0.45594000000E+02  0.51100000000E-03 0. -1.
         23    2    1    2    0    0 -0.14210854715E-13  0.44408920985E-15 -0.17763568394E-14  0.91188000000E+02  0.91188000000E+02 0.  0.
    9900012    2    3    3    0    0 -0.34607497964E+02  0.30918004502E+01 -0.12187724026E+02  0.54367098839E+02  0.40000033424E+02 0.  0.
        -12    1    3    3    0    0  0.34607497964E+02 -0.30918004502E+01  0.12187724026E+02  0.36820901161E+02  0.00000000000E+00 0.  1.
         11    1    4    4    0    0  0.18254515246E+01  0.23733286880E+00 -0.56539904360E+01  0.59461086662E+01  0.51100000000E-03 0. -1.
        -11    1    4    4    0    0 -0.11875822170E+01  0.59835742025E+01  0.80916609159E+01  0.10133532869E+02  0.51100000000E-03 0.  1.
         12    1    4    4    0    0 -0.35245367272E+02 -0.31291066212E+01 -0.14625394506E+02  0.38287457304E+02  0.00000000000E+00 0. -1.
</event>
<event>
 8    1  0.1262344E-006  0.9118800E+02  0.7816164E-02  0.1184000E+00
        -11   -1    0    0    0    0  0.00000000000E+00  0.00000000000E+00  0.45593999997E+02  0.45594000000E+02  0.51100000000E-03 0.  1.
         11   -1    0    0    0    0 -0.00000000000E+00 -0.00000000000E+00 -0.45593999997E+02  0.45594000000E+02  0.51100000000E-03 0. -1.
         23    2    1    2    0    0  0.71054273576E-14  0.00000000000E+00  0.17763568394E-14  0.91188000000E+02  0.91188000000E+02 0.  0.
    9900012    2    3    3    0    0  0.31330239385E+02  0.13774440364E+02 -0.13581732858E+02  0.54367047070E+02  0.39999915405E+02 0.  0.
         12    1    3    3    0    0 -0.31330239385E+02 -0.13774440364E+02  0.13581732858E+02  0.36820952930E+02  0.00000000000E+00 0. -1.
         11    1    4    4    0    0  0.16115455662E+02 -0.43037436447E+01  0.69119791900E+01  0.18055624529E+02  0.51100000000E-03 0. -1.
        -11    1    4    4    0    0  0.99830209791E+01  0.79264811515E+01 -0.21342447786E+02  0.24859402428E+02  0.51100000000E-03 0.  1.
        -12    1    4    4    0    0  0.52317627435E+01  0.10151702857E+02  0.84873573790E+00  0.11452020113E+02  0.00000000000E+00 0.  1.
</event>
<event>
 8    1  0.1262344E-006  0.9118800E+02  0.7816164E-02  0.1184000E+00
        -11   -1    0    0    0    0  0.00000000000E+00  0.00000000000E+00  0.45593999997E+02  0.45594000000E+02  0.51100000000E-03 0.  1.
         11   -1    0    0    0    0 -0.00000000000E+00 -0.00000000000E+00 -0.45593999997E+02  0.45594000000E+02  0.51100000000E-03 0. -1.
         23    2    1    2    0    0  0.00000000000E+00 -0.19984014443E-14  0.00000000000E+00  0.91188000000E+02  0.91188000000E+02 0.  0.
    9900012    2    3    3    0    0  0.31979668088E+02 -0.15287816510E+01 -0.18186339578E+02  0.54367091651E+02  0.40000017037E+02 0.  0.
        -12    1    3    3    0    0 -0.31979668088E+02  0.15287816510E+01  0.18186339578E+02  0.36820908349E+02  0.00000000000E+00 0.  1.
         11    1    4    4    0    0  0.14525375286E+02 -0.15948187665E+02 -0.13389369841E+02  0.25389100850E+02  0.51100000000E-03 0. -1.
        -11    1    4    4    0    0  0.18245497803E+02  0.48064084512E+01 -0.22482334130E+01  0.19001429052E+02  0.51100000000E-03 0.  1.
        -12    1    4    4    0    0 -0.79120499982E+00  0.96129975624E+01 -0.25487363241E+01  0.99765617493E+01  0.00000000000E+00 0.  1.
</event>
<event>
 8    1  0.1262344E-006  0.9118800E+02  0.7816164E-02  0.1184000E+00
        -11   -1    0    0    0    0  0.00000000000E+00  0.00000000000E+00  0.45593999997E+02  0.45594000000E+02  0.51100000000E-03 0.  1.
         11   -1    0    0    0    0 -0.00000000000E+00 -0.00000000000E+00 -0.45593999997E+02  0.45594000000E+02  0.51100000000E-03 0. -1.
         23    2    1    2    0    0 -0.35527136788E-14  0.00000000000E+00  0.17763568394E-14  0.91188000000E+02  0.91188000000E+02 0.  0.
    9900012    2    3    3    0    0 -0.31547951420E+02  0.12392053536E+02  0.14385524775E+02  0.54367088106E+02  0.40000008956E+02 0.  0.
         12    1    3    3    0    0  0.31547951420E+02 -0.12392053536E+02 -0.14385524775E+02  0.36820911894E+02  0.00000000000E+00 0. -1.
         11    1    4    4    0    0  0.35957340172E+01  0.17076167898E+01  0.67342575746E+01  0.78227542187E+01  0.51100000000E-03 0. -1.
        -11    1    4    4    0    0 -0.16220257842E+02  0.71416056796E+00  0.16725441513E+02  0.23309808747E+02  0.51100000000E-03 0.  1.
         12    1    4    4    0    0 -0.18923427595E+02  0.99702761783E+01 -0.90741743129E+01  0.23234525140E+02  0.00000000000E+00 0. -1.
</event>
<event>
 8    1  0.1262344E-006  0.9118800E+02  0.7816164E-02  0.1184000E+00
        -11   -1    0    0    0    0  0.00000000000E+00  0.00000000000E+00  0.45593999997E+02  0.45594000000E+02  0.51100000000E-03 0.  1.
         11   -1    0    0    0    0 -0.00000000000E+00 -0.00000000000E+00 -0.45593999997E+02  0.45594000000E+02  0.51100000000E-03 0. -1.
         23    2    1    2    0    0  0.88817841970E-15  0.00000000000E+00  0.00000000000E+00  0.91188000000E+02  0.91188000000E+02 0.  0.
    9900012    2    3    3    0    0 -0.50862050838E+01  0.18003899316E+02  0.31713884158E+02  0.54367077672E+02  0.39999985168E+02 0.  0.
         12    1    3    3    0    0  0.50862050838E+01 -0.18003899316E+02 -0.31713884158E+02  0.36820922328E+02  0.00000000000E+00 0. -1.
         11    1    4    4    0    0 -0.37749705529E+01 -0.47668305838E+01 -0.11745620053E+01  0.61929534679E+01  0.51100000000E-03 0. -1.
        -11    1    4    4    0    0 -0.12451076606E+02  0.19581596886E+02  0.25262498318E+02  0.34302508170E+02  0.51100000000E-03 0.  1.
         12    1    4    4    0    0  0.11139842075E+02  0.31891330135E+01  0.76259478456E+01  0.13871616033E+02  0.00000000000E+00 0. -1.
</event>
<event>
 8    1  0.1262344E-006  0.9118800E+02  0.7816164E-02  0.1184000E+00
        -11   -1    0    0    0    0  0.00000000000E+00  0.00000000000E+00  0.45593999997E+02  0.45594000000E+02  0.51100000000E-03 0.  1.
         11   -1    0    0    0    0 -0.00000000000E+00 -0.00000000000E+00 -0.45593999997E+02  0.45594000000E+02  0.51100000000E-03 0. -1.
         23    2    1    2    0    0  0.00000000000E+00 -0.17763568394E-14  0.00000000000E+00  0.91188000000E+02  0.91188000000E+02 0.  0.
    9900012    2    3    3    0    0 -0.11880819441E+02  0.93851306260E+01 -0.33564012883E+02  0.54367115868E+02  0.40000072244E+02 0.  0.
        -12    1    3    3    0    0  0.11880819441E+02 -0.93851306260E+01  0.33564012883E+02  0.36820884132E+02  0.00000000000E+00 0.  1.
         11    1    4    4    0    0 -0.13650893477E+02  0.12472349971E+02 -0.29628369919E+02  0.34924872381E+02  0.51100000000E-03 0. -1.
        -11    1    4    4    0    0 -0.55813345603E+01  0.27061590687E+01  0.38217404062E+01  0.72856223051E+01  0.51100000000E-03 0.  1.
        -12    1    4    4    0    0  0.73514085968E+01 -0.57933784136E+01 -0.77573833704E+01  0.12156621182E+02  0.00000000000E+00 0.  1.
</event>
<event>
 8    1  0.1262344E-006  0.9118800E+02  0.7816164E-02  0.1184000E+00
        -11   -1    0    0    0    0  0.00000000000E+00  0.00000000000E+00  0.45593999997E+02  0.45594000000E+02  0.51100000000E-03 0. -1.
         11   -1    0    0    0    0 -0.00000000000E+00 -0.00000000000E+00 -0.45593999997E+02  0.45594000000E+02  0.51100000000E-03 0.  1.
         23    2    1    2    0    0  0.88817841970E-15  0.71054273576E-14  0.00000000000E+00  0.91188000000E+02  0.91188000000E+02 0.  0.
    9900012    2    3    3    0    0  0.57307782938E+01  0.35449307674E+02  0.81416439224E+01  0.54367060303E+02  0.39999945572E+02 0.  0.
         12    1    3    3    0    0 -0.57307782938E+01 -0.35449307674E+02 -0.81416439224E+01  0.36820939697E+02  0.00000000000E+00 0. -1.
         11    1    4    4    0    0 -0.55254541778E+00  0.32876092208E+02  0.19983070273E+02  0.38476822154E+02  0.51100000000E-03 0. -1.
        -11    1    4    4    0    0 -0.83289784189E+00  0.15479677408E+00 -0.67712399878E+01  0.68240290217E+01  0.51100000000E-03 0.  1.
         12    1    4    4    0    0  0.71162215534E+01  0.24184186925E+01 -0.50701863633E+01  0.90662091267E+01  0.00000000000E+00 0. -1.
</event>
<event>
 8    1  0.1262344E-006  0.9118800E+02  0.7816164E-02  0.1184000E+00
        -11   -1    0    0    0    0  0.00000000000E+00  0.00000000000E+00  0.45593999997E+02  0.45594000000E+02  0.51100000000E-03 0.  1.
         11   -1    0    0    0    0 -0.00000000000E+00 -0.00000000000E+00 -0.45593999997E+02  0.45594000000E+02  0.51100000000E-03 0. -1.
         23    2    1    2    0    0  0.00000000000E+00  0.17763568394E-14  0.00000000000E+00  0.91188000000E+02  0.91188000000E+02 0.  0.
    9900012    2    3    3    0    0 -0.34143503020E+02  0.11738834537E+02 -0.72249820629E+01  0.54367090172E+02  0.40000013665E+02 0.  0.
        -12    1    3    3    0    0  0.34143503020E+02 -0.11738834537E+02  0.72249820629E+01  0.36820909828E+02  0.00000000000E+00 0.  1.
         11    1    4    4    0    0 -0.17525124984E+02 -0.50556080166E+01  0.10183660721E+02  0.20890096316E+02  0.51100000000E-03 0. -1.
        -11    1    4    4    0    0  0.17038957066E+01  0.81629100413E+01 -0.48939413832E+01  0.96688687779E+01  0.51100000000E-03 0.  1.
         12    1    4    4    0    0 -0.18322273742E+02  0.86315325124E+01 -0.12514701401E+02  0.23808125078E+02  0.00000000000E+00 0. -1.
</event>
<event>
 8    1  0.1262344E-006  0.9118800E+02  0.7816164E-02  0.1184000E+00
        -11   -1    0    0    0    0  0.00000000000E+00  0.00000000000E+00  0.45593999997E+02  0.45594000000E+02  0.51100000000E-03 0.  1.
         11   -1    0    0    0    0 -0.00000000000E+00 -0.00000000000E+00 -0.45593999997E+02  0.45594000000E+02  0.51100000000E-03 0. -1.
         23    2    1    2    0    0 -0.88817841970E-15  0.71054273576E-14  0.17763568394E-14  0.91188000000E+02  0.91188000000E+02 0.  0.
    9900012    2    3    3    0    0 -0.74395909982E+01 -0.35157021500E+02 -0.80260137492E+01  0.54367074270E+02  0.39999977412E+02 0.  0.
        -12    1    3    3    0    0  0.74395909982E+01  0.35157021500E+02  0.80260137492E+01  0.36820925730E+02  0.00000000000E+00 0.  1.
         11    1    4    4    0    0  0.11217899111E+02 -0.85177404883E+01 -0.13413439157E+02  0.19450283129E+02  0.51100000000E-03 0. -1.
        -11    1    4    4    0    0  0.64389616663E+00 -0.44353529773E+01  0.30136067874E+01  0.54008133125E+01  0.51100000000E-03 0.  1.
         12    1    4    4    0    0 -0.19301386276E+02 -0.22203928034E+02  0.23738186205E+01  0.29515977828E+02  0.00000000000E+00 0. -1.
</event>
<event>
 8    1  0.1262344E-006  0.9118800E+02  0.7816164E-02  0.1184000E+00
        -11   -1    0    0    0    0  0.00000000000E+00  0.00000000000E+00  0.45593999997E+02  0.45594000000E+02  0.51100000000E-03 0.  1.
         11   -1    0    0    0    0 -0.00000000000E+00 -0.00000000000E+00 -0.45593999997E+02  0.45594000000E+02  0.51100000000E-03 0. -1.
         23    2    1    2    0    0  0.39968028887E-14 -0.35527136788E-14  0.00000000000E+00  0.91188000000E+02  0.91188000000E+02 0.  0.
    9900012    2    3    3    0    0 -0.27316479022E+01 -0.19531285559E+02 -0.31094188851E+02  0.54367060357E+02  0.39999945696E+02 0.  0.
        -12    1    3    3    0    0  0.27316479022E+01  0.19531285559E+02  0.31094188851E+02  0.36820939643E+02  0.00000000000E+00 0.  1.
         11    1    4    4    0    0 -0.18547971693E+02 -0.66981492685E+01 -0.92038841278E+01  0.21762443356E+02  0.51100000000E-03 0. -1.
        -11    1    4    4    0    0  0.76617299915E+01 -0.11741326382E+02 -0.19537693552E+02  0.24047501352E+02  0.51100000000E-03 0.  1.
         12    1    4    4    0    0  0.81545937990E+01 -0.10918099091E+01 -0.23526111717E+01  0.85571156490E+01  0.00000000000E+00 0. -1.
</event>
<event>
 8    1  0.1262344E-006  0.9118800E+02  0.7816164E-02  0.1184000E+00
        -11   -1    0    0    0    0  0.00000000000E+00  0.00000000000E+00  0.45593999997E+02  0.45594000000E+02  0.51100000000E-03 0. -1.
         11   -1    0    0    0    0 -0.00000000000E+00 -0.00000000000E+00 -0.45593999997E+02  0.45594000000E+02  0.51100000000E-03 0.  1.
         23    2    1    2    0    0  0.00000000000E+00  0.00000000000E+00  0.00000000000E+00  0.91188000000E+02  0.91188000000E+02 0.  0.
    9900012    2    3    3    0    0 -0.15434025539E+02  0.52456471262E+01  0.33015958974E+02  0.54367088753E+02  0.40000010430E+02 0.  0.
        -12    1    3    3    0    0  0.15434025539E+02 -0.52456471262E+01 -0.33015958974E+02  0.36820911247E+02  0.00000000000E+00 0.  1.
         11    1    4    4    0    0  0.30054969454E+01 -0.54654989129E+01 -0.16771339686E+01  0.64589061663E+01  0.51100000000E-03 0. -1.
        -11    1    4    4    0    0 -0.12356913647E+02 -0.57645770958E+01  0.75708230786E+01  0.15596186275E+02  0.51100000000E-03 0.  1.
         12    1    4    4    0    0 -0.60826088378E+01  0.16475723135E+02  0.27122269864E+02  0.32311996312E+02  0.00000000000E+00 0. -1.
</event>
<event>
 8    1  0.1262344E-006  0.9118800E+02  0.7816164E-02  0.1184000E+00
        -11   -1    0    0    0    0  0.00000000000E+00  0.00000000000E+00  0.45593999997E+02  0.45594000000E+02  0.51100000000E-03 0. -1.
         11   -1    0    0    0    0 -0.00000000000E+00 -0.00000000000E+00 -0.45593999997E+02  0.45594000000E+02  0.51100000000E-03 0.  1.
         23    2    1    2    0    0  0.00000000000E+00  0.00000000000E+00  0.00000000000E+00  0.91188000000E+02  0.91188000000E+02 0.  0.
    9900012    2    3    3    0    0 -0.41315486279E+01  0.24669904789E+02  0.27020481115E+02  0.54367078012E+02  0.39999985944E+02 0.  0.
        -12    1    3    3    0    0  0.41315486279E+01 -0.24669904789E+02 -0.27020481115E+02  0.36820921988E+02  0.00000000000E+00 0.  1.
         11    1    4    4    0    0  0.41478176018E+01  0.12371808021E+02  0.24628138956E+02  0.27871333898E+02  0.51100000000E-03 0. -1.
        -11    1    4    4    0    0  0.16858773227E+01  0.90289166751E+01  0.99706770006E+01  0.13556471472E+02  0.51100000000E-03 0.  1.
        -12    1    4    4    0    0 -0.99652435524E+01  0.32691800928E+01 -0.75783348409E+01  0.12939272642E+02  0.00000000000E+00 0.  1.
</event>
<event>
 8    1  0.1262344E-006  0.9118800E+02  0.7816164E-02  0.1184000E+00
        -11   -1    0    0    0    0  0.00000000000E+00  0.00000000000E+00  0.45593999997E+02  0.45594000000E+02  0.51100000000E-03 0.  1.
         11   -1    0    0    0    0 -0.00000000000E+00 -0.00000000000E+00 -0.45593999997E+02  0.45594000000E+02  0.51100000000E-03 0. -1.
         23    2    1    2    0    0 -0.69388939039E-15  0.17763568394E-14  0.71054273576E-14  0.91188000000E+02  0.91188000000E+02 0.  0.
    9900012    2    3    3    0    0  0.24379127618E+00 -0.10243033890E+02 -0.35366683687E+02  0.54367061766E+02  0.39999948907E+02 0.  0.
        -12    1    3    3    0    0 -0.24379127618E+00  0.10243033890E+02  0.35366683687E+02  0.36820938234E+02  0.00000000000E+00 0.  1.
         11    1    4    4    0    0  0.76478767447E+01 -0.92092979214E+01 -0.29650489530E+02  0.31975814556E+02  0.51100000000E-03 0. -1.
        -11    1    4    4    0    0 -0.73708350292E+00 -0.14883404633E+01 -0.12651678728E+02  0.12760228224E+02  0.51100000000E-03 0.  1.
        -12    1    4    4    0    0 -0.66670019656E+01  0.45460449450E+00  0.69354845716E+01  0.96310189855E+01  0.00000000000E+00 0.  1.
</event>
<event>
 8    1  0.1262344E-006  0.9118800E+02  0.7816164E-02  0.1184000E+00
        -11   -1    0    0    0    0  0.00000000000E+00  0.00000000000E+00  0.45593999997E+02  0.45594000000E+02  0.51100000000E-03 0. -1.
         11   -1    0    0    0    0 -0.00000000000E+00 -0.00000000000E+00 -0.45593999997E+02  0.45594000000E+02  0.51100000000E-03 0.  1.
         23    2    1    2    0    0 -0.17763568394E-14 -0.44408920985E-15  0.00000000000E+00  0.91188000000E+02  0.91188000000E+02 0.  0.
    9900012    2    3    3    0    0  0.10375624152E+02 -0.22513847955E+01 -0.35257022092E+02  0.54367083162E+02  0.39999997684E+02 0.  0.
         12    1    3    3    0    0 -0.10375624152E+02  0.22513847955E+01  0.35257022092E+02  0.36820916838E+02  0.00000000000E+00 0. -1.
         11    1    4    4    0    0 -0.44428443658E+01 -0.42999243873E+01  0.55937829747E+01  0.83377829202E+01  0.51100000000E-03 0. -1.
        -11    1    4    4    0    0  0.10748523538E+02  0.81657053236E+01 -0.22177405749E+02  0.25962411823E+02  0.51100000000E-03 0.  1.
         12    1    4    4    0    0  0.40699449799E+01 -0.61171657318E+01 -0.18673399317E+02  0.20066888418E+02  0.00000000000E+00 0. -1.
</event>
<event>
 8    1  0.1262344E-006  0.9118800E+02  0.7816164E-02  0.1184000E+00
        -11   -1    0    0    0    0  0.00000000000E+00  0.00000000000E+00  0.45593999997E+02  0.45594000000E+02  0.51100000000E-03 0.  1.
         11   -1    0    0    0    0 -0.00000000000E+00 -0.00000000000E+00 -0.45593999997E+02  0.45594000000E+02  0.51100000000E-03 0. -1.
         23    2    1    2    0    0  0.35527136788E-14  0.22204460493E-14  0.00000000000E+00  0.91188000000E+02  0.91188000000E+02 0.  0.
    9900012    2    3    3    0    0  0.25041860276E+02 -0.10680879582E+01  0.26973028119E+02  0.54367084424E+02  0.40000000561E+02 0.  0.
         12    1    3    3    0    0 -0.25041860276E+02  0.10680879582E+01 -0.26973028119E+02  0.36820915576E+02  0.00000000000E+00 0. -1.
         11    1    4    4    0    0  0.15049472087E+02  0.96247575234E+01  0.19899545998E+02  0.26741624832E+02  0.51100000000E-03 0. -1.
        -11    1    4    4    0    0  0.92635955757E+01 -0.14144177122E+02  0.12588090385E+02  0.21079183316E+02  0.51100000000E-03 0.  1.
         12    1    4    4    0    0  0.72879261296E+00  0.34513316403E+01 -0.55146082646E+01  0.65462762755E+01  0.00000000000E+00 0. -1.
</event>
<event>
 8    1  0.1262344E-006  0.9118800E+02  0.7816164E-02  0.1184000E+00
        -11   -1    0    0    0    0  0.00000000000E+00  0.00000000000E+00  0.45593999997E+02  0.45594000000E+02  0.51100000000E-03 0.  1.
         11   -1    0    0    0    0 -0.00000000000E+00 -0.00000000000E+00 -0.45593999997E+02  0.45594000000E+02  0.51100000000E-03 0. -1.
         23    2    1    2    0    0  0.00000000000E+00  0.35527136788E-14 -0.55511151231E-16  0.91188000000E+02  0.91188000000E+02 0.  0.
    9900012    2    3    3    0    0  0.26640650606E+02  0.25414342792E+02  0.40797149556E+00  0.54367088482E+02  0.40000009813E+02 0.  0.
        -12    1    3    3    0    0 -0.26640650606E+02 -0.25414342792E+02 -0.40797149556E+00  0.36820911518E+02  0.00000000000E+00 0.  1.
         11    1    4    4    0    0  0.21882242475E+02  0.16252203650E+02  0.15672334754E+01  0.27302433595E+02  0.51100000000E-03 0. -1.
        -11    1    4    4    0    0  0.60277361860E+01 -0.16737121484E+01  0.97834167853E+01  0.11612500167E+02  0.51100000000E-03 0.  1.
         12    1    4    4    0    0 -0.12693280551E+01  0.10835851291E+02 -0.10942678765E+02  0.15452154719E+02  0.00000000000E+00 0. -1.
</event>
<event>
 8    1  0.1262344E-006  0.9118800E+02  0.7816164E-02  0.1184000E+00
        -11   -1    0    0    0    0  0.00000000000E+00  0.00000000000E+00  0.45593999997E+02  0.45594000000E+02  0.51100000000E-03 0.  1.
         11   -1    0    0    0    0 -0.00000000000E+00 -0.00000000000E+00 -0.45593999997E+02  0.45594000000E+02  0.51100000000E-03 0. -1.
         23    2    1    2    0    0 -0.17763568394E-14 -0.35527136788E-14 -0.71054273576E-14  0.91188000000E+02  0.91188000000E+02 0.  0.
    9900012    2    3    3    0    0 -0.13208749152E+02 -0.21692821468E+02 -0.26659490858E+02  0.54367109052E+02  0.40000056706E+02 0.  0.
        -12    1    3    3    0    0  0.13208749152E+02  0.21692821468E+02  0.26659490858E+02  0.36820890948E+02  0.00000000000E+00 0.  1.
         11    1    4    4    0    0 -0.31770305996E+01 -0.12056261705E+02 -0.10516087660E+02  0.16310581525E+02  0.51100000000E-03 0. -1.
        -11    1    4    4    0    0  0.60802519967E+01 -0.73894141562E+01 -0.19247509227E+02  0.21495104503E+02  0.51100000000E-03 0.  1.
        -12    1    4    4    0    0 -0.16111970549E+02 -0.22471456065E+01  0.31041060292E+01  0.16561423024E+02  0.00000000000E+00 0.  1.
</event>
<event>
 8    1  0.1262344E-006  0.9118800E+02  0.7816164E-02  0.1184000E+00
        -11   -1    0    0    0    0  0.00000000000E+00  0.00000000000E+00  0.45593999997E+02  0.45594000000E+02  0.51100000000E-03 0. -1.
         11   -1    0    0    0    0 -0.00000000000E+00 -0.00000000000E+00 -0.45593999997E+02  0.45594000000E+02  0.51100000000E-03 0.  1.
         23    2    1    2    0    0  0.71054273576E-14  0.13322676296E-14  0.00000000000E+00  0.91188000000E+02  0.91188000000E+02 0.  0.
    9900012    2    3    3    0    0  0.31423670158E+02  0.27984663270E+01  0.18986870744E+02  0.54367085826E+02  0.40000003757E+02 0.  0.
        -12    1    3    3    0    0 -0.31423670158E+02 -0.27984663270E+01 -0.18986870744E+02  0.36820914174E+02  0.00000000000E+00 0.  1.
         11    1    4    4    0    0  0.34916371431E+02  0.67106313200E+01  0.42893204652E+01  0.35813179654E+02  0.51100000000E-03 0. -1.
        -11    1    4    4    0    0  0.26608966274E+01  0.43305244839E+00  0.81113386416E+01  0.85476148781E+01  0.51100000000E-03 0.  1.
        -12    1    4    4    0    0 -0.61535979003E+01 -0.43452174414E+01  0.65862116374E+01  0.10006291294E+02  0.00000000000E+00 0.  1.
</event>
<event>
 8    1  0.1262344E-006  0.9118800E+02  0.7816164E-02  0.1184000E+00
        -11   -1    0    0    0    0  0.00000000000E+00  0.00000000000E+00  0.45593999997E+02  0.45594000000E+02  0.51100000000E-03 0. -1.
         11   -1    0    0    0    0 -0.00000000000E+00 -0.00000000000E+00 -0.45593999997E+02  0.45594000000E+02  0.51100000000E-03 0.  1.
         23    2    1    2    0    0 -0.17763568394E-14  0.35527136788E-14  0.00000000000E+00  0.91188000000E+02  0.91188000000E+02 0.  0.
    9900012    2    3    3    0    0  0.30401633594E+01 -0.30215607672E+02 -0.20821949437E+02  0.54367094001E+02  0.40000022393E+02 0.  0.
         12    1    3    3    0    0 -0.30401633594E+01  0.30215607672E+02  0.20821949437E+02  0.36820905999E+02  0.00000000000E+00 0. -1.
         11    1    4    4    0    0 -0.50092829964E+01  0.15694407209E+01 -0.10610015652E+02  0.11837588129E+02  0.51100000000E-03 0. -1.
        -11    1    4    4    0    0 -0.53610919065E+01 -0.18219223399E+02 -0.13327354431E+02  0.23201288414E+02  0.51100000000E-03 0.  1.
         12    1    4    4    0    0  0.13410538262E+02 -0.13565824994E+02  0.31154206465E+01  0.19328217457E+02  0.00000000000E+00 0. -1.
</event>
<event>
 8    1  0.1262344E-006  0.9118800E+02  0.7816164E-02  0.1184000E+00
        -11   -1    0    0    0    0  0.00000000000E+00  0.00000000000E+00  0.45593999997E+02  0.45594000000E+02  0.51100000000E-03 0. -1.
         11   -1    0    0    0    0 -0.00000000000E+00 -0.00000000000E+00 -0.45593999997E+02  0.45594000000E+02  0.51100000000E-03 0.  1.
         23    2    1    2    0    0  0.00000000000E+00  0.00000000000E+00  0.00000000000E+00  0.91188000000E+02  0.91188000000E+02 0.  0.
    9900012    2    3    3    0    0 -0.21531244543E+02  0.18627930059E+02 -0.23349246357E+02  0.54367060641E+02  0.39999946342E+02 0.  0.
         12    1    3    3    0    0  0.21531244543E+02 -0.18627930059E+02  0.23349246357E+02  0.36820939359E+02  0.00000000000E+00 0. -1.
         11    1    4    4    0    0 -0.13996377064E+02  0.69436745099E+01  0.84468543273E+01  0.17761265014E+02  0.51100000000E-03 0. -1.
        -11    1    4    4    0    0 -0.83862018609E+01  0.26851062394E+01 -0.12418920072E+02  0.15223920428E+02  0.51100000000E-03 0.  1.
        -12    1    4    4    0    0  0.85133438203E+00  0.89991493102E+01 -0.19377180612E+02  0.21381875199E+02  0.00000000000E+00 0.  1.
</event>
<event>
 8    1  0.1262344E-006  0.9118800E+02  0.7816164E-02  0.1184000E+00
        -11   -1    0    0    0    0  0.00000000000E+00  0.00000000000E+00  0.45593999997E+02  0.45594000000E+02  0.51100000000E-03 0.  1.
         11   -1    0    0    0    0 -0.00000000000E+00 -0.00000000000E+00 -0.45593999997E+02  0.45594000000E+02  0.51100000000E-03 0. -1.
         23    2    1    2    0    0  0.17763568394E-14  0.00000000000E+00  0.00000000000E+00  0.91188000000E+02  0.91188000000E+02 0.  0.
    9900012    2    3    3    0    0  0.10596038769E+02  0.24602267057E+02  0.25263278936E+02  0.54367070564E+02  0.39999968965E+02 0.  0.
         12    1    3    3    0    0 -0.10596038769E+02 -0.24602267057E+02 -0.25263278936E+02  0.36820929436E+02  0.00000000000E+00 0. -1.
         11    1    4    4    0    0  0.15879518553E+02  0.12063061662E+02  0.34072985985E+01  0.20230824257E+02  0.51100000000E-03 0. -1.
        -11    1    4    4    0    0 -0.25253595796E+01 -0.31123583470E+01 -0.27381235382E+01  0.48540226882E+01  0.51100000000E-03 0.  1.
        -12    1    4    4    0    0 -0.27581202044E+01  0.15651563742E+02  0.24594103875E+02  0.29282223619E+02  0.00000000000E+00 0.  1.
</event>
<event>
 8    1  0.1262344E-006  0.9118800E+02  0.7816164E-02  0.1184000E+00
        -11   -1    0    0    0    0  0.00000000000E+00  0.00000000000E+00  0.45593999997E+02  0.45594000000E+02  0.51100000000E-03 0. -1.
         11   -1    0    0    0    0 -0.00000000000E+00 -0.00000000000E+00 -0.45593999997E+02  0.45594000000E+02  0.51100000000E-03 0.  1.
         23    2    1    2    0    0  0.17763568394E-14  0.00000000000E+00  0.88817841970E-15  0.91188000000E+02  0.91188000000E+02 0.  0.
    9900012    2    3    3    0    0  0.12170536755E+02  0.34551610835E+02 -0.37207496956E+01  0.54367085366E+02  0.40000002708E+02 0.  0.
        -12    1    3    3    0    0 -0.12170536755E+02 -0.34551610835E+02  0.37207496956E+01  0.36820914634E+02  0.00000000000E+00 0.  1.
         11    1    4    4    0    0  0.80913302425E+01  0.23358420220E+02 -0.18393695860E+02  0.30812553739E+02  0.51100000000E-03 0. -1.
        -11    1    4    4    0    0 -0.26306212461E+01 -0.76775390637E+00 -0.82300435205E+00  0.28612847859E+01  0.51100000000E-03 0.  1.
         12    1    4    4    0    0  0.67098277586E+01  0.11960944521E+02  0.15495950517E+02  0.20693246841E+02  0.00000000000E+00 0. -1.
</event>
<event>
 8    1  0.1262344E-006  0.9118800E+02  0.7816164E-02  0.1184000E+00
        -11   -1    0    0    0    0  0.00000000000E+00  0.00000000000E+00  0.45593999997E+02  0.45594000000E+02  0.51100000000E-03 0.  1.
         11   -1    0    0    0    0 -0.00000000000E+00 -0.00000000000E+00 -0.45593999997E+02  0.45594000000E+02  0.51100000000E-03 0. -1.
         23    2    1    2    0    0  0.00000000000E+00  0.00000000000E+00  0.00000000000E+00  0.91188000000E+02  0.91188000000E+02 0.  0.
    9900012    2    3    3    0    0 -0.19974211618E+02 -0.17498479145E+02  0.25507133473E+02  0.54367085289E+02  0.40000002533E+02 0.  0.
         12    1    3    3    0    0  0.19974211618E+02  0.17498479145E+02 -0.25507133473E+02  0.36820914711E+02  0.00000000000E+00 0. -1.
         11    1    4    4    0    0 -0.87163902805E+01 -0.18758547351E+02  0.29385200026E+02  0.35935338305E+02  0.51100000000E-03 0. -1.
        -11    1    4    4    0    0  0.47513804740E+00 -0.34011675173E+01  0.25377398074E+01  0.42701077546E+01  0.51100000000E-03 0.  1.
         12    1    4    4    0    0 -0.11732959385E+02  0.46612357243E+01 -0.64158063598E+01  0.14161639229E+02  0.00000000000E+00 0. -1.
</event>
<event>
 8    1  0.1262344E-006  0.9118800E+02  0.7816164E-02  0.1184000E+00
        -11   -1    0    0    0    0  0.00000000000E+00  0.00000000000E+00  0.45593999997E+02  0.45594000000E+02  0.51100000000E-03 0.  1.
         11   -1    0    0    0    0 -0.00000000000E+00 -0.00000000000E+00 -0.45593999997E+02  0.45594000000E+02  0.51100000000E-03 0. -1.
         23    2    1    2    0    0  0.00000000000E+00  0.35527136788E-14  0.35527136788E-14  0.91188000000E+02  0.91188000000E+02 0.  0.
    9900012    2    3    3    0    0  0.15895672474E+02  0.15378591796E+02 -0.29438161201E+02  0.54367098003E+02  0.40000031516E+02 0.  0.
        -12    1    3    3    0    0 -0.15895672474E+02 -0.15378591796E+02  0.29438161201E+02  0.36820901997E+02  0.00000000000E+00 0.  1.
         11    1    4    4    0    0 -0.15387678518E+01 -0.20042037319E+01 -0.25043331168E+02  0.25170480236E+02  0.51100000000E-03 0. -1.
        -11    1    4    4    0    0  0.77393147540E+01  0.89652453970E+01  0.54303214062E+01  0.13029236690E+02  0.51100000000E-03 0.  1.
         12    1    4    4    0    0  0.96951255717E+01  0.84175501305E+01 -0.98251514395E+01  0.16167381076E+02  0.00000000000E+00 0. -1.
</event>
<event>
 8    1  0.1262344E-006  0.9118800E+02  0.7816164E-02  0.1184000E+00
        -11   -1    0    0    0    0  0.00000000000E+00  0.00000000000E+00  0.45593999997E+02  0.45594000000E+02  0.51100000000E-03 0. -1.
         11   -1    0    0    0    0 -0.00000000000E+00 -0.00000000000E+00 -0.45593999997E+02  0.45594000000E+02  0.51100000000E-03 0.  1.
         23    2    1    2    0    0  0.53290705182E-14  0.00000000000E+00 -0.71054273576E-14  0.91188000000E+02  0.91188000000E+02 0.  0.
    9900012    2    3    3    0    0 -0.66301665902E+01 -0.91109443574E+01  0.35054418230E+02  0.54367073157E+02  0.39999974877E+02 0.  0.
        -12    1    3    3    0    0  0.66301665902E+01  0.91109443574E+01 -0.35054418230E+02  0.36820926843E+02  0.00000000000E+00 0.  1.
         11    1    4    4    0    0 -0.15827127892E+02  0.19542296658E+01  0.21462627271E+02  0.26738761387E+02  0.51100000000E-03 0. -1.
        -11    1    4    4    0    0  0.11487619413E+02 -0.70803451392E+00  0.12457480369E+02  0.16960410669E+02  0.51100000000E-03 0.  1.
        -12    1    4    4    0    0 -0.22906581119E+01 -0.10357139509E+02  0.11343105912E+01  0.10667901102E+02  0.00000000000E+00 0.  1.
</event>
<event>
 8    1  0.1262344E-006  0.9118800E+02  0.7816164E-02  0.1184000E+00
        -11   -1    0    0    0    0  0.00000000000E+00  0.00000000000E+00  0.45593999997E+02  0.45594000000E+02  0.51100000000E-03 0. -1.
         11   -1    0    0    0    0 -0.00000000000E+00 -0.00000000000E+00 -0.45593999997E+02  0.45594000000E+02  0.51100000000E-03 0.  1.
         23    2    1    2    0    0  0.00000000000E+00  0.00000000000E+00  0.00000000000E+00  0.91188000000E+02  0.91188000000E+02 0.  0.
    9900012    2    3    3    0    0  0.16208599420E+02 -0.28541406323E+02 -0.16686784021E+02  0.54367091117E+02  0.40000015819E+02 0.  0.
         12    1    3    3    0    0 -0.16208599420E+02  0.28541406323E+02  0.16686784021E+02  0.36820908883E+02  0.00000000000E+00 0. -1.
         11    1    4    4    0    0  0.24299465869E+02 -0.30660903807E+02 -0.51742025212E+01  0.39462988176E+02  0.51100000000E-03 0. -1.
        -11    1    4    4    0    0 -0.61317416396E+01 -0.49709780821E+00 -0.81906106842E+01  0.10243606074E+02  0.51100000000E-03 0.  1.
         12    1    4    4    0    0 -0.19591248098E+01  0.26165952923E+01 -0.33219708152E+01  0.46604968663E+01  0.00000000000E+00 0. -1.
</event>
<event>
 8    1  0.1262344E-006  0.9118800E+02  0.7816164E-02  0.1184000E+00
        -11   -1    0    0    0    0  0.00000000000E+00  0.00000000000E+00  0.45593999997E+02  0.45594000000E+02  0.51100000000E-03 0.  1.
         11   -1    0    0    0    0 -0.00000000000E+00 -0.00000000000E+00 -0.45593999997E+02  0.45594000000E+02  0.51100000000E-03 0. -1.
         23    2    1    2    0    0  0.44408920985E-15  0.00000000000E+00  0.00000000000E+00  0.91188000000E+02  0.91188000000E+02 0.  0.
    9900012    2    3    3    0    0  0.15955461074E+01 -0.86811092678E+01 -0.35747325997E+02  0.54367099123E+02  0.40000034070E+02 0.  0.
        -12    1    3    3    0    0 -0.15955461074E+01  0.86811092678E+01  0.35747325997E+02  0.36820900877E+02  0.00000000000E+00 0.  1.
         11    1    4    4    0    0 -0.79030641812E+01 -0.70928339250E+01 -0.87717435785E+00  0.10655334423E+02  0.51100000000E-03 0. -1.
        -11    1    4    4    0    0 -0.74080350595E+01  0.39777423965E+01 -0.90750971749E+01  0.12371693781E+02  0.51100000000E-03 0.  1.
         12    1    4    4    0    0  0.16906645348E+02 -0.55660177393E+01 -0.25795054464E+02  0.31340070919E+02  0.00000000000E+00 0. -1.
</event>
<event>
 8    1  0.1262344E-006  0.9118800E+02  0.7816164E-02  0.1184000E+00
        -11   -1    0    0    0    0  0.00000000000E+00  0.00000000000E+00  0.45593999997E+02  0.45594000000E+02  0.51100000000E-03 0. -1.
         11   -1    0    0    0    0 -0.00000000000E+00 -0.00000000000E+00 -0.45593999997E+02  0.45594000000E+02  0.51100000000E-03 0.  1.
         23    2    1    2    0    0  0.00000000000E+00  0.17763568394E-14  0.00000000000E+00  0.91188000000E+02  0.91188000000E+02 0.  0.
    9900012    2    3    3    0    0 -0.43495992378E+01  0.11411055475E+02  0.34736856080E+02  0.54367076995E+02  0.39999983626E+02 0.  0.
        -12    1    3    3    0    0  0.43495992378E+01 -0.11411055475E+02 -0.34736856080E+02  0.36820923005E+02  0.00000000000E+00 0.  1.
         11    1    4    4    0    0  0.85721370456E+01  0.77874486849E+01  0.70848276223E+01  0.13576474993E+02  0.51100000000E-03 0. -1.
        -11    1    4    4    0    0 -0.67932108004E+01 -0.49532533276E+01  0.28971707170E+02  0.30166906506E+02  0.51100000000E-03 0.  1.
        -12    1    4    4    0    0 -0.61285254830E+01  0.85768601181E+01 -0.13196787126E+01  0.10623695496E+02  0.00000000000E+00 0.  1.
</event>
<event>
 8    1  0.1262344E-006  0.9118800E+02  0.7816164E-02  0.1184000E+00
        -11   -1    0    0    0    0  0.00000000000E+00  0.00000000000E+00  0.45593999997E+02  0.45594000000E+02  0.51100000000E-03 0.  1.
         11   -1    0    0    0    0 -0.00000000000E+00 -0.00000000000E+00 -0.45593999997E+02  0.45594000000E+02  0.51100000000E-03 0. -1.
         23    2    1    2    0    0 -0.35527136788E-14  0.35527136788E-14  0.00000000000E+00  0.91188000000E+02  0.91188000000E+02 0.  0.
    9900012    2    3    3    0    0 -0.20033503309E+02  0.52564047960E+01 -0.30443576206E+02  0.54367049735E+02  0.39999921481E+02 0.  0.
        -12    1    3    3    0    0  0.20033503309E+02 -0.52564047960E+01  0.30443576206E+02  0.36820950265E+02  0.00000000000E+00 0.  1.
         11    1    4    4    0    0 -0.95988333077E+00 -0.47151316829E+01 -0.72141160170E+01  0.86716384244E+01  0.51100000000E-03 0. -1.
        -11    1    4    4    0    0 -0.10551328510E+02 -0.10475908166E+02 -0.17202792810E+02  0.22737881738E+02  0.51100000000E-03 0.  1.
         12    1    4    4    0    0 -0.85222914685E+01  0.20447444645E+02 -0.60266673791E+01  0.22957529572E+02  0.00000000000E+00 0. -1.
</event>
<event>
 8    1  0.1262344E-006  0.9118800E+02  0.7816164E-02  0.1184000E+00
        -11   -1    0    0    0    0  0.00000000000E+00  0.00000000000E+00  0.45593999997E+02  0.45594000000E+02  0.51100000000E-03 0.  1.
         11   -1    0    0    0    0 -0.00000000000E+00 -0.00000000000E+00 -0.45593999997E+02  0.45594000000E+02  0.51100000000E-03 0. -1.
         23    2    1    2    0    0  0.00000000000E+00  0.44408920985E-15  0.00000000000E+00  0.91188000000E+02  0.91188000000E+02 0.  0.
    9900012    2    3    3    0    0  0.16244452453E+02 -0.31912938558E+01  0.32889355482E+02  0.54367132329E+02  0.40000109771E+02 0.  0.
         12    1    3    3    0    0 -0.16244452453E+02  0.31912938558E+01 -0.32889355482E+02  0.36820867671E+02  0.00000000000E+00 0. -1.
         11    1    4    4    0    0  0.34068417208E+01  0.23549670903E+01 -0.12693649989E+01  0.43317119327E+01  0.51100000000E-03 0. -1.
        -11    1    4    4    0    0  0.20025368684E+02 -0.10037145955E+02  0.34961755520E+02  0.41522090977E+02  0.51100000000E-03 0.  1.
        -12    1    4    4    0    0 -0.71877579512E+01  0.44908850086E+01 -0.80303503841E+00  0.85133294191E+01  0.00000000000E+00 0.  1.
</event>
<event>
 8    1  0.1262344E-006  0.9118800E+02  0.7816164E-02  0.1184000E+00
        -11   -1    0    0    0    0  0.00000000000E+00  0.00000000000E+00  0.45593999997E+02  0.45594000000E+02  0.51100000000E-03 0.  1.
         11   -1    0    0    0    0 -0.00000000000E+00 -0.00000000000E+00 -0.45593999997E+02  0.45594000000E+02  0.51100000000E-03 0. -1.
         23    2    1    2    0    0  0.00000000000E+00  0.00000000000E+00  0.00000000000E+00  0.91188000000E+02  0.91188000000E+02 0.  0.
    9900012    2    3    3    0    0 -0.35954825008E+02  0.24036743891E+01  0.75664167910E+01  0.54367112518E+02  0.40000064606E+02 0.  0.
         12    1    3    3    0    0  0.35954825008E+02 -0.24036743891E+01 -0.75664167910E+01  0.36820887482E+02  0.00000000000E+00 0. -1.
         11    1    4    4    0    0 -0.23646950259E+02  0.64645861716E+01  0.50066531673E+01  0.25020705568E+02  0.51100000000E-03 0.  1.
        -11    1    4    4    0    0  0.25253473561E+01 -0.55607187282E+01  0.10729475784E+02  0.12345874732E+02  0.51100000000E-03 0. -1.
         12    1    4    4    0    0 -0.14833222105E+02  0.14998069457E+01 -0.81697121601E+01  0.17000532217E+02  0.00000000000E+00 0. -1.
</event>
<event>
 8    1  0.1262344E-006  0.9118800E+02  0.7816164E-02  0.1184000E+00
        -11   -1    0    0    0    0  0.00000000000E+00  0.00000000000E+00  0.45593999997E+02  0.45594000000E+02  0.51100000000E-03 0.  1.
         11   -1    0    0    0    0 -0.00000000000E+00 -0.00000000000E+00 -0.45593999997E+02  0.45594000000E+02  0.51100000000E-03 0. -1.
         23    2    1    2    0    0 -0.71054273576E-14 -0.35527136788E-14 -0.35527136788E-14  0.91188000000E+02  0.91188000000E+02 0.  0.
    9900012    2    3    3    0    0 -0.28269383713E+02 -0.13949297106E+02 -0.19027319936E+02  0.54367084080E+02  0.39999999776E+02 0.  0.
        -12    1    3    3    0    0  0.28269383713E+02  0.13949297106E+02  0.19027319936E+02  0.36820915920E+02  0.00000000000E+00 0.  1.
         11    1    4    4    0    0 -0.96844530081E+01 -0.10446739401E+02  0.83476886198E+01  0.16510811601E+02  0.51100000000E-03 0. -1.
        -11    1    4    4    0    0 -0.59457263609E+01 -0.99849231403E+01 -0.94046226512E+01  0.14949825402E+02  0.51100000000E-03 0.  1.
         12    1    4    4    0    0 -0.12639204344E+02  0.64823654356E+01 -0.17970385905E+02  0.22906447076E+02  0.00000000000E+00 0. -1.
</event>
<event>
 8    1  0.1262344E-006  0.9118800E+02  0.7816164E-02  0.1184000E+00
        -11   -1    0    0    0    0  0.00000000000E+00  0.00000000000E+00  0.45593999997E+02  0.45594000000E+02  0.51100000000E-03 0.  1.
         11   -1    0    0    0    0 -0.00000000000E+00 -0.00000000000E+00 -0.45593999997E+02  0.45594000000E+02  0.51100000000E-03 0. -1.
         23    2    1    2    0    0  0.17763568394E-14  0.00000000000E+00 -0.71054273576E-14  0.91188000000E+02  0.91188000000E+02 0.  0.
    9900012    2    3    3    0    0  0.15592012644E+02  0.56055381010E+01 -0.32882349632E+02  0.54367057141E+02  0.39999938365E+02 0.  0.
        -12    1    3    3    0    0 -0.15592012644E+02 -0.56055381010E+01  0.32882349632E+02  0.36820942859E+02  0.00000000000E+00 0.  1.
         11    1    4    4    0    0  0.32975559903E+01 -0.80110242939E+01 -0.15735214988E+02  0.17962387835E+02  0.51100000000E-03 0. -1.
        -11    1    4    4    0    0  0.18636792298E+02  0.46565489373E+01 -0.46378174833E+01  0.19761650397E+02  0.51100000000E-03 0.  1.
        -12    1    4    4    0    0 -0.63423356439E+01  0.89600134576E+01 -0.12509317160E+02  0.16643018909E+02  0.00000000000E+00 0.  1.
</event>
<event>
 8    1  0.1262344E-006  0.9118800E+02  0.7816164E-02  0.1184000E+00
        -11   -1    0    0    0    0  0.00000000000E+00  0.00000000000E+00  0.45593999997E+02  0.45594000000E+02  0.51100000000E-03 0.  1.
         11   -1    0    0    0    0 -0.00000000000E+00 -0.00000000000E+00 -0.45593999997E+02  0.45594000000E+02  0.51100000000E-03 0. -1.
         23    2    1    2    0    0  0.00000000000E+00 -0.88817841970E-15  0.35527136788E-14  0.91188000000E+02  0.91188000000E+02 0.  0.
    9900012    2    3    3    0    0  0.23489788218E+02 -0.30541665895E+01  0.28190122563E+02  0.54367067174E+02  0.39999961236E+02 0.  0.
         12    1    3    3    0    0 -0.23489788218E+02  0.30541665895E+01 -0.28190122563E+02  0.36820932826E+02  0.00000000000E+00 0. -1.
         11    1    4    4    0    0  0.29131964727E+01  0.88115895562E+01 -0.16493196917E+01  0.94260850783E+01  0.51100000000E-03 0. -1.
        -11    1    4    4    0    0  0.20781325719E+02 -0.11890851879E+00  0.24231809605E+02  0.31922691536E+02  0.51100000000E-03 0.  1.
         12    1    4    4    0    0 -0.20473397348E+00 -0.11746847627E+02  0.56076326493E+01  0.13018290560E+02  0.00000000000E+00 0. -1.
</event>
<event>
 8    1  0.1262344E-006  0.9118800E+02  0.7816164E-02  0.1184000E+00
        -11   -1    0    0    0    0  0.00000000000E+00  0.00000000000E+00  0.45593999997E+02  0.45594000000E+02  0.51100000000E-03 0.  1.
         11   -1    0    0    0    0 -0.00000000000E+00 -0.00000000000E+00 -0.45593999997E+02  0.45594000000E+02  0.51100000000E-03 0. -1.
         23    2    1    2    0    0  0.35527136788E-14  0.00000000000E+00  0.66613381478E-15  0.91188000000E+02  0.91188000000E+02 0.  0.
    9900012    2    3    3    0    0 -0.30932790127E+02  0.19938121793E+02  0.11874403183E+01  0.54367133359E+02  0.40000112119E+02 0.  0.
         12    1    3    3    0    0  0.30932790127E+02 -0.19938121793E+02 -0.11874403183E+01  0.36820866641E+02  0.00000000000E+00 0. -1.
         11    1    4    4    0    0  0.21478141117E+01  0.38215129805E+01 -0.10172695373E+02  0.11077039241E+02  0.51100000000E-03 0. -1.
        -11    1    4    4    0    0 -0.25689841320E+02  0.22818491876E+01  0.95436547092E+01  0.27500111422E+02  0.51100000000E-03 0.  1.
        -12    1    4    4    0    0 -0.73907629189E+01  0.13834759625E+02  0.18164809826E+01  0.15789982697E+02  0.00000000000E+00 0.  1.
</event>
<event>
 8    1  0.1262344E-006  0.9118800E+02  0.7816164E-02  0.1184000E+00
        -11   -1    0    0    0    0  0.00000000000E+00  0.00000000000E+00  0.45593999997E+02  0.45594000000E+02  0.51100000000E-03 0.  1.
         11   -1    0    0    0    0 -0.00000000000E+00 -0.00000000000E+00 -0.45593999997E+02  0.45594000000E+02  0.51100000000E-03 0. -1.
         23    2    1    2    0    0  0.88817841970E-15 -0.35527136788E-14  0.00000000000E+00  0.91188000000E+02  0.91188000000E+02 0.  0.
    9900012    2    3    3    0    0 -0.62319010258E+01  0.17362825802E+02 -0.31866510987E+02  0.54367097883E+02  0.40000031244E+02 0.  0.
        -12    1    3    3    0    0  0.62319010258E+01 -0.17362825802E+02  0.31866510987E+02  0.36820902117E+02  0.00000000000E+00 0.  1.
         11    1    4    4    0    0 -0.10904405597E+02  0.24680540609E+02 -0.17098634906E+02  0.31943676402E+02  0.51100000000E-03 0. -1.
        -11    1    4    4    0    0  0.15847762945E+01 -0.89106075932E+01 -0.16286027442E+02  0.18631831195E+02  0.51100000000E-03 0.  1.
        -12    1    4    4    0    0  0.30877282765E+01  0.15928927868E+01  0.15181513613E+01  0.37915902858E+01  0.00000000000E+00 0.  1.
</event>
<event>
 8    1  0.1262344E-006  0.9118800E+02  0.7816164E-02  0.1184000E+00
        -11   -1    0    0    0    0  0.00000000000E+00  0.00000000000E+00  0.45593999997E+02  0.45594000000E+02  0.51100000000E-03 0.  1.
         11   -1    0    0    0    0 -0.00000000000E+00 -0.00000000000E+00 -0.45593999997E+02  0.45594000000E+02  0.51100000000E-03 0. -1.
         23    2    1    2    0    0  0.71054273576E-14  0.00000000000E+00 -0.39968028887E-14  0.91188000000E+02  0.91188000000E+02 0.  0.
    9900012    2    3    3    0    0  0.32502654957E+02 -0.17174447348E+02  0.20956176837E+01  0.54367138597E+02  0.40000124060E+02 0.  0.
         12    1    3    3    0    0 -0.32502654957E+02  0.17174447348E+02 -0.20956176837E+01  0.36820861403E+02  0.00000000000E+00 0. -1.
         11    1    4    4    0    0  0.99041255360E+01 -0.33448477811E+01 -0.11427302587E+02  0.15487509612E+02  0.51100000000E-03 0. -1.
        -11    1    4    4    0    0  0.27632928142E+02 -0.89298559565E+01  0.13053291916E+02  0.31838804551E+02  0.51100000000E-03 0.  1.
        -12    1    4    4    0    0 -0.50343987209E+01 -0.48997436104E+01  0.46962835431E+00  0.70408244347E+01  0.00000000000E+00 0.  1.
</event>
<event>
 8    1  0.1262344E-006  0.9118800E+02  0.7816164E-02  0.1184000E+00
        -11   -1    0    0    0    0  0.00000000000E+00  0.00000000000E+00  0.45593999997E+02  0.45594000000E+02  0.51100000000E-03 0. -1.
         11   -1    0    0    0    0 -0.00000000000E+00 -0.00000000000E+00 -0.45593999997E+02  0.45594000000E+02  0.51100000000E-03 0.  1.
         23    2    1    2    0    0 -0.88817841970E-15  0.00000000000E+00 -0.11102230246E-15  0.91188000000E+02  0.91188000000E+02 0.  0.
    9900012    2    3    3    0    0 -0.63613580764E+01 -0.36259959126E+02  0.72787759393E+00  0.54367064132E+02  0.39999954302E+02 0.  0.
        -12    1    3    3    0    0  0.63613580764E+01  0.36259959126E+02 -0.72787759393E+00  0.36820935868E+02  0.00000000000E+00 0.  1.
         11    1    4    4    0    0  0.11912585934E+02 -0.19806279938E+02 -0.25928571848E+01  0.23257715650E+02  0.51100000000E-03 0. -1.
        -11    1    4    4    0    0 -0.17772067835E+02 -0.20338439937E+02  0.30918305393E+01  0.27185620290E+02  0.51100000000E-03 0.  1.
         12    1    4    4    0    0 -0.50187617622E+00  0.38847607491E+01  0.22890423947E+00  0.39237281920E+01  0.00000000000E+00 0. -1.
</event>
<event>
 8    1  0.1262344E-006  0.9118800E+02  0.7816164E-02  0.1184000E+00
        -11   -1    0    0    0    0  0.00000000000E+00  0.00000000000E+00  0.45593999997E+02  0.45594000000E+02  0.51100000000E-03 0. -1.
         11   -1    0    0    0    0 -0.00000000000E+00 -0.00000000000E+00 -0.45593999997E+02  0.45594000000E+02  0.51100000000E-03 0.  1.
         23    2    1    2    0    0  0.00000000000E+00  0.00000000000E+00 -0.36082248300E-15  0.91188000000E+02  0.91188000000E+02 0.  0.
    9900012    2    3    3    0    0 -0.24423055664E+02  0.27554847848E+02 -0.15658848784E+00  0.54367084641E+02  0.40000001057E+02 0.  0.
        -12    1    3    3    0    0  0.24423055664E+02 -0.27554847848E+02  0.15658848784E+00  0.36820915359E+02  0.00000000000E+00 0.  1.
         11    1    4    4    0    0 -0.13630870820E+02  0.15241740780E+02  0.19492014832E+02  0.28249777766E+02  0.51100000000E-03 0. -1.
        -11    1    4    4    0    0 -0.65257963955E+01  0.10698140918E+02 -0.13022139336E+02  0.18072419618E+02  0.51100000000E-03 0.  1.
         12    1    4    4    0    0 -0.42663884483E+01  0.16149661499E+01 -0.66264639838E+01  0.80448872575E+01  0.00000000000E+00 0. -1.
</event>
<event>
 8    1  0.1262344E-006  0.9118800E+02  0.7816164E-02  0.1184000E+00
        -11   -1    0    0    0    0  0.00000000000E+00  0.00000000000E+00  0.45593999997E+02  0.45594000000E+02  0.51100000000E-03 0.  1.
         11   -1    0    0    0    0 -0.00000000000E+00 -0.00000000000E+00 -0.45593999997E+02  0.45594000000E+02  0.51100000000E-03 0. -1.
         23    2    1    2    0    0 -0.35527136788E-14 -0.19984014443E-14 -0.35527136788E-14  0.91188000000E+02  0.91188000000E+02 0.  0.
    9900012    2    3    3    0    0  0.30128697163E+02 -0.12267611006E+01 -0.21131393116E+02  0.54367094110E+02  0.40000022643E+02 0.  0.
        -12    1    3    3    0    0 -0.30128697163E+02  0.12267611006E+01  0.21131393116E+02  0.36820905890E+02  0.00000000000E+00 0.  1.
         11    1    4    4    0    0  0.15538243959E+02  0.29144902779E+01 -0.32471483788E+00  0.15812549412E+02  0.51100000000E-03 0. -1.
        -11    1    4    4    0    0  0.10034055723E+01  0.10852500626E+02 -0.23115516205E+01  0.11141223619E+02  0.51100000000E-03 0.  1.
         12    1    4    4    0    0  0.13587047632E+02 -0.14993752004E+02 -0.18495126658E+02  0.27413321079E+02  0.00000000000E+00 0. -1.
</event>
<event>
 8    1  0.1262344E-006  0.9118800E+02  0.7816164E-02  0.1184000E+00
        -11   -1    0    0    0    0  0.00000000000E+00  0.00000000000E+00  0.45593999997E+02  0.45594000000E+02  0.51100000000E-03 0. -1.
         11   -1    0    0    0    0 -0.00000000000E+00 -0.00000000000E+00 -0.45593999997E+02  0.45594000000E+02  0.51100000000E-03 0.  1.
         23    2    1    2    0    0  0.00000000000E+00 -0.88817841970E-15 -0.35527136788E-14  0.91188000000E+02  0.91188000000E+02 0.  0.
    9900012    2    3    3    0    0 -0.20589291576E+02  0.55515886754E+01  0.30017345701E+02  0.54367080574E+02  0.39999991785E+02 0.  0.
        -12    1    3    3    0    0  0.20589291576E+02 -0.55515886754E+01 -0.30017345701E+02  0.36820919426E+02  0.00000000000E+00 0.  1.
         11    1    4    4    0    0  0.37892901770E+01  0.87891444851E+01  0.17302427861E+02  0.19773259493E+02  0.51100000000E-03 0. -1.
        -11    1    4    4    0    0 -0.17997391744E+02  0.54572485635E+01  0.12420996137E+01  0.18847559078E+02  0.51100000000E-03 0.  1.
        -12    1    4    4    0    0 -0.63811900087E+01 -0.86948043732E+01  0.11472818227E+02  0.15746262003E+02  0.00000000000E+00 0.  1.
</event>
<event>
 8    1  0.1262344E-006  0.9118800E+02  0.7816164E-02  0.1184000E+00
        -11   -1    0    0    0    0  0.00000000000E+00  0.00000000000E+00  0.45593999997E+02  0.45594000000E+02  0.51100000000E-03 0.  1.
         11   -1    0    0    0    0 -0.00000000000E+00 -0.00000000000E+00 -0.45593999997E+02  0.45594000000E+02  0.51100000000E-03 0. -1.
         23    2    1    2    0    0  0.00000000000E+00  0.00000000000E+00 -0.17763568394E-14  0.91188000000E+02  0.91188000000E+02 0.  0.
    9900012    2    3    3    0    0 -0.16061999373E+02 -0.32049487387E+02 -0.84037414615E+01  0.54367077467E+02  0.39999984701E+02 0.  0.
         12    1    3    3    0    0  0.16061999373E+02  0.32049487387E+02  0.84037414615E+01  0.36820922533E+02  0.00000000000E+00 0. -1.
         11    1    4    4    0    0  0.57080959219E+01 -0.21891911073E+01  0.40928552699E+00  0.61271879081E+01  0.51100000000E-03 0. -1.
        -11    1    4    4    0    0  0.99911235240E+00 -0.95018436089E+01  0.87937125115E+01  0.12985092894E+02  0.51100000000E-03 0.  1.
         12    1    4    4    0    0 -0.22769207648E+02 -0.20358452671E+02 -0.17606739500E+02  0.35254796665E+02  0.00000000000E+00 0. -1.
</event>
<event>
 8    1  0.1262344E-006  0.9118800E+02  0.7816164E-02  0.1184000E+00
        -11   -1    0    0    0    0  0.00000000000E+00  0.00000000000E+00  0.45593999997E+02  0.45594000000E+02  0.51100000000E-03 0.  1.
         11   -1    0    0    0    0 -0.00000000000E+00 -0.00000000000E+00 -0.45593999997E+02  0.45594000000E+02  0.51100000000E-03 0. -1.
         23    2    1    2    0    0  0.35527136788E-14  0.35527136788E-14  0.00000000000E+00  0.91188000000E+02  0.91188000000E+02 0.  0.
    9900012    2    3    3    0    0 -0.16899213037E+02 -0.30719484807E+02  0.11247333459E+02  0.54367181731E+02  0.40000222391E+02 0.  0.
         12    1    3    3    0    0  0.16899213037E+02  0.30719484807E+02 -0.11247333459E+02  0.36820818269E+02  0.00000000000E+00 0. -1.
         11    1    4    4    0    0  0.86341361453E+01 -0.12644475878E+02 -0.32414667363E+01  0.15650501080E+02  0.51100000000E-03 0. -1.
        -11    1    4    4    0    0 -0.27675434624E+02 -0.18771756844E+02  0.12465627111E+02  0.35688939409E+02  0.51100000000E-03 0.  1.
         12    1    4    4    0    0  0.21420854416E+01  0.69674791452E+00  0.20231730845E+01  0.30277412414E+01  0.00000000000E+00 0. -1.
</event>
<event>
 8    1  0.1262344E-006  0.9118800E+02  0.7816164E-02  0.1184000E+00
        -11   -1    0    0    0    0  0.00000000000E+00  0.00000000000E+00  0.45593999997E+02  0.45594000000E+02  0.51100000000E-03 0.  1.
         11   -1    0    0    0    0 -0.00000000000E+00 -0.00000000000E+00 -0.45593999997E+02  0.45594000000E+02  0.51100000000E-03 0. -1.
         23    2    1    2    0    0  0.00000000000E+00  0.00000000000E+00  0.35527136788E-14  0.91188000000E+02  0.91188000000E+02 0.  0.
    9900012    2    3    3    0    0  0.21671622962E+02  0.21406952180E+02 -0.20684743918E+02  0.54367143486E+02  0.40000135206E+02 0.  0.
        -12    1    3    3    0    0 -0.21671622962E+02 -0.21406952180E+02  0.20684743918E+02  0.36820856514E+02  0.00000000000E+00 0.  1.
         11    1    4    4    0    0  0.14388919829E+02  0.13516420440E+02 -0.32523257108E+02  0.38045983869E+02  0.51100000000E-03 0. -1.
        -11    1    4    4    0    0  0.26211634171E+01  0.13491613215E+01  0.48423159855E+01  0.56691055992E+01  0.51100000000E-03 0.  1.
         12    1    4    4    0    0  0.46615397153E+01  0.65413704185E+01  0.69961972052E+01  0.10652054018E+02  0.00000000000E+00 0. -1.
</event>
<event>
 8    1  0.1262344E-006  0.9118800E+02  0.7816164E-02  0.1184000E+00
        -11   -1    0    0    0    0  0.00000000000E+00  0.00000000000E+00  0.45593999997E+02  0.45594000000E+02  0.51100000000E-03 0. -1.
         11   -1    0    0    0    0 -0.00000000000E+00 -0.00000000000E+00 -0.45593999997E+02  0.45594000000E+02  0.51100000000E-03 0.  1.
         23    2    1    2    0    0 -0.71054273576E-14  0.00000000000E+00  0.00000000000E+00  0.91188000000E+02  0.91188000000E+02 0.  0.
    9900012    2    3    3    0    0  0.27509826455E+02  0.23001829817E+02 -0.83609272096E+01  0.54367084336E+02  0.40000000361E+02 0.  0.
        -12    1    3    3    0    0 -0.27509826455E+02 -0.23001829817E+02  0.83609272096E+01  0.36820915664E+02  0.00000000000E+00 0.  1.
         11    1    4    4    0    0 -0.55728774549E-01  0.12605069757E+02  0.13615936448E+01  0.12678518320E+02  0.51100000000E-03 0. -1.
        -11    1    4    4    0    0  0.99190986016E+01  0.45468681766E+00  0.95163080640E+01  0.13753376916E+02  0.51100000000E-03 0.  1.
         12    1    4    4    0    0  0.17646456628E+02  0.99420732423E+01 -0.19238828918E+02  0.27935189100E+02  0.00000000000E+00 0. -1.
</event>
<event>
 8    1  0.1262344E-006  0.9118800E+02  0.7816164E-02  0.1184000E+00
        -11   -1    0    0    0    0  0.00000000000E+00  0.00000000000E+00  0.45593999997E+02  0.45594000000E+02  0.51100000000E-03 0. -1.
         11   -1    0    0    0    0 -0.00000000000E+00 -0.00000000000E+00 -0.45593999997E+02  0.45594000000E+02  0.51100000000E-03 0.  1.
         23    2    1    2    0    0  0.00000000000E+00  0.00000000000E+00  0.00000000000E+00  0.91188000000E+02  0.91188000000E+02 0.  0.
    9900012    2    3    3    0    0  0.23357614324E+02  0.28416443971E+02 -0.16453912555E+01  0.54367085464E+02  0.40000002933E+02 0.  0.
        -12    1    3    3    0    0 -0.23357614324E+02 -0.28416443971E+02  0.16453912555E+01  0.36820914536E+02  0.00000000000E+00 0.  1.
         11    1    4    4    0    0 -0.55494552686E+01  0.60222476045E-01  0.12763159830E+00  0.55512494639E+01  0.51100000000E-03 0. -1.
        -11    1    4    4    0    0  0.24334074221E+02  0.49056548878E+01 -0.21887129506E+01  0.24919933441E+02  0.51100000000E-03 0.  1.
         12    1    4    4    0    0  0.45729953711E+01  0.23450566607E+02  0.41569009688E+00  0.23895902559E+02  0.00000000000E+00 0. -1.
</event>
<event>
 8    1  0.1262344E-006  0.9118800E+02  0.7816164E-02  0.1184000E+00
        -11   -1    0    0    0    0  0.00000000000E+00  0.00000000000E+00  0.45593999997E+02  0.45594000000E+02  0.51100000000E-03 0.  1.
         11   -1    0    0    0    0 -0.00000000000E+00 -0.00000000000E+00 -0.45593999997E+02  0.45594000000E+02  0.51100000000E-03 0. -1.
         23    2    1    2    0    0  0.00000000000E+00 -0.88817841970E-15  0.00000000000E+00  0.91188000000E+02  0.91188000000E+02 0.  0.
    9900012    2    3    3    0    0  0.11399127733E+02  0.57662089731E+01  0.34533906852E+02  0.54367082012E+02  0.39999995064E+02 0.  0.
         12    1    3    3    0    0 -0.11399127733E+02 -0.57662089731E+01 -0.34533906852E+02  0.36820917988E+02  0.00000000000E+00 0. -1.
         11    1    4    4    0    0  0.34660202678E+01 -0.30499808863E+01  0.25922147692E+01  0.52948331016E+01  0.51100000000E-03 0. -1.
        -11    1    4    4    0    0  0.18885073864E+02  0.13546614411E+02  0.28255310085E+02  0.36585780368E+02  0.51100000000E-03 0.  1.
         12    1    4    4    0    0 -0.10951966399E+02 -0.47304245521E+01  0.36863819980E+01  0.12486468543E+02  0.00000000000E+00 0. -1.
</event>
<event>
 8    1  0.1262344E-006  0.9118800E+02  0.7816164E-02  0.1184000E+00
        -11   -1    0    0    0    0  0.00000000000E+00  0.00000000000E+00  0.45593999997E+02  0.45594000000E+02  0.51100000000E-03 0.  1.
         11   -1    0    0    0    0 -0.00000000000E+00 -0.00000000000E+00 -0.45593999997E+02  0.45594000000E+02  0.51100000000E-03 0. -1.
         23    2    1    2    0    0  0.71054273576E-14  0.88817841970E-15  0.00000000000E+00  0.91188000000E+02  0.91188000000E+02 0.  0.
    9900012    2    3    3    0    0 -0.32141001831E+02  0.54461130127E+01  0.17119455014E+02  0.54367083585E+02  0.39999998649E+02 0.  0.
         12    1    3    3    0    0  0.32141001831E+02 -0.54461130127E+01 -0.17119455014E+02  0.36820916415E+02  0.00000000000E+00 0. -1.
         11    1    4    4    0    0 -0.31878692642E+00  0.43308260355E+01 -0.34859935393E+01  0.55686470953E+01  0.51100000000E-03 0. -1.
        -11    1    4    4    0    0 -0.60352007672E+01  0.14101522227E+02  0.63942297936E+01  0.16618145274E+02  0.51100000000E-03 0.  1.
        -12    1    4    4    0    0 -0.25787014138E+02 -0.12986235250E+02  0.14211218760E+02  0.32180291216E+02  0.00000000000E+00 0.  1.
</event>
<event>
 8    1  0.1262344E-006  0.9118800E+02  0.7816164E-02  0.1184000E+00
        -11   -1    0    0    0    0  0.00000000000E+00  0.00000000000E+00  0.45593999997E+02  0.45594000000E+02  0.51100000000E-03 0.  1.
         11   -1    0    0    0    0 -0.00000000000E+00 -0.00000000000E+00 -0.45593999997E+02  0.45594000000E+02  0.51100000000E-03 0. -1.
         23    2    1    2    0    0  0.17763568394E-14  0.00000000000E+00  0.88817841970E-15  0.91188000000E+02  0.91188000000E+02 0.  0.
    9900012    2    3    3    0    0  0.66050939171E+01  0.35804332338E+02  0.54956735671E+01  0.54367083284E+02  0.39999997963E+02 0.  0.
         12    1    3    3    0    0 -0.66050939171E+01 -0.35804332338E+02 -0.54956735671E+01  0.36820916716E+02  0.00000000000E+00 0. -1.
         11    1    4    4    0    0 -0.59118196019E+01 -0.32179616074E+01  0.92189126756E+01  0.11414606392E+02  0.51100000000E-03 0. -1.
        -11    1    4    4    0    0 -0.18971058255E+01  0.30039007881E+01 -0.20914726221E+01  0.41227040214E+01  0.51100000000E-03 0.  1.
        -12    1    4    4    0    0  0.14414019344E+02  0.36018393157E+02 -0.16317664864E+01  0.38829772870E+02  0.00000000000E+00 0.  1.
</event>
<event>
 8    1  0.1262344E-006  0.9118800E+02  0.7816164E-02  0.1184000E+00
        -11   -1    0    0    0    0  0.00000000000E+00  0.00000000000E+00  0.45593999997E+02  0.45594000000E+02  0.51100000000E-03 0.  1.
         11   -1    0    0    0    0 -0.00000000000E+00 -0.00000000000E+00 -0.45593999997E+02  0.45594000000E+02  0.51100000000E-03 0. -1.
         23    2    1    2    0    0  0.00000000000E+00  0.88817841970E-15  0.00000000000E+00  0.91188000000E+02  0.91188000000E+02 0.  0.
    9900012    2    3    3    0    0 -0.14406159324E+02  0.58495706056E+01 -0.33377022140E+02  0.54367075111E+02  0.39999979331E+02 0.  0.
        -12    1    3    3    0    0  0.14406159324E+02 -0.58495706056E+01  0.33377022140E+02  0.36820924889E+02  0.00000000000E+00 0.  1.
         11    1    4    4    0    0 -0.34352422094E+01 -0.69887629433E+01 -0.17718313630E+02  0.19354129654E+02  0.51100000000E-03 0. -1.
        -11    1    4    4    0    0  0.15559983998E+01 -0.73032454433E+01 -0.51441275233E+01  0.90675560799E+01  0.51100000000E-03 0.  1.
         12    1    4    4    0    0 -0.12526915514E+02  0.20141578992E+02 -0.10514580986E+02  0.25945389377E+02  0.00000000000E+00 0. -1.
</event>
<event>
 8    1  0.1262344E-006  0.9118800E+02  0.7816164E-02  0.1184000E+00
        -11   -1    0    0    0    0  0.00000000000E+00  0.00000000000E+00  0.45593999997E+02  0.45594000000E+02  0.51100000000E-03 0. -1.
         11   -1    0    0    0    0 -0.00000000000E+00 -0.00000000000E+00 -0.45593999997E+02  0.45594000000E+02  0.51100000000E-03 0.  1.
         23    2    1    2    0    0  0.00000000000E+00  0.00000000000E+00  0.35527136788E-14  0.91188000000E+02  0.91188000000E+02 0.  0.
    9900012    2    3    3    0    0 -0.17176754419E+02  0.63150597609E+01 -0.31950873753E+02  0.54367092818E+02  0.40000019697E+02 0.  0.
         12    1    3    3    0    0  0.17176754419E+02 -0.63150597609E+01  0.31950873753E+02  0.36820907182E+02  0.00000000000E+00 0. -1.
         11    1    4    4    0    0  0.66294297318E+01  0.27496641230E+01 -0.65344904996E+01  0.97061608120E+01  0.51100000000E-03 0. -1.
        -11    1    4    4    0    0  0.16758437005E+01  0.36480523752E+01 -0.17533667701E+02  0.17987391183E+02  0.51100000000E-03 0.  1.
         12    1    4    4    0    0 -0.25482027851E+02 -0.82656737269E-01 -0.78827155517E+01  0.26673540823E+02  0.00000000000E+00 0. -1.
</event>
<event>
 8    1  0.1262344E-006  0.9118800E+02  0.7816164E-02  0.1184000E+00
        -11   -1    0    0    0    0  0.00000000000E+00  0.00000000000E+00  0.45593999997E+02  0.45594000000E+02  0.51100000000E-03 0.  1.
         11   -1    0    0    0    0 -0.00000000000E+00 -0.00000000000E+00 -0.45593999997E+02  0.45594000000E+02  0.51100000000E-03 0. -1.
         23    2    1    2    0    0  0.55511151231E-15  0.35527136788E-14  0.35527136788E-14  0.91188000000E+02  0.91188000000E+02 0.  0.
    9900012    2    3    3    0    0 -0.63491639072E+00  0.31678634940E+02 -0.18757418409E+02  0.54367085076E+02  0.40000002048E+02 0.  0.
        -12    1    3    3    0    0  0.63491639072E+00 -0.31678634940E+02  0.18757418409E+02  0.36820914924E+02  0.00000000000E+00 0.  1.
         11    1    4    4    0    0  0.12532773601E+02  0.15576302173E+02 -0.10816664260E+02  0.22730856330E+02  0.51100000000E-03 0. -1.
        -11    1    4    4    0    0 -0.19014899472E+01  0.36870373586E+01  0.76754514954E+01  0.87248188762E+01  0.51100000000E-03 0.  1.
        -12    1    4    4    0    0 -0.11266200044E+02  0.12415295408E+02 -0.15616205644E+02  0.22911409870E+02  0.00000000000E+00 0.  1.
</event>
<event>
 8    1  0.1262344E-006  0.9118800E+02  0.7816164E-02  0.1184000E+00
        -11   -1    0    0    0    0  0.00000000000E+00  0.00000000000E+00  0.45593999997E+02  0.45594000000E+02  0.51100000000E-03 0. -1.
         11   -1    0    0    0    0 -0.00000000000E+00 -0.00000000000E+00 -0.45593999997E+02  0.45594000000E+02  0.51100000000E-03 0.  1.
         23    2    1    2    0    0  0.00000000000E+00 -0.44408920985E-15  0.71054273576E-14  0.91188000000E+02  0.91188000000E+02 0.  0.
    9900012    2    3    3    0    0  0.73171379312E+01 -0.25581829391E+01 -0.35995751347E+02  0.54367096664E+02  0.40000028465E+02 0.  0.
         12    1    3    3    0    0 -0.73171379312E+01  0.25581829391E+01  0.35995751347E+02  0.36820903336E+02  0.00000000000E+00 0. -1.
         11    1    4    4    0    0 -0.53447577953E+01 -0.26658120828E+00 -0.34927591970E+01  0.63903731112E+01  0.51100000000E-03 0. -1.
        -11    1    4    4    0    0  0.45231413953E+01  0.14432503723E+02 -0.21752732502E+02  0.26494100161E+02  0.51100000000E-03 0.  1.
         12    1    4    4    0    0  0.81387543312E+01 -0.16724105453E+02 -0.10750259648E+02  0.21482623391E+02  0.00000000000E+00 0. -1.
</event>
<event>
 8    1  0.1262344E-006  0.9118800E+02  0.7816164E-02  0.1184000E+00
        -11   -1    0    0    0    0  0.00000000000E+00  0.00000000000E+00  0.45593999997E+02  0.45594000000E+02  0.51100000000E-03 0. -1.
         11   -1    0    0    0    0 -0.00000000000E+00 -0.00000000000E+00 -0.45593999997E+02  0.45594000000E+02  0.51100000000E-03 0.  1.
         23    2    1    2    0    0  0.00000000000E+00  0.88817841970E-15  0.13322676296E-14  0.91188000000E+02  0.91188000000E+02 0.  0.
    9900012    2    3    3    0    0  0.36477969445E+02  0.45372693088E+01 -0.21330971309E+01  0.54367093289E+02  0.40000020771E+02 0.  0.
         12    1    3    3    0    0 -0.36477969445E+02 -0.45372693088E+01  0.21330971309E+01  0.36820906711E+02  0.00000000000E+00 0. -1.
         11    1    4    4    0    0  0.12834365238E+02  0.18897491746E+02  0.30890267399E+01  0.23051642280E+02  0.51100000000E-03 0. -1.
        -11    1    4    4    0    0  0.10623788234E+02 -0.46263854476E+01  0.44350107093E+01  0.12407160796E+02  0.51100000000E-03 0.  1.
        -12    1    4    4    0    0  0.13019815973E+02 -0.97338369893E+01 -0.96571345800E+01  0.18908290213E+02  0.00000000000E+00 0.  1.
</event>
<event>
 8    1  0.1262344E-006  0.9118800E+02  0.7816164E-02  0.1184000E+00
        -11   -1    0    0    0    0  0.00000000000E+00  0.00000000000E+00  0.45593999997E+02  0.45594000000E+02  0.51100000000E-03 0. -1.
         11   -1    0    0    0    0 -0.00000000000E+00 -0.00000000000E+00 -0.45593999997E+02  0.45594000000E+02  0.51100000000E-03 0.  1.
         23    2    1    2    0    0  0.00000000000E+00  0.17763568394E-14  0.88817841970E-15  0.91188000000E+02  0.91188000000E+02 0.  0.
    9900012    2    3    3    0    0 -0.34011806650E+02  0.13489086817E+02 -0.41256786111E+01  0.54367086395E+02  0.40000005054E+02 0.  0.
        -12    1    3    3    0    0  0.34011806650E+02 -0.13489086817E+02  0.41256786111E+01  0.36820913605E+02  0.00000000000E+00 0.  1.
         11    1    4    4    0    0 -0.64924656849E+00  0.15859349023E+02  0.50296092605E+01  0.16650448706E+02  0.51100000000E-03 0. -1.
        -11    1    4    4    0    0 -0.26397878605E+02 -0.80311302326E+01 -0.63557199275E+01  0.28315052953E+02  0.51100000000E-03 0.  1.
        -12    1    4    4    0    0 -0.69646814757E+01  0.56608680258E+01 -0.27995679441E+01  0.94015847354E+01  0.00000000000E+00 0.  1.
</event>
<event>
 8    1  0.1262344E-006  0.9118800E+02  0.7816164E-02  0.1184000E+00
        -11   -1    0    0    0    0  0.00000000000E+00  0.00000000000E+00  0.45593999997E+02  0.45594000000E+02  0.51100000000E-03 0. -1.
         11   -1    0    0    0    0 -0.00000000000E+00 -0.00000000000E+00 -0.45593999997E+02  0.45594000000E+02  0.51100000000E-03 0.  1.
         23    2    1    2    0    0  0.00000000000E+00  0.88817841970E-15  0.00000000000E+00  0.91188000000E+02  0.91188000000E+02 0.  0.
    9900012    2    3    3    0    0  0.17415045531E+02  0.32082198021E+01  0.32283169874E+02  0.54367088247E+02  0.40000009277E+02 0.  0.
        -12    1    3    3    0    0 -0.17415045531E+02 -0.32082198021E+01 -0.32283169874E+02  0.36820911753E+02  0.00000000000E+00 0.  1.
         11    1    4    4    0    0  0.81786024709E+01 -0.92878563547E+01  0.25614057649E+02  0.28447034354E+02  0.51100000000E-03 0. -1.
        -11    1    4    4    0    0 -0.48679617368E+01 -0.30441324579E+00 -0.16313237070E+01  0.51430473645E+01  0.51100000000E-03 0.  1.
         12    1    4    4    0    0  0.14104404797E+02  0.12800489403E+02  0.83004359329E+01  0.20777006529E+02  0.00000000000E+00 0. -1.
</event>
<event>
 8    1  0.1262344E-006  0.9118800E+02  0.7816164E-02  0.1184000E+00
        -11   -1    0    0    0    0  0.00000000000E+00  0.00000000000E+00  0.45593999997E+02  0.45594000000E+02  0.51100000000E-03 0.  1.
         11   -1    0    0    0    0 -0.00000000000E+00 -0.00000000000E+00 -0.45593999997E+02  0.45594000000E+02  0.51100000000E-03 0. -1.
         23    2    1    2    0    0  0.35527136788E-14  0.00000000000E+00  0.00000000000E+00  0.91188000000E+02  0.91188000000E+02 0.  0.
    9900012    2    3    3    0    0 -0.27219229189E+02  0.17133575787E+02 -0.17925788322E+02  0.54367085510E+02  0.40000003037E+02 0.  0.
        -12    1    3    3    0    0  0.27219229189E+02 -0.17133575787E+02  0.17925788322E+02  0.36820914490E+02  0.00000000000E+00 0.  1.
         11    1    4    4    0    0  0.49795545366E+01  0.71632744422E+01 -0.31369735641E+01  0.92708719935E+01  0.51100000000E-03 0. -1.
        -11    1    4    4    0    0 -0.93389610016E+01 -0.43613886089E+01 -0.14896943298E+02  0.18115099312E+02  0.51100000000E-03 0.  1.
        -12    1    4    4    0    0 -0.22859822724E+02  0.14331689954E+02  0.10812854042E+00  0.26981114204E+02  0.00000000000E+00 0.  1.
</event>
<event>
 8    1  0.1262344E-006  0.9118800E+02  0.7816164E-02  0.1184000E+00
        -11   -1    0    0    0    0  0.00000000000E+00  0.00000000000E+00  0.45593999997E+02  0.45594000000E+02  0.51100000000E-03 0.  1.
         11   -1    0    0    0    0 -0.00000000000E+00 -0.00000000000E+00 -0.45593999997E+02  0.45594000000E+02  0.51100000000E-03 0. -1.
         23    2    1    2    0    0  0.00000000000E+00  0.35527136788E-14 -0.35527136788E-14  0.91188000000E+02  0.91188000000E+02 0.  0.
    9900012    2    3    3    0    0  0.47946519963E+01 -0.27711225350E+02 -0.23767192119E+02  0.54367080411E+02  0.39999991412E+02 0.  0.
        -12    1    3    3    0    0 -0.47946519963E+01  0.27711225350E+02  0.23767192119E+02  0.36820919589E+02  0.00000000000E+00 0.  1.
         11    1    4    4    0    0 -0.81046570044E+01  0.98499346141E-01  0.66849074790E+00  0.81327761202E+01  0.51100000000E-03 0. -1.
        -11    1    4    4    0    0  0.79988960268E+01 -0.18138196284E+02 -0.35661438715E+00  0.19826842314E+02  0.51100000000E-03 0.  1.
        -12    1    4    4    0    0  0.49004129738E+01 -0.96715284125E+01 -0.24079068480E+02  0.26407461976E+02  0.00000000000E+00 0.  1.
</event>
<event>
 8    1  0.1262344E-006  0.9118800E+02  0.7816164E-02  0.1184000E+00
        -11   -1    0    0    0    0  0.00000000000E+00  0.00000000000E+00  0.45593999997E+02  0.45594000000E+02  0.51100000000E-03 0. -1.
         11   -1    0    0    0    0 -0.00000000000E+00 -0.00000000000E+00 -0.45593999997E+02  0.45594000000E+02  0.51100000000E-03 0.  1.
         23    2    1    2    0    0  0.00000000000E+00  0.35527136788E-14 -0.35527136788E-14  0.91188000000E+02  0.91188000000E+02 0.  0.
    9900012    2    3    3    0    0 -0.53528328059E+01 -0.30109308693E+02  0.20507469979E+02  0.54367087274E+02  0.40000007059E+02 0.  0.
        -12    1    3    3    0    0  0.53528328059E+01  0.30109308693E+02 -0.20507469979E+02  0.36820912726E+02  0.00000000000E+00 0.  1.
         11    1    4    4    0    0 -0.19000883369E+01 -0.12718864097E+02 -0.47574101414E+01  0.13711775637E+02  0.51100000000E-03 0. -1.
        -11    1    4    4    0    0 -0.73765263750E+01 -0.61169380344E+01 -0.29439663671E+01  0.10024819724E+02  0.51100000000E-03 0.  1.
         12    1    4    4    0    0  0.39237819060E+01 -0.11273506562E+02  0.28208846487E+02  0.30630491912E+02  0.00000000000E+00 0. -1.
</event>
<event>
 8    1  0.1262344E-006  0.9118800E+02  0.7816164E-02  0.1184000E+00
        -11   -1    0    0    0    0  0.00000000000E+00  0.00000000000E+00  0.45593999997E+02  0.45594000000E+02  0.51100000000E-03 0.  1.
         11   -1    0    0    0    0 -0.00000000000E+00 -0.00000000000E+00 -0.45593999997E+02  0.45594000000E+02  0.51100000000E-03 0. -1.
         23    2    1    2    0    0  0.00000000000E+00  0.35527136788E-14  0.22204460493E-15  0.91188000000E+02  0.91188000000E+02 0.  0.
    9900012    2    3    3    0    0 -0.27181563601E+02 -0.24816852428E+02 -0.10331081406E+01  0.54367070128E+02  0.39999967971E+02 0.  0.
         12    1    3    3    0    0  0.27181563601E+02  0.24816852428E+02  0.10331081406E+01  0.36820929872E+02  0.00000000000E+00 0. -1.
         11    1    4    4    0    0 -0.11945918485E+02  0.95785843178E+00 -0.89718049419E+01  0.14970495831E+02  0.51100000000E-03 0. -1.
        -11    1    4    4    0    0  0.12414268219E+01  0.33591754077E+01 -0.24636469230E+01  0.43468099103E+01  0.51100000000E-03 0.  1.
        -12    1    4    4    0    0 -0.16477071937E+02 -0.29133886267E+02  0.10402343724E+02  0.35049764387E+02  0.00000000000E+00 0.  1.
</event>
<event>
 8    1  0.1262344E-006  0.9118800E+02  0.7816164E-02  0.1184000E+00
        -11   -1    0    0    0    0  0.00000000000E+00  0.00000000000E+00  0.45593999997E+02  0.45594000000E+02  0.51100000000E-03 0. -1.
         11   -1    0    0    0    0 -0.00000000000E+00 -0.00000000000E+00 -0.45593999997E+02  0.45594000000E+02  0.51100000000E-03 0.  1.
         23    2    1    2    0    0 -0.35527136788E-14  0.00000000000E+00  0.00000000000E+00  0.91188000000E+02  0.91188000000E+02 0.  0.
    9900012    2    3    3    0    0 -0.29291809028E+02 -0.20080280241E+02 -0.97237712408E+01  0.54367089395E+02  0.40000011893E+02 0.  0.
         12    1    3    3    0    0  0.29291809028E+02  0.20080280241E+02  0.97237712408E+01  0.36820910605E+02  0.00000000000E+00 0. -1.
         11    1    4    4    0    0  0.36860172564E+01  0.29400600110E+01  0.31463650291E+00  0.47254282846E+01  0.51100000000E-03 0. -1.
        -11    1    4    4    0    0 -0.31020662222E+02 -0.17803788647E+02  0.25681404345E+01  0.35858774665E+02  0.51100000000E-03 0.  1.
        -12    1    4    4    0    0 -0.19571640621E+01 -0.52165516042E+01 -0.12606548178E+02  0.13782886446E+02  0.00000000000E+00 0.  1.
</event>
<event>
 8    1  0.1262344E-006  0.9118800E+02  0.7816164E-02  0.1184000E+00
        -11   -1    0    0    0    0  0.00000000000E+00  0.00000000000E+00  0.45593999997E+02  0.45594000000E+02  0.51100000000E-03 0. -1.
         11   -1    0    0    0    0 -0.00000000000E+00 -0.00000000000E+00 -0.45593999997E+02  0.45594000000E+02  0.51100000000E-03 0.  1.
         23    2    1    2    0    0  0.35527136788E-14  0.35527136788E-14 -0.17763568394E-14  0.91188000000E+02  0.91188000000E+02 0.  0.
    9900012    2    3    3    0    0 -0.29420043011E+02  0.16310774279E+02  0.14973276076E+02  0.54367091744E+02  0.40000017249E+02 0.  0.
        -12    1    3    3    0    0  0.29420043011E+02 -0.16310774279E+02 -0.14973276076E+02  0.36820908256E+02  0.00000000000E+00 0.  1.
         11    1    4    4    0    0 -0.53028979206E+01  0.18444034346E+02  0.11973800926E+02  0.22620235149E+02  0.51100000000E-03 0. -1.
        -11    1    4    4    0    0 -0.22299474059E+01 -0.85126396708E+01  0.11359308951E+01  0.88728822182E+01  0.51100000000E-03 0.  1.
        -12    1    4    4    0    0 -0.21887197685E+02  0.63793796037E+01  0.18635442546E+01  0.22873974377E+02  0.00000000000E+00 0.  1.
</event>
<event>
 8    1  0.1262344E-006  0.9118800E+02  0.7816164E-02  0.1184000E+00
        -11   -1    0    0    0    0  0.00000000000E+00  0.00000000000E+00  0.45593999997E+02  0.45594000000E+02  0.51100000000E-03 0. -1.
         11   -1    0    0    0    0 -0.00000000000E+00 -0.00000000000E+00 -0.45593999997E+02  0.45594000000E+02  0.51100000000E-03 0.  1.
         23    2    1    2    0    0  0.35527136788E-14 -0.13322676296E-14  0.00000000000E+00  0.91188000000E+02  0.91188000000E+02 0.  0.
    9900012    2    3    3    0    0  0.25395170213E+02  0.30729331599E+01 -0.26484416181E+02  0.54367056384E+02  0.39999936639E+02 0.  0.
         12    1    3    3    0    0 -0.25395170213E+02 -0.30729331599E+01  0.26484416181E+02  0.36820943616E+02  0.00000000000E+00 0. -1.
         11    1    4    4    0    0  0.20177316832E+02  0.15566114840E+02 -0.63196180074E+01  0.26255773037E+02  0.51100000000E-03 0. -1.
        -11    1    4    4    0    0  0.70689947684E+01 -0.21949349095E+01 -0.14335721415E+02  0.16133856794E+02  0.51100000000E-03 0.  1.
         12    1    4    4    0    0 -0.18511413879E+01 -0.10298246770E+02 -0.58290767584E+01  0.11977426553E+02  0.00000000000E+00 0. -1.
</event>
<event>
 8    1  0.1262344E-006  0.9118800E+02  0.7816164E-02  0.1184000E+00
        -11   -1    0    0    0    0  0.00000000000E+00  0.00000000000E+00  0.45593999997E+02  0.45594000000E+02  0.51100000000E-03 0.  1.
         11   -1    0    0    0    0 -0.00000000000E+00 -0.00000000000E+00 -0.45593999997E+02  0.45594000000E+02  0.51100000000E-03 0. -1.
         23    2    1    2    0    0  0.88817841970E-15  0.44408920985E-15  0.00000000000E+00  0.91188000000E+02  0.91188000000E+02 0.  0.
    9900012    2    3    3    0    0  0.17468371264E+01 -0.34917001650E+01 -0.36613345236E+02  0.54367075795E+02  0.39999980889E+02 0.  0.
        -12    1    3    3    0    0 -0.17468371264E+01  0.34917001650E+01  0.36613345236E+02  0.36820924205E+02  0.00000000000E+00 0.  1.
         11    1    4    4    0    0  0.41363280665E+01 -0.10767020573E+01 -0.24176504320E+02  0.24551412558E+02  0.51100000000E-03 0. -1.
        -11    1    4    4    0    0 -0.95612721976E+01 -0.99489873837E+01 -0.26007479214E+00  0.13801011382E+02  0.51100000000E-03 0.  1.
         12    1    4    4    0    0  0.71717812575E+01  0.75339892760E+01 -0.12176766123E+02  0.16014651855E+02  0.00000000000E+00 0. -1.
</event>
<event>
 8    1  0.1262344E-006  0.9118800E+02  0.7816164E-02  0.1184000E+00
        -11   -1    0    0    0    0  0.00000000000E+00  0.00000000000E+00  0.45593999997E+02  0.45594000000E+02  0.51100000000E-03 0. -1.
         11   -1    0    0    0    0 -0.00000000000E+00 -0.00000000000E+00 -0.45593999997E+02  0.45594000000E+02  0.51100000000E-03 0.  1.
         23    2    1    2    0    0  0.17763568394E-14  0.00000000000E+00 -0.44408920985E-15  0.91188000000E+02  0.91188000000E+02 0.  0.
    9900012    2    3    3    0    0 -0.10345873783E+02  0.35254121575E+02  0.24261898992E+01  0.54367128340E+02  0.40000100676E+02 0.  0.
         12    1    3    3    0    0  0.10345873783E+02 -0.35254121575E+02 -0.24261898992E+01  0.36820871660E+02  0.00000000000E+00 0. -1.
         11    1    4    4    0    0 -0.69237398969E+01  0.16121883330E+02 -0.10812733521E+02  0.20609912730E+02  0.51100000000E-03 0. -1.
        -11    1    4    4    0    0 -0.40907086150E+01  0.19866121392E+02 -0.19778712565E+00  0.20283880204E+02  0.51100000000E-03 0.  1.
         12    1    4    4    0    0  0.66857472845E+00 -0.73388314724E+00  0.13436710546E+02  0.13473335405E+02  0.00000000000E+00 0. -1.
</event>
<event>
 8    1  0.1262344E-006  0.9118800E+02  0.7816164E-02  0.1184000E+00
        -11   -1    0    0    0    0  0.00000000000E+00  0.00000000000E+00  0.45593999997E+02  0.45594000000E+02  0.51100000000E-03 0.  1.
         11   -1    0    0    0    0 -0.00000000000E+00 -0.00000000000E+00 -0.45593999997E+02  0.45594000000E+02  0.51100000000E-03 0. -1.
         23    2    1    2    0    0  0.33306690739E-15 -0.35527136788E-14  0.00000000000E+00  0.91188000000E+02  0.91188000000E+02 0.  0.
    9900012    2    3    3    0    0 -0.72495366031E+00  0.17753259558E+02 -0.32250206070E+02  0.54367087813E+02  0.40000008288E+02 0.  0.
        -12    1    3    3    0    0  0.72495366031E+00 -0.17753259558E+02  0.32250206070E+02  0.36820912187E+02  0.00000000000E+00 0.  1.
         11    1    4    4    0    0 -0.39987690755E+01  0.22857189017E+02 -0.15484840552E+02  0.27896622216E+02  0.51100000000E-03 0. -1.
        -11    1    4    4    0    0  0.61547967587E+01 -0.11729062688E+02 -0.11313684487E+02  0.17419870597E+02  0.51100000000E-03 0.  1.
        -12    1    4    4    0    0 -0.28809813435E+01  0.66251332284E+01 -0.54516810311E+01  0.90505950003E+01  0.00000000000E+00 0.  1.
</event>
<event>
 8    1  0.1262344E-006  0.9118800E+02  0.7816164E-02  0.1184000E+00
        -11   -1    0    0    0    0  0.00000000000E+00  0.00000000000E+00  0.45593999997E+02  0.45594000000E+02  0.51100000000E-03 0.  1.
         11   -1    0    0    0    0 -0.00000000000E+00 -0.00000000000E+00 -0.45593999997E+02  0.45594000000E+02  0.51100000000E-03 0. -1.
         23    2    1    2    0    0  0.35527136788E-14  0.35527136788E-14  0.00000000000E+00  0.91188000000E+02  0.91188000000E+02 0.  0.
    9900012    2    3    3    0    0 -0.22403176368E+02  0.19565417167E+02  0.21704185241E+02  0.54367088587E+02  0.40000010052E+02 0.  0.
         12    1    3    3    0    0  0.22403176368E+02 -0.19565417167E+02 -0.21704185241E+02  0.36820911413E+02  0.00000000000E+00 0. -1.
         11    1    4    4    0    0 -0.14386527237E+02  0.49545639141E+01  0.22610455545E+02  0.27253487295E+02  0.51100000000E-03 0.  1.
        -11    1    4    4    0    0  0.47839065740E+01 -0.24276444765E+01  0.17377747674E+01  0.56390674066E+01  0.51100000000E-03 0. -1.
        -12    1    4    4    0    0 -0.12800555705E+02  0.17038497729E+02 -0.26440450716E+01  0.21474533885E+02  0.00000000000E+00 0.  1.
</event>
<event>
 8    1  0.1262344E-006  0.9118800E+02  0.7816164E-02  0.1184000E+00
        -11   -1    0    0    0    0  0.00000000000E+00  0.00000000000E+00  0.45593999997E+02  0.45594000000E+02  0.51100000000E-03 0. -1.
         11   -1    0    0    0    0 -0.00000000000E+00 -0.00000000000E+00 -0.45593999997E+02  0.45594000000E+02  0.51100000000E-03 0.  1.
         23    2    1    2    0    0  0.00000000000E+00 -0.35527136788E-14 -0.17763568394E-14  0.91188000000E+02  0.91188000000E+02 0.  0.
    9900012    2    3    3    0    0 -0.29373716662E+02  0.20329315364E+02  0.89266485563E+01  0.54367063725E+02  0.39999953375E+02 0.  0.
        -12    1    3    3    0    0  0.29373716662E+02 -0.20329315364E+02 -0.89266485563E+01  0.36820936275E+02  0.00000000000E+00 0.  1.
         11    1    4    4    0    0  0.93462165467E+00 -0.16979623154E+01 -0.19173563728E+01  0.27263252527E+01  0.51100000000E-03 0. -1.
        -11    1    4    4    0    0  0.31626178705E+01 -0.60127787806E+01  0.84210628402E+00  0.68457872968E+01  0.51100000000E-03 0.  1.
         12    1    4    4    0    0 -0.33470956187E+02  0.28040056460E+02  0.10001898645E+02  0.44794951176E+02  0.00000000000E+00 0. -1.
</event>
<event>
 8    1  0.1262344E-006  0.9118800E+02  0.7816164E-02  0.1184000E+00
        -11   -1    0    0    0    0  0.00000000000E+00  0.00000000000E+00  0.45593999997E+02  0.45594000000E+02  0.51100000000E-03 0.  1.
         11   -1    0    0    0    0 -0.00000000000E+00 -0.00000000000E+00 -0.45593999997E+02  0.45594000000E+02  0.51100000000E-03 0. -1.
         23    2    1    2    0    0  0.17763568394E-14  0.00000000000E+00  0.00000000000E+00  0.91188000000E+02  0.91188000000E+02 0.  0.
    9900012    2    3    3    0    0 -0.15390304935E+02 -0.20836118558E+02 -0.26168188158E+02  0.54367090261E+02  0.40000013868E+02 0.  0.
        -12    1    3    3    0    0  0.15390304935E+02  0.20836118558E+02  0.26168188158E+02  0.36820909739E+02  0.00000000000E+00 0.  1.
         11    1    4    4    0    0 -0.10797089018E+02  0.24644844372E+01 -0.11024127744E+02  0.15626330586E+02  0.51100000000E-03 0. -1.
        -11    1    4    4    0    0 -0.15342418421E+01 -0.25866544662E+02 -0.31538240904E+01  0.26103230402E+02  0.51100000000E-03 0.  1.
        -12    1    4    4    0    0 -0.30589740745E+01  0.25659416666E+01 -0.11990236323E+02  0.12637529272E+02  0.00000000000E+00 0.  1.
</event>
<event>
 8    1  0.1262344E-006  0.9118800E+02  0.7816164E-02  0.1184000E+00
        -11   -1    0    0    0    0  0.00000000000E+00  0.00000000000E+00  0.45593999997E+02  0.45594000000E+02  0.51100000000E-03 0. -1.
         11   -1    0    0    0    0 -0.00000000000E+00 -0.00000000000E+00 -0.45593999997E+02  0.45594000000E+02  0.51100000000E-03 0.  1.
         23    2    1    2    0    0  0.00000000000E+00  0.00000000000E+00  0.00000000000E+00  0.91188000000E+02  0.91188000000E+02 0.  0.
    9900012    2    3    3    0    0 -0.12526473566E+02 -0.34585713030E+02 -0.16418835882E+01  0.54367083831E+02  0.39999999210E+02 0.  0.
         12    1    3    3    0    0  0.12526473566E+02  0.34585713030E+02  0.16418835882E+01  0.36820916169E+02  0.00000000000E+00 0. -1.
         11    1    4    4    0    0  0.41002292397E+01  0.44963029993E+01 -0.22964978665E+01  0.65040389906E+01  0.51100000000E-03 0. -1.
        -11    1    4    4    0    0 -0.29692139629E+01  0.25472687969E+01 -0.93322333587E+00  0.40219045161E+01  0.51100000000E-03 0.  1.
        -12    1    4    4    0    0 -0.13657488843E+02 -0.41629284826E+02  0.15878376142E+01  0.43841140324E+02  0.00000000000E+00 0.  1.
</event>
<event>
 8    1  0.1262344E-006  0.9118800E+02  0.7816164E-02  0.1184000E+00
        -11   -1    0    0    0    0  0.00000000000E+00  0.00000000000E+00  0.45593999997E+02  0.45594000000E+02  0.51100000000E-03 0. -1.
         11   -1    0    0    0    0 -0.00000000000E+00 -0.00000000000E+00 -0.45593999997E+02  0.45594000000E+02  0.51100000000E-03 0.  1.
         23    2    1    2    0    0  0.00000000000E+00  0.35527136788E-14 -0.35527136788E-14  0.91188000000E+02  0.91188000000E+02 0.  0.
    9900012    2    3    3    0    0 -0.13352403649E+02 -0.16898640487E+02 -0.29865166640E+02  0.54367096807E+02  0.40000028791E+02 0.  0.
         12    1    3    3    0    0  0.13352403649E+02  0.16898640487E+02  0.29865166640E+02  0.36820903193E+02  0.00000000000E+00 0. -1.
         11    1    4    4    0    0 -0.31256536308E+00  0.24599890631E+01  0.20554785716E+01  0.32209060396E+01  0.51100000000E-03 0. -1.
        -11    1    4    4    0    0 -0.11764022002E+02 -0.14981097370E+01  0.27059226802E+01  0.12163821943E+02  0.51100000000E-03 0.  1.
        -12    1    4    4    0    0 -0.12758162841E+01 -0.17860519814E+02 -0.34626567891E+02  0.38982368824E+02  0.00000000000E+00 0.  1.
</event>
<event>
 8    1  0.1262344E-006  0.9118800E+02  0.7816164E-02  0.1184000E+00
        -11   -1    0    0    0    0  0.00000000000E+00  0.00000000000E+00  0.45593999997E+02  0.45594000000E+02  0.51100000000E-03 0. -1.
         11   -1    0    0    0    0 -0.00000000000E+00 -0.00000000000E+00 -0.45593999997E+02  0.45594000000E+02  0.51100000000E-03 0.  1.
         23    2    1    2    0    0  0.35527136788E-14 -0.35527136788E-14  0.00000000000E+00  0.91188000000E+02  0.91188000000E+02 0.  0.
    9900012    2    3    3    0    0 -0.18616660092E+02 -0.27707270117E+02 -0.15540473141E+02  0.54367093496E+02  0.40000021244E+02 0.  0.
         12    1    3    3    0    0  0.18616660092E+02  0.27707270117E+02  0.15540473141E+02  0.36820906504E+02  0.00000000000E+00 0. -1.
         11    1    4    4    0    0 -0.55600969106E+01  0.11380301959E+01  0.30370582641E+01  0.64368869450E+01  0.51100000000E-03 0. -1.
        -11    1    4    4    0    0 -0.16991177687E+02 -0.16227165139E+02  0.18844562631E+01  0.23570578765E+02  0.51100000000E-03 0.  1.
        -12    1    4    4    0    0  0.39346145057E+01 -0.12618135174E+02 -0.20461987668E+02  0.24359627786E+02  0.00000000000E+00 0.  1.
</event>
<event>
 8    1  0.1262344E-006  0.9118800E+02  0.7816164E-02  0.1184000E+00
        -11   -1    0    0    0    0  0.00000000000E+00  0.00000000000E+00  0.45593999997E+02  0.45594000000E+02  0.51100000000E-03 0. -1.
         11   -1    0    0    0    0 -0.00000000000E+00 -0.00000000000E+00 -0.45593999997E+02  0.45594000000E+02  0.51100000000E-03 0.  1.
         23    2    1    2    0    0  0.00000000000E+00  0.17763568394E-14  0.17763568394E-14  0.91188000000E+02  0.91188000000E+02 0.  0.
    9900012    2    3    3    0    0  0.33235150308E+02  0.11789073032E+02  0.10593599694E+02  0.54367057407E+02  0.39999938971E+02 0.  0.
        -12    1    3    3    0    0 -0.33235150308E+02 -0.11789073032E+02 -0.10593599694E+02  0.36820942593E+02  0.00000000000E+00 0.  1.
         11    1    4    4    0    0  0.16074330127E+01  0.10146319918E+02  0.12039531344E+01  0.10343169349E+02  0.51100000000E-03 0. -1.
        -11    1    4    4    0    0  0.38105959080E+01  0.95288742727E+01  0.11027632359E+02  0.15064154865E+02  0.51100000000E-03 0.  1.
        -12    1    4    4    0    0  0.27817121387E+02 -0.78861211585E+01 -0.16379857989E+01  0.28959733194E+02  0.00000000000E+00 0.  1.
</event>
<event>
 8    1  0.1262344E-006  0.9118800E+02  0.7816164E-02  0.1184000E+00
        -11   -1    0    0    0    0  0.00000000000E+00  0.00000000000E+00  0.45593999997E+02  0.45594000000E+02  0.51100000000E-03 0.  1.
         11   -1    0    0    0    0 -0.00000000000E+00 -0.00000000000E+00 -0.45593999997E+02  0.45594000000E+02  0.51100000000E-03 0. -1.
         23    2    1    2    0    0 -0.13322676296E-14  0.00000000000E+00 -0.12212453271E-14  0.91188000000E+02  0.91188000000E+02 0.  0.
    9900012    2    3    3    0    0 -0.21152886641E+01 -0.36748231986E+02 -0.93399024165E+00  0.54367091022E+02  0.40000015602E+02 0.  0.
        -12    1    3    3    0    0  0.21152886641E+01  0.36748231986E+02  0.93399024165E+00  0.36820908978E+02  0.00000000000E+00 0.  1.
         11    1    4    4    0    0  0.42229902828E+01 -0.27606667306E+02 -0.16934696057E+02  0.32661072509E+02  0.51100000000E-03 0. -1.
        -11    1    4    4    0    0 -0.48735871139E+01 -0.11284511503E+00  0.88192787461E+01  0.10076917348E+02  0.51100000000E-03 0.  1.
         12    1    4    4    0    0 -0.14646918330E+01 -0.90287195650E+01  0.71814270688E+01  0.11629101164E+02  0.00000000000E+00 0. -1.
</event>
<event>
 8    1  0.1262344E-006  0.9118800E+02  0.7816164E-02  0.1184000E+00
        -11   -1    0    0    0    0  0.00000000000E+00  0.00000000000E+00  0.45593999997E+02  0.45594000000E+02  0.51100000000E-03 0.  1.
         11   -1    0    0    0    0 -0.00000000000E+00 -0.00000000000E+00 -0.45593999997E+02  0.45594000000E+02  0.51100000000E-03 0. -1.
         23    2    1    2    0    0 -0.35527136788E-14  0.00000000000E+00  0.35527136788E-14  0.91188000000E+02  0.91188000000E+02 0.  0.
    9900012    2    3    3    0    0 -0.17222309480E+02 -0.97291175847E+01  0.31056656961E+02  0.54367087269E+02  0.40000007046E+02 0.  0.
         12    1    3    3    0    0  0.17222309480E+02  0.97291175847E+01 -0.31056656961E+02  0.36820912731E+02  0.00000000000E+00 0. -1.
         11    1    4    4    0    0 -0.12112384822E+02 -0.23567271353E+01  0.63779406917E+01  0.13890362003E+02  0.51100000000E-03 0. -1.
        -11    1    4    4    0    0 -0.71409160162E+01  0.27450248241E+01  0.28472350034E+02  0.29482241427E+02  0.51100000000E-03 0.  1.
        -12    1    4    4    0    0  0.20309913579E+01 -0.10117415274E+02 -0.37936337653E+01  0.10994483838E+02  0.00000000000E+00 0.  1.
</event>
<event>
 8    1  0.1262344E-006  0.9118800E+02  0.7816164E-02  0.1184000E+00
        -11   -1    0    0    0    0  0.00000000000E+00  0.00000000000E+00  0.45593999997E+02  0.45594000000E+02  0.51100000000E-03 0.  1.
         11   -1    0    0    0    0 -0.00000000000E+00 -0.00000000000E+00 -0.45593999997E+02  0.45594000000E+02  0.51100000000E-03 0. -1.
         23    2    1    2    0    0  0.00000000000E+00  0.00000000000E+00  0.35527136788E-14  0.91188000000E+02  0.91188000000E+02 0.  0.
    9900012    2    3    3    0    0 -0.12370042561E+02  0.30547571534E+02 -0.16419562665E+02  0.54367161909E+02  0.40000177203E+02 0.  0.
        -12    1    3    3    0    0  0.12370042561E+02 -0.30547571534E+02  0.16419562665E+02  0.36820838091E+02  0.00000000000E+00 0.  1.
         11    1    4    4    0    0 -0.25983236421E+01  0.34830942924E+02 -0.19487385701E+01  0.34982044723E+02  0.51100000000E-03 0. -1.
        -11    1    4    4    0    0 -0.10500012875E+02 -0.35277237930E+01 -0.10445022283E+02  0.15224769170E+02  0.51100000000E-03 0.  1.
        -12    1    4    4    0    0  0.72829395581E+00 -0.75564759699E+00 -0.40258018121E+01  0.41603480152E+01  0.00000000000E+00 0.  1.
</event>
<event>
 8    1  0.1262344E-006  0.9118800E+02  0.7816164E-02  0.1184000E+00
        -11   -1    0    0    0    0  0.00000000000E+00  0.00000000000E+00  0.45593999997E+02  0.45594000000E+02  0.51100000000E-03 0.  1.
         11   -1    0    0    0    0 -0.00000000000E+00 -0.00000000000E+00 -0.45593999997E+02  0.45594000000E+02  0.51100000000E-03 0. -1.
         23    2    1    2    0    0 -0.17763568394E-14 -0.35527136788E-14  0.00000000000E+00  0.91188000000E+02  0.91188000000E+02 0.  0.
    9900012    2    3    3    0    0  0.10798204067E+02 -0.16587209888E+02  0.31049029632E+02  0.54367095828E+02  0.40000026559E+02 0.  0.
         12    1    3    3    0    0 -0.10798204067E+02  0.16587209888E+02 -0.31049029632E+02  0.36820904172E+02  0.00000000000E+00 0. -1.
         11    1    4    4    0    0 -0.85308994810E+01 -0.50064918675E+01 -0.29735547612E+01  0.10328757667E+02  0.51100000000E-03 0. -1.
        -11    1    4    4    0    0  0.10345725599E+02 -0.23512647809E+01  0.39451739426E+01  0.11319314552E+02  0.51100000000E-03 0.  1.
        -12    1    4    4    0    0  0.89833779496E+01 -0.92294532398E+01  0.30077410450E+02  0.32719023608E+02  0.00000000000E+00 0.  1.
</event>
<event>
 8    1  0.1262344E-006  0.9118800E+02  0.7816164E-02  0.1184000E+00
        -11   -1    0    0    0    0  0.00000000000E+00  0.00000000000E+00  0.45593999997E+02  0.45594000000E+02  0.51100000000E-03 0. -1.
         11   -1    0    0    0    0 -0.00000000000E+00 -0.00000000000E+00 -0.45593999997E+02  0.45594000000E+02  0.51100000000E-03 0.  1.
         23    2    1    2    0    0  0.00000000000E+00  0.35527136788E-14  0.00000000000E+00  0.91188000000E+02  0.91188000000E+02 0.  0.
    9900012    2    3    3    0    0 -0.16225943033E+02  0.31729502888E+02 -0.92594298154E+01  0.54367087174E+02  0.40000006830E+02 0.  0.
         12    1    3    3    0    0  0.16225943033E+02 -0.31729502888E+02  0.92594298154E+01  0.36820912826E+02  0.00000000000E+00 0. -1.
         11    1    4    4    0    0 -0.43104867600E+01  0.46834926423E+01  0.36933268320E+00  0.63758769068E+01  0.51100000000E-03 0. -1.
        -11    1    4    4    0    0  0.15603117614E+01  0.31188916676E+02 -0.56929741614E+00  0.31233110572E+02  0.51100000000E-03 0.  1.
        -12    1    4    4    0    0 -0.13475768034E+02 -0.41429064294E+01 -0.90594650825E+01  0.16758099695E+02  0.00000000000E+00 0.  1.
</event>
<event>
 8    1  0.1262344E-006  0.9118800E+02  0.7816164E-02  0.1184000E+00
        -11   -1    0    0    0    0  0.00000000000E+00  0.00000000000E+00  0.45593999997E+02  0.45594000000E+02  0.51100000000E-03 0. -1.
         11   -1    0    0    0    0 -0.00000000000E+00 -0.00000000000E+00 -0.45593999997E+02  0.45594000000E+02  0.51100000000E-03 0.  1.
         23    2    1    2    0    0  0.00000000000E+00  0.00000000000E+00 -0.35527136788E-14  0.91188000000E+02  0.91188000000E+02 0.  0.
    9900012    2    3    3    0    0  0.29016044841E+02  0.42318541161E+01  0.22269720384E+02  0.54367083479E+02  0.39999998408E+02 0.  0.
        -12    1    3    3    0    0 -0.29016044841E+02 -0.42318541161E+01 -0.22269720384E+02  0.36820916521E+02  0.00000000000E+00 0.  1.
         11    1    4    4    0    0  0.49003418639E+01 -0.67498335383E+00  0.18290282827E+02  0.18947385020E+02  0.51100000000E-03 0. -1.
        -11    1    4    4    0    0  0.12103167520E+02  0.14926014828E+02 -0.24085779063E+00  0.19217975840E+02  0.51100000000E-03 0.  1.
        -12    1    4    4    0    0  0.12012535457E+02 -0.10019177358E+02  0.42202953468E+01  0.16201722620E+02  0.00000000000E+00 0.  1.
</event>
<event>
 8    1  0.1262344E-006  0.9118800E+02  0.7816164E-02  0.1184000E+00
        -11   -1    0    0    0    0  0.00000000000E+00  0.00000000000E+00  0.45593999997E+02  0.45594000000E+02  0.51100000000E-03 0. -1.
         11   -1    0    0    0    0 -0.00000000000E+00 -0.00000000000E+00 -0.45593999997E+02  0.45594000000E+02  0.51100000000E-03 0.  1.
         23    2    1    2    0    0 -0.17763568394E-14  0.17763568394E-14 -0.71054273576E-14  0.91188000000E+02  0.91188000000E+02 0.  0.
    9900012    2    3    3    0    0  0.14494930823E+02 -0.10985095092E+02  0.32015694645E+02  0.54367081525E+02  0.39999993952E+02 0.  0.
        -12    1    3    3    0    0 -0.14494930823E+02  0.10985095092E+02 -0.32015694645E+02  0.36820918475E+02  0.00000000000E+00 0.  1.
         11    1    4    4    0    0  0.85428192856E+00 -0.17385938631E+01  0.34660090779E+02  0.34714181530E+02  0.51100000000E-03 0. -1.
        -11    1    4    4    0    0  0.82553645769E+01 -0.76901798070E+01 -0.63371624051E+01  0.12940229417E+02  0.51100000000E-03 0.  1.
        -12    1    4    4    0    0  0.53852843179E+01 -0.15563214221E+01  0.36927662713E+01  0.67126705779E+01  0.00000000000E+00 0.  1.
</event>
<event>
 8    1  0.1262344E-006  0.9118800E+02  0.7816164E-02  0.1184000E+00
        -11   -1    0    0    0    0  0.00000000000E+00  0.00000000000E+00  0.45593999997E+02  0.45594000000E+02  0.51100000000E-03 0. -1.
         11   -1    0    0    0    0 -0.00000000000E+00 -0.00000000000E+00 -0.45593999997E+02  0.45594000000E+02  0.51100000000E-03 0.  1.
         23    2    1    2    0    0 -0.35527136788E-14  0.00000000000E+00  0.35527136788E-14  0.91188000000E+02  0.91188000000E+02 0.  0.
    9900012    2    3    3    0    0  0.28283756784E+02  0.22792572773E+01 -0.23465173055E+02  0.54367078528E+02  0.39999987119E+02 0.  0.
         12    1    3    3    0    0 -0.28283756784E+02 -0.22792572773E+01  0.23465173055E+02  0.36820921472E+02  0.00000000000E+00 0. -1.
         11    1    4    4    0    0  0.15685889809E+02 -0.68304495806E+01 -0.25986137377E+02  0.31112401332E+02  0.51100000000E-03 0.  1.
        -11    1    4    4    0    0 -0.16701214857E+01 -0.99847873518E+00 -0.41151738401E+01  0.45520238968E+01  0.51100000000E-03 0. -1.
        -12    1    4    4    0    0  0.14267988461E+02  0.10108185593E+02  0.66361381626E+01  0.18702653299E+02  0.00000000000E+00 0.  1.
</event>
<event>
 8    1  0.1262344E-006  0.9118800E+02  0.7816164E-02  0.1184000E+00
        -11   -1    0    0    0    0  0.00000000000E+00  0.00000000000E+00  0.45593999997E+02  0.45594000000E+02  0.51100000000E-03 0.  1.
         11   -1    0    0    0    0 -0.00000000000E+00 -0.00000000000E+00 -0.45593999997E+02  0.45594000000E+02  0.51100000000E-03 0. -1.
         23    2    1    2    0    0  0.00000000000E+00  0.35527136788E-14  0.88817841970E-15  0.91188000000E+02  0.91188000000E+02 0.  0.
    9900012    2    3    3    0    0  0.22908449410E+02 -0.28680930630E+02 -0.28959640402E+01  0.54367089583E+02  0.40000012323E+02 0.  0.
        -12    1    3    3    0    0 -0.22908449410E+02  0.28680930630E+02  0.28959640402E+01  0.36820910417E+02  0.00000000000E+00 0.  1.
         11    1    4    4    0    0 -0.45721436591E+01 -0.16893354474E+02  0.54707664059E+01  0.18336281203E+02  0.51100000000E-03 0. -1.
        -11    1    4    4    0    0  0.23692826052E+02 -0.53821750026E+01 -0.12704236162E+02  0.27417429326E+02  0.51100000000E-03 0.  1.
        -12    1    4    4    0    0  0.37877670170E+01 -0.64054011529E+01  0.43375057156E+01  0.86133790545E+01  0.00000000000E+00 0.  1.
</event>
<event>
 8    1  0.1262344E-006  0.9118800E+02  0.7816164E-02  0.1184000E+00
        -11   -1    0    0    0    0  0.00000000000E+00  0.00000000000E+00  0.45593999997E+02  0.45594000000E+02  0.51100000000E-03 0.  1.
         11   -1    0    0    0    0 -0.00000000000E+00 -0.00000000000E+00 -0.45593999997E+02  0.45594000000E+02  0.51100000000E-03 0. -1.
         23    2    1    2    0    0 -0.17763568394E-14 -0.35527136788E-14  0.71054273576E-14  0.91188000000E+02  0.91188000000E+02 0.  0.
    9900012    2    3    3    0    0  0.77151565801E+01  0.13187473613E+02 -0.33501450023E+02  0.54367078570E+02  0.39999987215E+02 0.  0.
        -12    1    3    3    0    0 -0.77151565801E+01 -0.13187473613E+02  0.33501450023E+02  0.36820921430E+02  0.00000000000E+00 0.  1.
         11    1    4    4    0    0 -0.18487761552E+01 -0.67919569372E+01 -0.11272213715E+02  0.13289524243E+02  0.51100000000E-03 0. -1.
        -11    1    4    4    0    0 -0.51983182423E+01  0.31176887207E+01 -0.17023003318E+02  0.18070006578E+02  0.51100000000E-03 0.  1.
         12    1    4    4    0    0  0.14762250978E+02  0.16861741829E+02 -0.52062329897E+01  0.23007547748E+02  0.00000000000E+00 0. -1.
</event>
<event>
 8    1  0.1262344E-006  0.9118800E+02  0.7816164E-02  0.1184000E+00
        -11   -1    0    0    0    0  0.00000000000E+00  0.00000000000E+00  0.45593999997E+02  0.45594000000E+02  0.51100000000E-03 0.  1.
         11   -1    0    0    0    0 -0.00000000000E+00 -0.00000000000E+00 -0.45593999997E+02  0.45594000000E+02  0.51100000000E-03 0. -1.
         23    2    1    2    0    0  0.00000000000E+00  0.00000000000E+00 -0.35527136788E-14  0.91188000000E+02  0.91188000000E+02 0.  0.
    9900012    2    3    3    0    0 -0.97541244921E+01 -0.20994848587E+02  0.28632957709E+02  0.54367178730E+02  0.40000215551E+02 0.  0.
         12    1    3    3    0    0  0.97541244921E+01  0.20994848587E+02 -0.28632957709E+02  0.36820821270E+02  0.00000000000E+00 0. -1.
         11    1    4    4    0    0 -0.70143569991E+01  0.89454631490E+01  0.54936923507E+01  0.12625496860E+02  0.51100000000E-03 0. -1.
        -11    1    4    4    0    0 -0.53865232527E+01 -0.16083391018E+02  0.21727186611E+02  0.27563757684E+02  0.51100000000E-03 0.  1.
        -12    1    4    4    0    0  0.26467557597E+01 -0.13856920718E+02  0.14120787472E+01  0.14177924186E+02  0.00000000000E+00 0.  1.
</event>
<event>
 8    1  0.1262344E-006  0.9118800E+02  0.7816164E-02  0.1184000E+00
        -11   -1    0    0    0    0  0.00000000000E+00  0.00000000000E+00  0.45593999997E+02  0.45594000000E+02  0.51100000000E-03 0. -1.
         11   -1    0    0    0    0 -0.00000000000E+00 -0.00000000000E+00 -0.45593999997E+02  0.45594000000E+02  0.51100000000E-03 0.  1.
         23    2    1    2    0    0  0.00000000000E+00  0.00000000000E+00 -0.35527136788E-14  0.91188000000E+02  0.91188000000E+02 0.  0.
    9900012    2    3    3    0    0  0.53776538138E+01 -0.32472786488E+02 -0.16503824811E+02  0.54367119291E+02  0.40000080047E+02 0.  0.
         12    1    3    3    0    0 -0.53776538138E+01  0.32472786488E+02  0.16503824811E+02  0.36820880709E+02  0.00000000000E+00 0. -1.
         11    1    4    4    0    0 -0.18986814115E+01 -0.13789438724E+02  0.11891895078E+01  0.13970246360E+02  0.51100000000E-03 0. -1.
        -11    1    4    4    0    0  0.23824182196E+01 -0.11685187435E+02  0.73018710878E+01  0.13983448917E+02  0.51100000000E-03 0.  1.
        -12    1    4    4    0    0  0.48939170057E+01 -0.69981603293E+01 -0.24994885406E+02  0.26413424014E+02  0.00000000000E+00 0.  1.
</event>
<event>
 8    1  0.1262344E-006  0.9118800E+02  0.7816164E-02  0.1184000E+00
        -11   -1    0    0    0    0  0.00000000000E+00  0.00000000000E+00  0.45593999997E+02  0.45594000000E+02  0.51100000000E-03 0. -1.
         11   -1    0    0    0    0 -0.00000000000E+00 -0.00000000000E+00 -0.45593999997E+02  0.45594000000E+02  0.51100000000E-03 0.  1.
         23    2    1    2    0    0  0.00000000000E+00  0.00000000000E+00 -0.35527136788E-14  0.91188000000E+02  0.91188000000E+02 0.  0.
    9900012    2    3    3    0    0 -0.11330253746E+02  0.15128276858E+02 -0.31599728348E+02  0.54367051584E+02  0.39999925695E+02 0.  0.
         12    1    3    3    0    0  0.11330253746E+02 -0.15128276858E+02  0.31599728348E+02  0.36820948416E+02  0.00000000000E+00 0. -1.
         11    1    4    4    0    0 -0.50100424166E+01 -0.58850108556E+01 -0.45102300864E+00  0.77419183541E+01  0.51100000000E-03 0. -1.
        -11    1    4    4    0    0  0.33225649608E+01  0.24207636293E+02 -0.23585653453E+02  0.33960744130E+02  0.51100000000E-03 0.  1.
        -12    1    4    4    0    0 -0.96427762898E+01 -0.31943485799E+01 -0.75630518862E+01  0.12664389099E+02  0.00000000000E+00 0.  1.
</event>
<event>
 8    1  0.1262344E-006  0.9118800E+02  0.7816164E-02  0.1184000E+00
        -11   -1    0    0    0    0  0.00000000000E+00  0.00000000000E+00  0.45593999997E+02  0.45594000000E+02  0.51100000000E-03 0. -1.
         11   -1    0    0    0    0 -0.00000000000E+00 -0.00000000000E+00 -0.45593999997E+02  0.45594000000E+02  0.51100000000E-03 0.  1.
         23    2    1    2    0    0  0.00000000000E+00  0.00000000000E+00  0.00000000000E+00  0.91188000000E+02  0.91188000000E+02 0.  0.
    9900012    2    3    3    0    0  0.29068996786E+02  0.71142735070E+01 -0.21451358083E+02  0.54367078973E+02  0.39999988134E+02 0.  0.
         12    1    3    3    0    0 -0.29068996786E+02 -0.71142735070E+01  0.21451358083E+02  0.36820921027E+02  0.00000000000E+00 0. -1.
         11    1    4    4    0    0  0.68463516518E+01  0.17953512334E+02 -0.47858474412E+01  0.19801653265E+02  0.51100000000E-03 0. -1.
        -11    1    4    4    0    0  0.99034896038E+01 -0.45104910926E+01 -0.17590866252E+02  0.20684830480E+02  0.51100000000E-03 0.  1.
         12    1    4    4    0    0  0.12319155530E+02 -0.63287477339E+01  0.92535560984E+00  0.13880595227E+02  0.00000000000E+00 0. -1.
</event>
<event>
 8    1  0.1262344E-006  0.9118800E+02  0.7816164E-02  0.1184000E+00
        -11   -1    0    0    0    0  0.00000000000E+00  0.00000000000E+00  0.45593999997E+02  0.45594000000E+02  0.51100000000E-03 0. -1.
         11   -1    0    0    0    0 -0.00000000000E+00 -0.00000000000E+00 -0.45593999997E+02  0.45594000000E+02  0.51100000000E-03 0.  1.
         23    2    1    2    0    0  0.88817841970E-15  0.35527136788E-14  0.00000000000E+00  0.91188000000E+02  0.91188000000E+02 0.  0.
    9900012    2    3    3    0    0  0.32980935768E+01 -0.28494130794E+02  0.23086493612E+02  0.54367094277E+02  0.40000023024E+02 0.  0.
        -12    1    3    3    0    0 -0.32980935768E+01  0.28494130794E+02 -0.23086493612E+02  0.36820905723E+02  0.00000000000E+00 0.  1.
         11    1    4    4    0    0 -0.11686723795E+01 -0.23835817875E+02  0.23611398451E+02  0.33570971776E+02  0.51100000000E-03 0. -1.
        -11    1    4    4    0    0  0.78185423059E+01 -0.90313390700E+01 -0.57011908546E+01  0.13236248207E+02  0.51100000000E-03 0.  1.
         12    1    4    4    0    0 -0.33517763496E+01  0.43730261516E+01  0.51762860161E+01  0.75598742940E+01  0.00000000000E+00 0. -1.
</event>
<event>
 8    1  0.1262344E-006  0.9118800E+02  0.7816164E-02  0.1184000E+00
        -11   -1    0    0    0    0  0.00000000000E+00  0.00000000000E+00  0.45593999997E+02  0.45594000000E+02  0.51100000000E-03 0. -1.
         11   -1    0    0    0    0 -0.00000000000E+00 -0.00000000000E+00 -0.45593999997E+02  0.45594000000E+02  0.51100000000E-03 0.  1.
         23    2    1    2    0    0 -0.71054273576E-14 -0.13322676296E-14  0.00000000000E+00  0.91188000000E+02  0.91188000000E+02 0.  0.
    9900012    2    3    3    0    0 -0.34243619050E+02  0.15181629943E+01 -0.13448024690E+02  0.54367087021E+02  0.40000006483E+02 0.  0.
        -12    1    3    3    0    0  0.34243619050E+02 -0.15181629943E+01  0.13448024690E+02  0.36820912979E+02  0.00000000000E+00 0.  1.
         11    1    4    4    0    0 -0.21960775264E+02 -0.13479428130E+02 -0.26914884161E+01  0.25907812394E+02  0.51100000000E-03 0. -1.
        -11    1    4    4    0    0  0.37881923553E+01  0.43165584291E+01 -0.65465949739E+01  0.87086729188E+01  0.51100000000E-03 0.  1.
        -12    1    4    4    0    0 -0.16071036141E+02  0.10681032695E+02 -0.42099413004E+01  0.19750601709E+02  0.00000000000E+00 0.  1.
</event>
<event>
 8    1  0.1262344E-006  0.9118800E+02  0.7816164E-02  0.1184000E+00
        -11   -1    0    0    0    0  0.00000000000E+00  0.00000000000E+00  0.45593999997E+02  0.45594000000E+02  0.51100000000E-03 0. -1.
         11   -1    0    0    0    0 -0.00000000000E+00 -0.00000000000E+00 -0.45593999997E+02  0.45594000000E+02  0.51100000000E-03 0.  1.
         23    2    1    2    0    0  0.00000000000E+00 -0.35527136788E-14  0.00000000000E+00  0.91188000000E+02  0.91188000000E+02 0.  0.
    9900012    2    3    3    0    0  0.24322091601E+02 -0.24338799436E+02  0.13108764328E+02  0.54367068452E+02  0.39999964150E+02 0.  0.
        -12    1    3    3    0    0 -0.24322091601E+02  0.24338799436E+02 -0.13108764328E+02  0.36820931548E+02  0.00000000000E+00 0.  1.
         11    1    4    4    0    0  0.97676165197E+01 -0.16053956864E+02 -0.34688647410E+01  0.19109392621E+02  0.51100000000E-03 0. -1.
        -11    1    4    4    0    0  0.14966145879E+02  0.62050635755E+01  0.58545844379E+01  0.17226853910E+02  0.51100000000E-03 0.  1.
        -12    1    4    4    0    0 -0.41167079711E+00 -0.14489906147E+02  0.10723044631E+02  0.18030821921E+02  0.00000000000E+00 0.  1.
</event>
<event>
 8    1  0.1262344E-006  0.9118800E+02  0.7816164E-02  0.1184000E+00
        -11   -1    0    0    0    0  0.00000000000E+00  0.00000000000E+00  0.45593999997E+02  0.45594000000E+02  0.51100000000E-03 0.  1.
         11   -1    0    0    0    0 -0.00000000000E+00 -0.00000000000E+00 -0.45593999997E+02  0.45594000000E+02  0.51100000000E-03 0. -1.
         23    2    1    2    0    0  0.00000000000E+00 -0.88817841970E-15  0.00000000000E+00  0.91188000000E+02  0.91188000000E+02 0.  0.
    9900012    2    3    3    0    0  0.33831905786E+02 -0.61249994212E+01  0.13178324530E+02  0.54367058887E+02  0.39999942345E+02 0.  0.
        -12    1    3    3    0    0 -0.33831905786E+02  0.61249994212E+01 -0.13178324530E+02  0.36820941113E+02  0.00000000000E+00 0.  1.
         11    1    4    4    0    0 -0.38650856125E+01  0.39392972472E+01  0.92931846893E+01  0.10808340831E+02  0.51100000000E-03 0. -1.
        -11    1    4    4    0    0  0.12015814449E+02  0.14434417955E+01  0.88364208616E+01  0.14984847513E+02  0.51100000000E-03 0.  1.
         12    1    4    4    0    0  0.25681176949E+02 -0.11507738464E+02 -0.49512810207E+01  0.28573870543E+02  0.00000000000E+00 0. -1.
</event>
<event>
 8    1  0.1262344E-006  0.9118800E+02  0.7816164E-02  0.1184000E+00
        -11   -1    0    0    0    0  0.00000000000E+00  0.00000000000E+00  0.45593999997E+02  0.45594000000E+02  0.51100000000E-03 0. -1.
         11   -1    0    0    0    0 -0.00000000000E+00 -0.00000000000E+00 -0.45593999997E+02  0.45594000000E+02  0.51100000000E-03 0.  1.
         23    2    1    2    0    0  0.88817841970E-15  0.00000000000E+00  0.00000000000E+00  0.91188000000E+02  0.91188000000E+02 0.  0.
    9900012    2    3    3    0    0  0.77512095420E+01  0.33142008941E+02 -0.14046518733E+02  0.54367099759E+02  0.40000035522E+02 0.  0.
         12    1    3    3    0    0 -0.77512095420E+01 -0.33142008941E+02  0.14046518733E+02  0.36820900241E+02  0.00000000000E+00 0. -1.
         11    1    4    4    0    0  0.50084411181E+01  0.70139543664E+01  0.58609218353E+01  0.10422592926E+02  0.51100000000E-03 0. -1.
        -11    1    4    4    0    0  0.10172742835E+00  0.29599502942E+02 -0.23890165222E+02  0.38037887921E+02  0.51100000000E-03 0.  1.
         12    1    4    4    0    0  0.26410409955E+01 -0.34714483676E+01  0.39827246536E+01  0.59066189123E+01  0.00000000000E+00 0. -1.
</event>
<event>
 8    1  0.1262344E-006  0.9118800E+02  0.7816164E-02  0.1184000E+00
        -11   -1    0    0    0    0  0.00000000000E+00  0.00000000000E+00  0.45593999997E+02  0.45594000000E+02  0.51100000000E-03 0.  1.
         11   -1    0    0    0    0 -0.00000000000E+00 -0.00000000000E+00 -0.45593999997E+02  0.45594000000E+02  0.51100000000E-03 0. -1.
         23    2    1    2    0    0  0.00000000000E+00  0.00000000000E+00  0.35527136788E-14  0.91188000000E+02  0.91188000000E+02 0.  0.
    9900012    2    3    3    0    0  0.24644748864E+02  0.11972860745E+02  0.24598394305E+02  0.54366891334E+02  0.39999560372E+02 0.  0.
        -12    1    3    3    0    0 -0.24644748864E+02 -0.11972860745E+02 -0.24598394305E+02  0.36821108666E+02  0.00000000000E+00 0.  1.
         11    1    4    4    0    0  0.11430944797E+02  0.70562332937E+01  0.24366402750E+01  0.13652624045E+02  0.51100000000E-03 0. -1.
        -11    1    4    4    0    0  0.95137038507E+01  0.99921185521E+01 -0.35501634476E+01  0.14246285652E+02  0.51100000000E-03 0.  1.
         12    1    4    4    0    0  0.37001002171E+01 -0.50754911004E+01  0.25711917478E+02  0.26467981636E+02  0.00000000000E+00 0. -1.
</event>
<event>
 8    1  0.1262344E-006  0.9118800E+02  0.7816164E-02  0.1184000E+00
        -11   -1    0    0    0    0  0.00000000000E+00  0.00000000000E+00  0.45593999997E+02  0.45594000000E+02  0.51100000000E-03 0. -1.
         11   -1    0    0    0    0 -0.00000000000E+00 -0.00000000000E+00 -0.45593999997E+02  0.45594000000E+02  0.51100000000E-03 0.  1.
         23    2    1    2    0    0  0.35527136788E-14  0.00000000000E+00  0.00000000000E+00  0.91188000000E+02  0.91188000000E+02 0.  0.
    9900012    2    3    3    0    0 -0.29756947714E+02  0.20512720618E+02  0.70383622002E+01  0.54366998019E+02  0.39999803584E+02 0.  0.
        -12    1    3    3    0    0  0.29756947714E+02 -0.20512720618E+02 -0.70383622002E+01  0.36821001981E+02  0.00000000000E+00 0.  1.
         11    1    4    4    0    0  0.46782729287E+01  0.14653750575E+02  0.94050313420E+01  0.18029788083E+02  0.51100000000E-03 0. -1.
        -11    1    4    4    0    0 -0.24736717189E+02  0.79603722759E+01 -0.39617793309E+01  0.26286277785E+02  0.51100000000E-03 0.  1.
        -12    1    4    4    0    0 -0.96985034540E+01 -0.21014022335E+01  0.15951101891E+01  0.10050932151E+02  0.00000000000E+00 0.  1.
</event>
<event>
 8    1  0.1262344E-006  0.9118800E+02  0.7816164E-02  0.1184000E+00
        -11   -1    0    0    0    0  0.00000000000E+00  0.00000000000E+00  0.45593999997E+02  0.45594000000E+02  0.51100000000E-03 0. -1.
         11   -1    0    0    0    0 -0.00000000000E+00 -0.00000000000E+00 -0.45593999997E+02  0.45594000000E+02  0.51100000000E-03 0.  1.
         23    2    1    2    0    0 -0.88817841970E-15  0.17763568394E-14  0.71054273576E-14  0.91188000000E+02  0.91188000000E+02 0.  0.
    9900012    2    3    3    0    0  0.54768548067E+01 -0.15743299093E+02 -0.32831882928E+02  0.54367082826E+02  0.39999996918E+02 0.  0.
         12    1    3    3    0    0 -0.54768548067E+01  0.15743299093E+02  0.32831882928E+02  0.36820917174E+02  0.00000000000E+00 0. -1.
         11    1    4    4    0    0 -0.13578032151E+02 -0.13081111751E+02 -0.62139011569E+01  0.19851725608E+02  0.51100000000E-03 0. -1.
        -11    1    4    4    0    0  0.64898807667E+01 -0.61324000313E+01 -0.10357563875E+02  0.13674941031E+02  0.51100000000E-03 0.  1.
        -12    1    4    4    0    0  0.12565006191E+02  0.34702126893E+01 -0.16260417896E+02  0.20840416187E+02  0.00000000000E+00 0.  1.
</event>
<event>
 8    1  0.1262344E-006  0.9118800E+02  0.7816164E-02  0.1184000E+00
        -11   -1    0    0    0    0  0.00000000000E+00  0.00000000000E+00  0.45593999997E+02  0.45594000000E+02  0.51100000000E-03 0. -1.
         11   -1    0    0    0    0 -0.00000000000E+00 -0.00000000000E+00 -0.45593999997E+02  0.45594000000E+02  0.51100000000E-03 0.  1.
         23    2    1    2    0    0  0.00000000000E+00  0.00000000000E+00  0.00000000000E+00  0.91188000000E+02  0.91188000000E+02 0.  0.
    9900012    2    3    3    0    0  0.30723499515E+02 -0.16489722376E+02 -0.11829420762E+02  0.54367087979E+02  0.40000008665E+02 0.  0.
         12    1    3    3    0    0 -0.30723499515E+02  0.16489722376E+02  0.11829420762E+02  0.36820912021E+02  0.00000000000E+00 0. -1.
         11    1    4    4    0    0  0.72483075394E+01  0.27372494023E+01  0.61783478396E+01  0.99097163816E+01  0.51100000000E-03 0. -1.
        -11    1    4    4    0    0  0.26762118820E+02 -0.76764148821E+01 -0.84089517643E+01  0.29083480178E+02  0.51100000000E-03 0.  1.
         12    1    4    4    0    0 -0.32869268448E+01 -0.11550556897E+02 -0.95988168374E+01  0.15373891420E+02  0.00000000000E+00 0. -1.
</event>
<event>
 8    1  0.1262344E-006  0.9118800E+02  0.7816164E-02  0.1184000E+00
        -11   -1    0    0    0    0  0.00000000000E+00  0.00000000000E+00  0.45593999997E+02  0.45594000000E+02  0.51100000000E-03 0. -1.
         11   -1    0    0    0    0 -0.00000000000E+00 -0.00000000000E+00 -0.45593999997E+02  0.45594000000E+02  0.51100000000E-03 0.  1.
         23    2    1    2    0    0  0.35527136788E-14 -0.35527136788E-14  0.00000000000E+00  0.91188000000E+02  0.91188000000E+02 0.  0.
    9900012    2    3    3    0    0  0.29686825118E+02  0.20903040872E+02  0.61265856498E+01  0.54367085358E+02  0.40000002692E+02 0.  0.
        -12    1    3    3    0    0 -0.29686825118E+02 -0.20903040872E+02 -0.61265856498E+01  0.36820914642E+02  0.00000000000E+00 0.  1.
         11    1    4    4    0    0 -0.36638031035E-01 -0.70001132871E+01  0.28526251181E+01  0.75591268480E+01  0.51100000000E-03 0. -1.
        -11    1    4    4    0    0  0.84299444053E+01  0.22919371646E+02  0.47924681222E+01  0.24886327778E+02  0.51100000000E-03 0.  1.
         12    1    4    4    0    0  0.21293518744E+02  0.49837825130E+01 -0.15185075905E+01  0.21921630732E+02  0.00000000000E+00 0. -1.
</event>
<event>
 8    1  0.1262344E-006  0.9118800E+02  0.7816164E-02  0.1184000E+00
        -11   -1    0    0    0    0  0.00000000000E+00  0.00000000000E+00  0.45593999997E+02  0.45594000000E+02  0.51100000000E-03 0. -1.
         11   -1    0    0    0    0 -0.00000000000E+00 -0.00000000000E+00 -0.45593999997E+02  0.45594000000E+02  0.51100000000E-03 0.  1.
         23    2    1    2    0    0  0.35527136788E-14 -0.53290705182E-14 -0.35527136788E-14  0.91188000000E+02  0.91188000000E+02 0.  0.
    9900012    2    3    3    0    0  0.16449543495E+02 -0.88761950342E+01 -0.31723892573E+02  0.54367086384E+02  0.40000005030E+02 0.  0.
         12    1    3    3    0    0 -0.16449543495E+02  0.88761950342E+01  0.31723892573E+02  0.36820913616E+02  0.00000000000E+00 0. -1.
         11    1    4    4    0    0  0.69295853772E+01  0.12333956102E+02 -0.12784117249E+02  0.19067755000E+02  0.51100000000E-03 0. -1.
        -11    1    4    4    0    0  0.34135209079E+01 -0.13758161457E+01 -0.13291132809E+02  0.13791272844E+02  0.51100000000E-03 0.  1.
         12    1    4    4    0    0  0.61064372103E+01 -0.19834334991E+02 -0.56486425156E+01  0.21508058541E+02  0.00000000000E+00 0. -1.
</event>
<event>
 8    1  0.1262344E-006  0.9118800E+02  0.7816164E-02  0.1184000E+00
        -11   -1    0    0    0    0  0.00000000000E+00  0.00000000000E+00  0.45593999997E+02  0.45594000000E+02  0.51100000000E-03 0.  1.
         11   -1    0    0    0    0 -0.00000000000E+00 -0.00000000000E+00 -0.45593999997E+02  0.45594000000E+02  0.51100000000E-03 0. -1.
         23    2    1    2    0    0  0.55511151231E-15  0.00000000000E+00  0.71054273576E-14  0.91188000000E+02  0.91188000000E+02 0.  0.
    9900012    2    3    3    0    0  0.82461979255E+00  0.49984659900E+01  0.36470769764E+02  0.54367058849E+02  0.39999942258E+02 0.  0.
         12    1    3    3    0    0 -0.82461979255E+00 -0.49984659900E+01 -0.36470769764E+02  0.36820941151E+02  0.00000000000E+00 0. -1.
         11    1    4    4    0    0  0.98492999642E+01  0.63084068106E+01  0.13563644937E+02  0.17910253223E+02  0.51100000000E-03 0. -1.
        -11    1    4    4    0    0 -0.94814141792E+01 -0.88600416854E+01  0.69867141616E+00  0.12995602930E+02  0.51100000000E-03 0.  1.
         12    1    4    4    0    0  0.45673400753E+00  0.75501008648E+01  0.22208453411E+02  0.23461202696E+02  0.00000000000E+00 0. -1.
</event>
<event>
 8    1  0.1262344E-006  0.9118800E+02  0.7816164E-02  0.1184000E+00
        -11   -1    0    0    0    0  0.00000000000E+00  0.00000000000E+00  0.45593999997E+02  0.45594000000E+02  0.51100000000E-03 0.  1.
         11   -1    0    0    0    0 -0.00000000000E+00 -0.00000000000E+00 -0.45593999997E+02  0.45594000000E+02  0.51100000000E-03 0. -1.
         23    2    1    2    0    0 -0.88817841970E-15  0.55511151231E-15  0.00000000000E+00  0.91188000000E+02  0.91188000000E+02 0.  0.
    9900012    2    3    3    0    0  0.17023615038E+01  0.29257183718E+00 -0.36780343789E+02  0.54367118394E+02  0.40000078004E+02 0.  0.
        -12    1    3    3    0    0 -0.17023615038E+01 -0.29257183718E+00  0.36780343789E+02  0.36820881606E+02  0.00000000000E+00 0.  1.
         11    1    4    4    0    0  0.68649529584E+01  0.57290733263E+01 -0.24778514446E+02  0.26342449368E+02  0.51100000000E-03 0. -1.
        -11    1    4    4    0    0 -0.92191750150E+01  0.63439289686E+01 -0.71609740926E+00  0.11213893993E+02  0.51100000000E-03 0.  1.
        -12    1    4    4    0    0  0.40565835604E+01 -0.11780430458E+02 -0.11285731934E+02  0.16810775034E+02  0.00000000000E+00 0.  1.
</event>
<event>
 8    1  0.1262344E-006  0.9118800E+02  0.7816164E-02  0.1184000E+00
        -11   -1    0    0    0    0  0.00000000000E+00  0.00000000000E+00  0.45593999997E+02  0.45594000000E+02  0.51100000000E-03 0.  1.
         11   -1    0    0    0    0 -0.00000000000E+00 -0.00000000000E+00 -0.45593999997E+02  0.45594000000E+02  0.51100000000E-03 0. -1.
         23    2    1    2    0    0  0.35527136788E-14  0.00000000000E+00 -0.44408920985E-15  0.91188000000E+02  0.91188000000E+02 0.  0.
    9900012    2    3    3    0    0  0.27849889591E+02 -0.23975042065E+02  0.23149613979E+01  0.54367108667E+02  0.40000055829E+02 0.  0.
         12    1    3    3    0    0 -0.27849889591E+02  0.23975042065E+02 -0.23149613979E+01  0.36820891333E+02  0.00000000000E+00 0. -1.
         11    1    4    4    0    0  0.78997294130E+00 -0.49559881704E+01 -0.38675477998E+01  0.63359136861E+01  0.51100000000E-03 0. -1.
        -11    1    4    4    0    0  0.23701366957E+02 -0.25906562934E+02 -0.39425401503E+01  0.35333389616E+02  0.51100000000E-03 0.  1.
        -12    1    4    4    0    0  0.33585496922E+01  0.68875090386E+01  0.10125049348E+02  0.12697805365E+02  0.00000000000E+00 0.  1.
</event>
<event>
 8    1  0.1262344E-006  0.9118800E+02  0.7816164E-02  0.1184000E+00
        -11   -1    0    0    0    0  0.00000000000E+00  0.00000000000E+00  0.45593999997E+02  0.45594000000E+02  0.51100000000E-03 0.  1.
         11   -1    0    0    0    0 -0.00000000000E+00 -0.00000000000E+00 -0.45593999997E+02  0.45594000000E+02  0.51100000000E-03 0. -1.
         23    2    1    2    0    0  0.17763568394E-14  0.00000000000E+00  0.00000000000E+00  0.91188000000E+02  0.91188000000E+02 0.  0.
    9900012    2    3    3    0    0  0.11251118427E+02 -0.93687503741E+01 -0.33784896281E+02  0.54367077060E+02  0.39999983773E+02 0.  0.
        -12    1    3    3    0    0 -0.11251118427E+02  0.93687503741E+01  0.33784896281E+02  0.36820922940E+02  0.00000000000E+00 0.  1.
         11    1    4    4    0    0  0.28056446729E-01  0.53767004104E+01 -0.30235147345E+02  0.30709507155E+02  0.51100000000E-03 0. -1.
        -11    1    4    4    0    0 -0.30047618288E+01 -0.36476690907E+01 -0.30145049367E+01  0.56054726578E+01  0.51100000000E-03 0.  1.
         12    1    4    4    0    0  0.14227823809E+02 -0.11097781694E+02 -0.53524399916E+00  0.18052097247E+02  0.00000000000E+00 0. -1.
</event>
<event>
 8    1  0.1262344E-006  0.9118800E+02  0.7816164E-02  0.1184000E+00
        -11   -1    0    0    0    0  0.00000000000E+00  0.00000000000E+00  0.45593999997E+02  0.45594000000E+02  0.51100000000E-03 0.  1.
         11   -1    0    0    0    0 -0.00000000000E+00 -0.00000000000E+00 -0.45593999997E+02  0.45594000000E+02  0.51100000000E-03 0. -1.
         23    2    1    2    0    0  0.13322676296E-14  0.35527136788E-14  0.35527136788E-14  0.91188000000E+02  0.91188000000E+02 0.  0.
    9900012    2    3    3    0    0  0.10593907716E+01 -0.27856326207E+02 -0.24055833806E+02  0.54367077162E+02  0.39999984007E+02 0.  0.
        -12    1    3    3    0    0 -0.10593907716E+01  0.27856326207E+02  0.24055833806E+02  0.36820922838E+02  0.00000000000E+00 0.  1.
         11    1    4    4    0    0 -0.13684271094E+02 -0.82897574379E+01 -0.14740320373E+02  0.21754456985E+02  0.51100000000E-03 0. -1.
        -11    1    4    4    0    0  0.47148093835E+00  0.27958420763E+01 -0.49819814364E+01  0.57322915562E+01  0.51100000000E-03 0.  1.
        -12    1    4    4    0    0  0.14272180927E+02 -0.22362410845E+02 -0.43335319957E+01  0.26880328621E+02  0.00000000000E+00 0.  1.
</event>
<event>
 8    1  0.1262344E-006  0.9118800E+02  0.7816164E-02  0.1184000E+00
        -11   -1    0    0    0    0  0.00000000000E+00  0.00000000000E+00  0.45593999997E+02  0.45594000000E+02  0.51100000000E-03 0. -1.
         11   -1    0    0    0    0 -0.00000000000E+00 -0.00000000000E+00 -0.45593999997E+02  0.45594000000E+02  0.51100000000E-03 0.  1.
         23    2    1    2    0    0  0.00000000000E+00 -0.17763568394E-14 -0.35527136788E-14  0.91188000000E+02  0.91188000000E+02 0.  0.
    9900012    2    3    3    0    0  0.17659649969E+02  0.12169745642E+02 -0.29930229963E+02  0.54367019409E+02  0.39999852347E+02 0.  0.
         12    1    3    3    0    0 -0.17659649969E+02 -0.12169745642E+02  0.29930229963E+02  0.36820980591E+02  0.00000000000E+00 0. -1.
         11    1    4    4    0    0  0.11522486665E+00 -0.55640308496E+01 -0.23462408952E+02  0.24113406026E+02  0.51100000000E-03 0. -1.
        -11    1    4    4    0    0  0.40421435685E+01  0.46507365032E+01 -0.93856082213E+01  0.11227551674E+02  0.51100000000E-03 0.  1.
         12    1    4    4    0    0  0.13502281534E+02  0.13083039989E+02  0.29177872106E+01  0.19026061710E+02  0.00000000000E+00 0. -1.
</event>
<event>
 8    1  0.1262344E-006  0.9118800E+02  0.7816164E-02  0.1184000E+00
        -11   -1    0    0    0    0  0.00000000000E+00  0.00000000000E+00  0.45593999997E+02  0.45594000000E+02  0.51100000000E-03 0. -1.
         11   -1    0    0    0    0 -0.00000000000E+00 -0.00000000000E+00 -0.45593999997E+02  0.45594000000E+02  0.51100000000E-03 0.  1.
         23    2    1    2    0    0  0.00000000000E+00  0.17763568394E-14  0.88817841970E-15  0.91188000000E+02  0.91188000000E+02 0.  0.
    9900012    2    3    3    0    0 -0.32964929865E+02 -0.15595517762E+02 -0.50865937478E+01  0.54367079164E+02  0.39999988570E+02 0.  0.
        -12    1    3    3    0    0  0.32964929865E+02  0.15595517762E+02  0.50865937478E+01  0.36820920836E+02  0.00000000000E+00 0.  1.
         11    1    4    4    0    0 -0.57594358910E+01 -0.91291312540E+01  0.18060111203E+01  0.10944122425E+02  0.51100000000E-03 0. -1.
        -11    1    4    4    0    0 -0.31715731289E+02 -0.14639552640E+01 -0.13021818953E+02  0.34316155748E+02  0.51100000000E-03 0.  1.
        -12    1    4    4    0    0  0.45102373149E+01 -0.50024312442E+01  0.61292140849E+01  0.91068009909E+01  0.00000000000E+00 0.  1.
</event>
<event>
 8    1  0.1262344E-006  0.9118800E+02  0.7816164E-02  0.1184000E+00
        -11   -1    0    0    0    0  0.00000000000E+00  0.00000000000E+00  0.45593999997E+02  0.45594000000E+02  0.51100000000E-03 0. -1.
         11   -1    0    0    0    0 -0.00000000000E+00 -0.00000000000E+00 -0.45593999997E+02  0.45594000000E+02  0.51100000000E-03 0.  1.
         23    2    1    2    0    0  0.00000000000E+00 -0.17763568394E-14 -0.35527136788E-14  0.91188000000E+02  0.91188000000E+02 0.  0.
    9900012    2    3    3    0    0 -0.26635988251E+02 -0.96969184611E+01  0.23500491440E+02  0.54367092954E+02  0.40000020007E+02 0.  0.
        -12    1    3    3    0    0  0.26635988251E+02  0.96969184611E+01 -0.23500491440E+02  0.36820907046E+02  0.00000000000E+00 0.  1.
         11    1    4    4    0    0 -0.47389886540E+01 -0.25206047286E+01 -0.17755033968E+01  0.56536602509E+01  0.51100000000E-03 0. -1.
        -11    1    4    4    0    0 -0.23129134180E+02 -0.84797230812E+01  0.12983220147E+01  0.24668769563E+02  0.51100000000E-03 0.  1.
        -12    1    4    4    0    0  0.12321345824E+01  0.13034093486E+01  0.23977672822E+02  0.24044663140E+02  0.00000000000E+00 0.  1.
</event>
<event>
 8    1  0.1262344E-006  0.9118800E+02  0.7816164E-02  0.1184000E+00
        -11   -1    0    0    0    0  0.00000000000E+00  0.00000000000E+00  0.45593999997E+02  0.45594000000E+02  0.51100000000E-03 0.  1.
         11   -1    0    0    0    0 -0.00000000000E+00 -0.00000000000E+00 -0.45593999997E+02  0.45594000000E+02  0.51100000000E-03 0. -1.
         23    2    1    2    0    0 -0.21371793224E-14  0.00000000000E+00  0.00000000000E+00  0.91188000000E+02  0.91188000000E+02 0.  0.
    9900012    2    3    3    0    0 -0.14932454520E+00 -0.72264385430E+01 -0.36104539384E+02  0.54367061989E+02  0.39999949417E+02 0.  0.
        -12    1    3    3    0    0  0.14932454520E+00  0.72264385430E+01  0.36104539384E+02  0.36820938011E+02  0.00000000000E+00 0.  1.
         11    1    4    4    0    0 -0.10472001883E+02 -0.13158643681E+01 -0.42652776566E+01  0.11383624916E+02  0.51100000000E-03 0. -1.
        -11    1    4    4    0    0  0.67509410930E+01  0.45008889303E+01  0.11605274046E+01  0.81963425332E+01  0.51100000000E-03 0.  1.
        -12    1    4    4    0    0  0.35717362448E+01 -0.10411463105E+02 -0.32999789132E+02  0.34787094540E+02  0.00000000000E+00 0.  1.
</event>
<event>
 8    1  0.1262344E-006  0.9118800E+02  0.7816164E-02  0.1184000E+00
        -11   -1    0    0    0    0  0.00000000000E+00  0.00000000000E+00  0.45593999997E+02  0.45594000000E+02  0.51100000000E-03 0.  1.
         11   -1    0    0    0    0 -0.00000000000E+00 -0.00000000000E+00 -0.45593999997E+02  0.45594000000E+02  0.51100000000E-03 0. -1.
         23    2    1    2    0    0  0.71054273576E-14 -0.13322676296E-14  0.44408920985E-15  0.91188000000E+02  0.91188000000E+02 0.  0.
    9900012    2    3    3    0    0  0.36577398859E+02  0.31300971840E+01 -0.28419042917E+01  0.54367081548E+02  0.39999994005E+02 0.  0.
        -12    1    3    3    0    0 -0.36577398859E+02 -0.31300971840E+01  0.28419042917E+01  0.36820918452E+02  0.00000000000E+00 0.  1.
         11    1    4    4    0    0  0.16838447445E+02 -0.12944684516E+01  0.57025127586E+01  0.17824915510E+02  0.51100000000E-03 0. -1.
        -11    1    4    4    0    0 -0.33344275462E+01 -0.56355700954E+01  0.47370523554E+01  0.80819380497E+01  0.51100000000E-03 0.  1.
        -12    1    4    4    0    0  0.23073378960E+02  0.10060135731E+02 -0.13281469406E+02  0.28460227988E+02  0.00000000000E+00 0.  1.
</event>
<event>
 8    1  0.1262344E-006  0.9118800E+02  0.7816164E-02  0.1184000E+00
        -11   -1    0    0    0    0  0.00000000000E+00  0.00000000000E+00  0.45593999997E+02  0.45594000000E+02  0.51100000000E-03 0.  1.
         11   -1    0    0    0    0 -0.00000000000E+00 -0.00000000000E+00 -0.45593999997E+02  0.45594000000E+02  0.51100000000E-03 0. -1.
         23    2    1    2    0    0 -0.17763568394E-14  0.00000000000E+00  0.17763568394E-14  0.91188000000E+02  0.91188000000E+02 0.  0.
    9900012    2    3    3    0    0  0.42012180528E+01 -0.33127539405E+02 -0.15514373195E+02  0.54367083719E+02  0.39999998953E+02 0.  0.
         12    1    3    3    0    0 -0.42012180528E+01  0.33127539405E+02  0.15514373195E+02  0.36820916281E+02  0.00000000000E+00 0. -1.
         11    1    4    4    0    0 -0.71398639952E+01 -0.62787008002E+00  0.11720437542E+01  0.72626142353E+01  0.51100000000E-03 0. -1.
        -11    1    4    4    0    0  0.33530845352E+01 -0.79705352031E+01  0.77198581313E+01  0.11591756431E+02  0.51100000000E-03 0.  1.
         12    1    4    4    0    0  0.79879975128E+01 -0.24529134122E+02 -0.24406275080E+02  0.35512713052E+02  0.00000000000E+00 0. -1.
</event>
<event>
 8    1  0.1262344E-006  0.9118800E+02  0.7816164E-02  0.1184000E+00
        -11   -1    0    0    0    0  0.00000000000E+00  0.00000000000E+00  0.45593999997E+02  0.45594000000E+02  0.51100000000E-03 0. -1.
         11   -1    0    0    0    0 -0.00000000000E+00 -0.00000000000E+00 -0.45593999997E+02  0.45594000000E+02  0.51100000000E-03 0.  1.
         23    2    1    2    0    0 -0.17763568394E-14  0.35527136788E-14  0.00000000000E+00  0.91188000000E+02  0.91188000000E+02 0.  0.
    9900012    2    3    3    0    0  0.15280042110E+02  0.16398886655E+02 -0.29212516239E+02  0.54367159767E+02  0.40000172321E+02 0.  0.
         12    1    3    3    0    0 -0.15280042110E+02 -0.16398886655E+02  0.29212516239E+02  0.36820840233E+02  0.00000000000E+00 0. -1.
         11    1    4    4    0    0  0.18878319314E+02  0.11980043712E+01 -0.44506713111E+01  0.19432823520E+02  0.51100000000E-03 0. -1.
        -11    1    4    4    0    0  0.31196100534E+01  0.16542505599E+02 -0.12792429118E+02  0.21143147858E+02  0.51100000000E-03 0.  1.
         12    1    4    4    0    0 -0.67178872572E+01 -0.13416233151E+01 -0.11969415810E+02  0.13791188388E+02  0.00000000000E+00 0. -1.
</event>
<event>
 8    1  0.1262344E-006  0.9118800E+02  0.7816164E-02  0.1184000E+00
        -11   -1    0    0    0    0  0.00000000000E+00  0.00000000000E+00  0.45593999997E+02  0.45594000000E+02  0.51100000000E-03 0. -1.
         11   -1    0    0    0    0 -0.00000000000E+00 -0.00000000000E+00 -0.45593999997E+02  0.45594000000E+02  0.51100000000E-03 0.  1.
         23    2    1    2    0    0  0.35527136788E-14  0.00000000000E+00  0.00000000000E+00  0.91188000000E+02  0.91188000000E+02 0.  0.
    9900012    2    3    3    0    0  0.24577590126E+02 -0.56640063267E+01  0.26826099215E+02  0.54367102358E+02  0.40000041445E+02 0.  0.
        -12    1    3    3    0    0 -0.24577590126E+02  0.56640063267E+01 -0.26826099215E+02  0.36820897642E+02  0.00000000000E+00 0.  1.
         11    1    4    4    0    0  0.18965806002E+02  0.12289312296E+02  0.53827260746E+01  0.23231503057E+02  0.51100000000E-03 0. -1.
        -11    1    4    4    0    0 -0.24372220574E+00 -0.75075807570E+01  0.16595924857E+02  0.18216692660E+02  0.51100000000E-03 0.  1.
        -12    1    4    4    0    0  0.58555063304E+01 -0.10445737866E+02  0.48474482832E+01  0.12918906641E+02  0.00000000000E+00 0.  1.
</event>
<event>
 8    1  0.1262344E-006  0.9118800E+02  0.7816164E-02  0.1184000E+00
        -11   -1    0    0    0    0  0.00000000000E+00  0.00000000000E+00  0.45593999997E+02  0.45594000000E+02  0.51100000000E-03 0.  1.
         11   -1    0    0    0    0 -0.00000000000E+00 -0.00000000000E+00 -0.45593999997E+02  0.45594000000E+02  0.51100000000E-03 0. -1.
         23    2    1    2    0    0  0.17763568394E-14  0.00000000000E+00  0.00000000000E+00  0.91188000000E+02  0.91188000000E+02 0.  0.
    9900012    2    3    3    0    0 -0.51903272548E+01 -0.16810449092E+02 -0.32345788498E+02  0.54367072129E+02  0.39999972533E+02 0.  0.
        -12    1    3    3    0    0  0.51903272548E+01  0.16810449092E+02  0.32345788498E+02  0.36820927871E+02  0.00000000000E+00 0.  1.
         11    1    4    4    0    0  0.91777073497E+01  0.30181646995E+01 -0.10171876468E+02  0.14028781183E+02  0.51100000000E-03 0. -1.
        -11    1    4    4    0    0 -0.82014979905E+01  0.39298988791E+01 -0.49701980615E+01  0.10363954049E+02  0.51100000000E-03 0.  1.
         12    1    4    4    0    0 -0.61665366140E+01 -0.23758512671E+02 -0.17203713969E+02  0.29974336898E+02  0.00000000000E+00 0. -1.
</event>
<event>
 8    1  0.1262344E-006  0.9118800E+02  0.7816164E-02  0.1184000E+00
        -11   -1    0    0    0    0  0.00000000000E+00  0.00000000000E+00  0.45593999997E+02  0.45594000000E+02  0.51100000000E-03 0.  1.
         11   -1    0    0    0    0 -0.00000000000E+00 -0.00000000000E+00 -0.45593999997E+02  0.45594000000E+02  0.51100000000E-03 0. -1.
         23    2    1    2    0    0  0.35527136788E-14  0.00000000000E+00  0.00000000000E+00  0.91188000000E+02  0.91188000000E+02 0.  0.
    9900012    2    3    3    0    0  0.30324463186E+02 -0.13239548450E+02  0.16153062037E+02  0.54367080351E+02  0.39999991275E+02 0.  0.
         12    1    3    3    0    0 -0.30324463186E+02  0.13239548450E+02 -0.16153062037E+02  0.36820919649E+02  0.00000000000E+00 0. -1.
         11    1    4    4    0    0  0.19023594891E+02  0.94031085444E+00  0.13695355713E+02  0.23459414218E+02  0.51100000000E-03 0.  1.
        -11    1    4    4    0    0  0.13613170569E+02  0.18337046740E+01  0.48183905407E+01  0.14556708880E+02  0.51100000000E-03 0. -1.
         12    1    4    4    0    0 -0.23123022740E+01 -0.16013563978E+02 -0.23606842171E+01  0.16350957252E+02  0.00000000000E+00 0. -1.
</event>
<event>
 8    1  0.1262344E-006  0.9118800E+02  0.7816164E-02  0.1184000E+00
        -11   -1    0    0    0    0  0.00000000000E+00  0.00000000000E+00  0.45593999997E+02  0.45594000000E+02  0.51100000000E-03 0. -1.
         11   -1    0    0    0    0 -0.00000000000E+00 -0.00000000000E+00 -0.45593999997E+02  0.45594000000E+02  0.51100000000E-03 0.  1.
         23    2    1    2    0    0  0.71054273576E-14  0.00000000000E+00  0.00000000000E+00  0.91188000000E+02  0.91188000000E+02 0.  0.
    9900012    2    3    3    0    0 -0.27806942047E+02  0.12629934550E+02 -0.20567916497E+02  0.54367075762E+02  0.39999980814E+02 0.  0.
        -12    1    3    3    0    0  0.27806942047E+02 -0.12629934550E+02  0.20567916497E+02  0.36820924238E+02  0.00000000000E+00 0.  1.
         11    1    4    4    0    0 -0.27833477266E+02  0.19640053737E+02 -0.12081662602E+02  0.36144166044E+02  0.51100000000E-03 0. -1.
        -11    1    4    4    0    0 -0.63494386374E+01 -0.53620350940E+00 -0.61162513028E+01  0.88324071166E+01  0.51100000000E-03 0.  1.
        -12    1    4    4    0    0  0.63759738567E+01 -0.64739156775E+01 -0.23700025920E+01  0.93905026014E+01  0.00000000000E+00 0.  1.
</event>
<event>
 8    1  0.1262344E-006  0.9118800E+02  0.7816164E-02  0.1184000E+00
        -11   -1    0    0    0    0  0.00000000000E+00  0.00000000000E+00  0.45593999997E+02  0.45594000000E+02  0.51100000000E-03 0.  1.
         11   -1    0    0    0    0 -0.00000000000E+00 -0.00000000000E+00 -0.45593999997E+02  0.45594000000E+02  0.51100000000E-03 0. -1.
         23    2    1    2    0    0  0.35527136788E-14  0.00000000000E+00  0.00000000000E+00  0.91188000000E+02  0.91188000000E+02 0.  0.
    9900012    2    3    3    0    0  0.25388183670E+02  0.26041541237E+02  0.57496281740E+01  0.54367082518E+02  0.39999996217E+02 0.  0.
         12    1    3    3    0    0 -0.25388183670E+02 -0.26041541237E+02 -0.57496281740E+01  0.36820917482E+02  0.00000000000E+00 0. -1.
         11    1    4    4    0    0  0.52515630680E+01  0.78746255885E+01  0.14478172415E+01  0.95752189449E+01  0.51100000000E-03 0. -1.
        -11    1    4    4    0    0  0.30197051813E+02  0.10847611243E+02  0.41158495810E+01  0.32349232230E+02  0.51100000000E-03 0.  1.
         12    1    4    4    0    0 -0.10060431211E+02  0.73193044051E+01  0.18596135148E+00  0.12442631343E+02  0.00000000000E+00 0. -1.
</event>
<event>
 8    1  0.1262344E-006  0.9118800E+02  0.7816164E-02  0.1184000E+00
        -11   -1    0    0    0    0  0.00000000000E+00  0.00000000000E+00  0.45593999997E+02  0.45594000000E+02  0.51100000000E-03 0.  1.
         11   -1    0    0    0    0 -0.00000000000E+00 -0.00000000000E+00 -0.45593999997E+02  0.45594000000E+02  0.51100000000E-03 0. -1.
         23    2    1    2    0    0  0.00000000000E+00 -0.35527136788E-14 -0.88817841970E-15  0.91188000000E+02  0.91188000000E+02 0.  0.
    9900012    2    3    3    0    0 -0.27838932564E+02 -0.23876769828E+02  0.32674077067E+01  0.54367051386E+02  0.39999925245E+02 0.  0.
         12    1    3    3    0    0  0.27838932564E+02  0.23876769828E+02 -0.32674077067E+01  0.36820948614E+02  0.00000000000E+00 0. -1.
         11    1    4    4    0    0  0.23119755184E+01 -0.24723295277E+01 -0.51738255538E+01  0.61827271663E+01  0.51100000000E-03 0. -1.
        -11    1    4    4    0    0 -0.10471037579E+02  0.41839258429E+01 -0.60538525229E+01  0.12798319970E+02  0.51100000000E-03 0.  1.
        -12    1    4    4    0    0 -0.19679870503E+02 -0.25588366143E+02  0.14495085783E+02  0.35386004250E+02  0.00000000000E+00 0.  1.
</event>
<event>
 8    1  0.1262344E-006  0.9118800E+02  0.7816164E-02  0.1184000E+00
        -11   -1    0    0    0    0  0.00000000000E+00  0.00000000000E+00  0.45593999997E+02  0.45594000000E+02  0.51100000000E-03 0.  1.
         11   -1    0    0    0    0 -0.00000000000E+00 -0.00000000000E+00 -0.45593999997E+02  0.45594000000E+02  0.51100000000E-03 0. -1.
         23    2    1    2    0    0 -0.17763568394E-14  0.00000000000E+00  0.00000000000E+00  0.91188000000E+02  0.91188000000E+02 0.  0.
    9900012    2    3    3    0    0 -0.10598557741E+02 -0.20543395224E+02  0.28660415128E+02  0.54367083270E+02  0.39999997931E+02 0.  0.
         12    1    3    3    0    0  0.10598557741E+02  0.20543395224E+02 -0.28660415128E+02  0.36820916730E+02  0.00000000000E+00 0. -1.
         11    1    4    4    0    0  0.18025376126E+01 -0.19804333225E+02  0.16526023031E+02  0.25856724344E+02  0.51100000000E-03 0. -1.
        -11    1    4    4    0    0  0.53749596649E+01  0.51388651736E+00  0.88840763062E+01  0.10396205213E+02  0.51100000000E-03 0.  1.
         12    1    4    4    0    0 -0.17776055018E+02 -0.12529485162E+01  0.32503157909E+01  0.18114153713E+02  0.00000000000E+00 0. -1.
</event>
<event>
 8    1  0.1262344E-006  0.9118800E+02  0.7816164E-02  0.1184000E+00
        -11   -1    0    0    0    0  0.00000000000E+00  0.00000000000E+00  0.45593999997E+02  0.45594000000E+02  0.51100000000E-03 0. -1.
         11   -1    0    0    0    0 -0.00000000000E+00 -0.00000000000E+00 -0.45593999997E+02  0.45594000000E+02  0.51100000000E-03 0.  1.
         23    2    1    2    0    0 -0.17763568394E-14  0.00000000000E+00 -0.17763568394E-14  0.91188000000E+02  0.91188000000E+02 0.  0.
    9900012    2    3    3    0    0 -0.15974595101E+02  0.32094478846E+02  0.83986059232E+01  0.54367084171E+02  0.39999999984E+02 0.  0.
        -12    1    3    3    0    0  0.15974595101E+02 -0.32094478846E+02 -0.83986059232E+01  0.36820915829E+02  0.00000000000E+00 0.  1.
         11    1    4    4    0    0 -0.73875251658E+01 -0.62507046159E+01  0.24592626493E+01  0.99847288050E+01  0.51100000000E-03 0. -1.
        -11    1    4    4    0    0  0.22431257676E+01  0.11623813832E+02 -0.58836417738E+01  0.13219754233E+02  0.51100000000E-03 0.  1.
         12    1    4    4    0    0 -0.10830195703E+02  0.26721369630E+02  0.11822985048E+02  0.31162601132E+02  0.00000000000E+00 0. -1.
</event>
<event>
 8    1  0.1262344E-006  0.9118800E+02  0.7816164E-02  0.1184000E+00
        -11   -1    0    0    0    0  0.00000000000E+00  0.00000000000E+00  0.45593999997E+02  0.45594000000E+02  0.51100000000E-03 0. -1.
         11   -1    0    0    0    0 -0.00000000000E+00 -0.00000000000E+00 -0.45593999997E+02  0.45594000000E+02  0.51100000000E-03 0.  1.
         23    2    1    2    0    0 -0.17763568394E-14  0.00000000000E+00  0.00000000000E+00  0.91188000000E+02  0.91188000000E+02 0.  0.
    9900012    2    3    3    0    0  0.10410058583E+02 -0.25035047325E+02  0.24913012417E+02  0.54367067068E+02  0.39999960994E+02 0.  0.
        -12    1    3    3    0    0 -0.10410058583E+02  0.25035047325E+02 -0.24913012417E+02  0.36820932932E+02  0.00000000000E+00 0.  1.
         11    1    4    4    0    0 -0.52562985838E+01 -0.75270666638E+01 -0.15369312039E+01  0.93084673900E+01  0.51100000000E-03 0. -1.
        -11    1    4    4    0    0 -0.21312538477E+01  0.63034981773E+01  0.36127129519E+01  0.75715274132E+01  0.51100000000E-03 0.  1.
         12    1    4    4    0    0  0.17797611015E+02 -0.23811478839E+02  0.22837230669E+02  0.37487072265E+02  0.00000000000E+00 0. -1.
</event>
<event>
 8    1  0.1262344E-006  0.9118800E+02  0.7816164E-02  0.1184000E+00
        -11   -1    0    0    0    0  0.00000000000E+00  0.00000000000E+00  0.45593999997E+02  0.45594000000E+02  0.51100000000E-03 0.  1.
         11   -1    0    0    0    0 -0.00000000000E+00 -0.00000000000E+00 -0.45593999997E+02  0.45594000000E+02  0.51100000000E-03 0. -1.
         23    2    1    2    0    0  0.00000000000E+00  0.00000000000E+00  0.00000000000E+00  0.91188000000E+02  0.91188000000E+02 0.  0.
    9900012    2    3    3    0    0  0.25863916875E+02  0.24844183998E+02 -0.83429367384E+01  0.54367078392E+02  0.39999986810E+02 0.  0.
        -12    1    3    3    0    0 -0.25863916875E+02 -0.24844183998E+02  0.83429367384E+01  0.36820921608E+02  0.00000000000E+00 0.  1.
         11    1    4    4    0    0  0.67656323306E+01  0.29296925314E+01  0.94569953040E+01  0.11991315174E+02  0.51100000000E-03 0. -1.
        -11    1    4    4    0    0  0.32044509221E+01  0.14108723553E+02  0.32905845472E+01  0.14837537967E+02  0.51100000000E-03 0.  1.
         12    1    4    4    0    0  0.15893833623E+02  0.78057679137E+01 -0.21090516590E+02  0.27538225251E+02  0.00000000000E+00 0. -1.
</event>
<event>
 8    1  0.1262344E-006  0.9118800E+02  0.7816164E-02  0.1184000E+00
        -11   -1    0    0    0    0  0.00000000000E+00  0.00000000000E+00  0.45593999997E+02  0.45594000000E+02  0.51100000000E-03 0.  1.
         11   -1    0    0    0    0 -0.00000000000E+00 -0.00000000000E+00 -0.45593999997E+02  0.45594000000E+02  0.51100000000E-03 0. -1.
         23    2    1    2    0    0  0.00000000000E+00  0.00000000000E+00  0.35527136788E-14  0.91188000000E+02  0.91188000000E+02 0.  0.
    9900012    2    3    3    0    0 -0.23830115194E+02  0.16522449396E+02 -0.22691685822E+02  0.54367104714E+02  0.40000046817E+02 0.  0.
        -12    1    3    3    0    0  0.23830115194E+02 -0.16522449396E+02  0.22691685822E+02  0.36820895286E+02  0.00000000000E+00 0.  1.
         11    1    4    4    0    0  0.15298295013E+01  0.13264815242E+02 -0.16425922823E+02  0.21168529532E+02  0.51100000000E-03 0. -1.
        -11    1    4    4    0    0 -0.18832468135E+02  0.95515132046E+01 -0.10034309232E+02  0.23379063766E+02  0.51100000000E-03 0.  1.
        -12    1    4    4    0    0 -0.65274765599E+01 -0.62938790502E+01  0.37685462332E+01  0.98195114161E+01  0.00000000000E+00 0.  1.
</event>
<event>
 8    1  0.1262344E-006  0.9118800E+02  0.7816164E-02  0.1184000E+00
        -11   -1    0    0    0    0  0.00000000000E+00  0.00000000000E+00  0.45593999997E+02  0.45594000000E+02  0.51100000000E-03 0. -1.
         11   -1    0    0    0    0 -0.00000000000E+00 -0.00000000000E+00 -0.45593999997E+02  0.45594000000E+02  0.51100000000E-03 0.  1.
         23    2    1    2    0    0 -0.71054273576E-14 -0.88817841970E-15  0.00000000000E+00  0.91188000000E+02  0.91188000000E+02 0.  0.
    9900012    2    3    3    0    0 -0.36259632405E+02  0.30494943367E+01 -0.56320030185E+01  0.54367084533E+02  0.40000000809E+02 0.  0.
        -12    1    3    3    0    0  0.36259632405E+02 -0.30494943367E+01  0.56320030185E+01  0.36820915467E+02  0.00000000000E+00 0.  1.
         11    1    4    4    0    0  0.54117796251E+01 -0.30157598626E+00  0.46899099679E+01  0.71675353193E+01  0.51100000000E-03 0. -1.
        -11    1    4    4    0    0 -0.16850007320E+02  0.96823659981E+01  0.38064448615E+00  0.19437485653E+02  0.51100000000E-03 0.  1.
        -12    1    4    4    0    0 -0.24821404710E+02 -0.63312956751E+01 -0.10702557473E+02  0.27762063561E+02  0.00000000000E+00 0.  1.
</event>
<event>
 8    1  0.1262344E-006  0.9118800E+02  0.7816164E-02  0.1184000E+00
        -11   -1    0    0    0    0  0.00000000000E+00  0.00000000000E+00  0.45593999997E+02  0.45594000000E+02  0.51100000000E-03 0. -1.
         11   -1    0    0    0    0 -0.00000000000E+00 -0.00000000000E+00 -0.45593999997E+02  0.45594000000E+02  0.51100000000E-03 0.  1.
         23    2    1    2    0    0  0.00000000000E+00  0.00000000000E+00  0.00000000000E+00  0.91188000000E+02  0.91188000000E+02 0.  0.
    9900012    2    3    3    0    0 -0.12237912597E+02  0.34533585890E+02  0.36665095510E+01  0.54367104418E+02  0.40000046141E+02 0.  0.
         12    1    3    3    0    0  0.12237912597E+02 -0.34533585890E+02 -0.36665095510E+01  0.36820895582E+02  0.00000000000E+00 0. -1.
         11    1    4    4    0    0 -0.36424391950E+01 -0.50526580684E+01 -0.85863689077E+01  0.10607659880E+02  0.51100000000E-03 0. -1.
        -11    1    4    4    0    0  0.11814519094E+01  0.49243763493E+01 -0.13838368867E+01  0.52497919800E+01  0.51100000000E-03 0.  1.
        -12    1    4    4    0    0 -0.97769253118E+01  0.34661867609E+02  0.13636715345E+02  0.38509652558E+02  0.00000000000E+00 0.  1.
</event>
<event>
 8    1  0.1262344E-006  0.9118800E+02  0.7816164E-02  0.1184000E+00
        -11   -1    0    0    0    0  0.00000000000E+00  0.00000000000E+00  0.45593999997E+02  0.45594000000E+02  0.51100000000E-03 0.  1.
         11   -1    0    0    0    0 -0.00000000000E+00 -0.00000000000E+00 -0.45593999997E+02  0.45594000000E+02  0.51100000000E-03 0. -1.
         23    2    1    2    0    0  0.00000000000E+00  0.17763568394E-14 -0.35527136788E-14  0.91188000000E+02  0.91188000000E+02 0.  0.
    9900012    2    3    3    0    0 -0.24711584705E+02  0.15123437964E+02  0.22724491656E+02  0.54367037010E+02  0.39999892472E+02 0.  0.
         12    1    3    3    0    0  0.24711584705E+02 -0.15123437964E+02 -0.22724491656E+02  0.36820962990E+02  0.00000000000E+00 0. -1.
         11    1    4    4    0    0  0.51558466076E+01  0.12083081300E+02  0.93715732670E+01  0.16137223854E+02  0.51100000000E-03 0. -1.
        -11    1    4    4    0    0 -0.19900484083E+02  0.68385006104E+01  0.16900420005E+02  0.26989230332E+02  0.51100000000E-03 0.  1.
         12    1    4    4    0    0 -0.99669472297E+01 -0.37981439467E+01 -0.35475016155E+01  0.11240582824E+02  0.00000000000E+00 0. -1.
</event>
<event>
 8    1  0.1262344E-006  0.9118800E+02  0.7816164E-02  0.1184000E+00
        -11   -1    0    0    0    0  0.00000000000E+00  0.00000000000E+00  0.45593999997E+02  0.45594000000E+02  0.51100000000E-03 0. -1.
         11   -1    0    0    0    0 -0.00000000000E+00 -0.00000000000E+00 -0.45593999997E+02  0.45594000000E+02  0.51100000000E-03 0.  1.
         23    2    1    2    0    0  0.00000000000E+00  0.11102230246E-14  0.00000000000E+00  0.91188000000E+02  0.91188000000E+02 0.  0.
    9900012    2    3    3    0    0 -0.17082006213E+02  0.13993358784E+01 -0.32588780754E+02  0.54367058836E+02  0.39999942228E+02 0.  0.
         12    1    3    3    0    0  0.17082006213E+02 -0.13993358784E+01  0.32588780754E+02  0.36820941164E+02  0.00000000000E+00 0. -1.
         11    1    4    4    0    0 -0.25908129421E+01  0.10736078991E+02  0.45803438070E+01  0.11956389650E+02  0.51100000000E-03 0. -1.
        -11    1    4    4    0    0 -0.14316540373E+02 -0.71997413615E+01 -0.22717185271E+02  0.27800541556E+02  0.51100000000E-03 0.  1.
        -12    1    4    4    0    0 -0.17465289849E+00 -0.21370017512E+01 -0.14451939290E+02  0.14610127630E+02  0.00000000000E+00 0.  1.
</event>
<event>
 8    1  0.1262344E-006  0.9118800E+02  0.7816164E-02  0.1184000E+00
        -11   -1    0    0    0    0  0.00000000000E+00  0.00000000000E+00  0.45593999997E+02  0.45594000000E+02  0.51100000000E-03 0. -1.
         11   -1    0    0    0    0 -0.00000000000E+00 -0.00000000000E+00 -0.45593999997E+02  0.45594000000E+02  0.51100000000E-03 0.  1.
         23    2    1    2    0    0  0.00000000000E+00  0.17763568394E-14 -0.17763568394E-14  0.91188000000E+02  0.91188000000E+02 0.  0.
    9900012    2    3    3    0    0 -0.32197412048E+02 -0.14485134815E+02  0.10454130067E+02  0.54367064262E+02  0.39999954597E+02 0.  0.
         12    1    3    3    0    0  0.32197412048E+02  0.14485134815E+02 -0.10454130067E+02  0.36820935738E+02  0.00000000000E+00 0. -1.
         11    1    4    4    0    0 -0.16028149602E+02 -0.55601590168E+00  0.18978184117E+02  0.24847177022E+02  0.51100000000E-03 0. -1.
        -11    1    4    4    0    0 -0.19568266069E+02 -0.94221490220E+01 -0.35713138738E+01  0.22010184283E+02  0.51100000000E-03 0.  1.
        -12    1    4    4    0    0  0.33990036232E+01 -0.45069698914E+01 -0.49527401761E+01  0.75097029558E+01  0.00000000000E+00 0.  1.
</event>
<event>
 8    1  0.1262344E-006  0.9118800E+02  0.7816164E-02  0.1184000E+00
        -11   -1    0    0    0    0  0.00000000000E+00  0.00000000000E+00  0.45593999997E+02  0.45594000000E+02  0.51100000000E-03 0.  1.
         11   -1    0    0    0    0 -0.00000000000E+00 -0.00000000000E+00 -0.45593999997E+02  0.45594000000E+02  0.51100000000E-03 0. -1.
         23    2    1    2    0    0 -0.35527136788E-14 -0.35527136788E-14  0.35527136788E-14  0.91188000000E+02  0.91188000000E+02 0.  0.
    9900012    2    3    3    0    0 -0.21083544376E+02 -0.13286725034E+02  0.27105846369E+02  0.54367084572E+02  0.40000000898E+02 0.  0.
        -12    1    3    3    0    0  0.21083544376E+02  0.13286725034E+02 -0.27105846369E+02  0.36820915428E+02  0.00000000000E+00 0.  1.
         11    1    4    4    0    0 -0.35441432844E+01  0.51120672154E+01  0.62113138406E+01  0.87905974042E+01  0.51100000000E-03 0. -1.
        -11    1    4    4    0    0  0.75616533029E+01 -0.17806623281E+01 -0.16810376006E+01  0.79482857696E+01  0.51100000000E-03 0.  1.
         12    1    4    4    0    0 -0.25101054394E+02 -0.16618129921E+02  0.22575570129E+02  0.37628201398E+02  0.00000000000E+00 0. -1.
</event>
<event>
 8    1  0.1262344E-006  0.9118800E+02  0.7816164E-02  0.1184000E+00
        -11   -1    0    0    0    0  0.00000000000E+00  0.00000000000E+00  0.45593999997E+02  0.45594000000E+02  0.51100000000E-03 0.  1.
         11   -1    0    0    0    0 -0.00000000000E+00 -0.00000000000E+00 -0.45593999997E+02  0.45594000000E+02  0.51100000000E-03 0. -1.
         23    2    1    2    0    0  0.17763568394E-14  0.35527136788E-14 -0.35527136788E-14  0.91188000000E+02  0.91188000000E+02 0.  0.
    9900012    2    3    3    0    0 -0.11217565478E+02  0.22070636007E+02 -0.27254964966E+02  0.54367083875E+02  0.39999999309E+02 0.  0.
        -12    1    3    3    0    0  0.11217565478E+02 -0.22070636007E+02  0.27254964966E+02  0.36820916125E+02  0.00000000000E+00 0.  1.
         11    1    4    4    0    0 -0.18868620190E+02  0.16051889805E+02 -0.15538640309E+02  0.29242731355E+02  0.51100000000E-03 0. -1.
        -11    1    4    4    0    0  0.86380861015E+01  0.25350258239E+01  0.33678177894E+01  0.96117159939E+01  0.51100000000E-03 0.  1.
         12    1    4    4    0    0 -0.98703138914E+00  0.34837203781E+01 -0.15084142447E+02  0.15512636526E+02  0.00000000000E+00 0. -1.
</event>
<event>
 8    1  0.1262344E-006  0.9118800E+02  0.7816164E-02  0.1184000E+00
        -11   -1    0    0    0    0  0.00000000000E+00  0.00000000000E+00  0.45593999997E+02  0.45594000000E+02  0.51100000000E-03 0. -1.
         11   -1    0    0    0    0 -0.00000000000E+00 -0.00000000000E+00 -0.45593999997E+02  0.45594000000E+02  0.51100000000E-03 0.  1.
         23    2    1    2    0    0  0.00000000000E+00  0.00000000000E+00 -0.35527136788E-14  0.91188000000E+02  0.91188000000E+02 0.  0.
    9900012    2    3    3    0    0  0.20738668270E+02  0.14590844360E+02  0.26698227748E+02  0.54367075709E+02  0.39999980695E+02 0.  0.
        -12    1    3    3    0    0 -0.20738668270E+02 -0.14590844360E+02 -0.26698227748E+02  0.36820924291E+02  0.00000000000E+00 0.  1.
         11    1    4    4    0    0  0.12185325346E+01 -0.56777047238E-01 -0.52025641823E+01  0.53436616195E+01  0.51100000000E-03 0. -1.
        -11    1    4    4    0    0  0.38426559746E+01  0.32690138029E+01 -0.51529686880E+01  0.72114868608E+01  0.51100000000E-03 0.  1.
         12    1    4    4    0    0  0.15677479761E+02  0.11378607604E+02  0.37053760618E+02  0.41811927229E+02  0.00000000000E+00 0. -1.
</event>
<event>
 8    1  0.1262344E-006  0.9118800E+02  0.7816164E-02  0.1184000E+00
        -11   -1    0    0    0    0  0.00000000000E+00  0.00000000000E+00  0.45593999997E+02  0.45594000000E+02  0.51100000000E-03 0.  1.
         11   -1    0    0    0    0 -0.00000000000E+00 -0.00000000000E+00 -0.45593999997E+02  0.45594000000E+02  0.51100000000E-03 0. -1.
         23    2    1    2    0    0  0.35527136788E-14 -0.26645352591E-14  0.00000000000E+00  0.91188000000E+02  0.91188000000E+02 0.  0.
    9900012    2    3    3    0    0 -0.30852664676E+02  0.60139139488E+01 -0.19176179752E+02  0.54367082732E+02  0.39999996704E+02 0.  0.
        -12    1    3    3    0    0  0.30852664676E+02 -0.60139139488E+01  0.19176179752E+02  0.36820917268E+02  0.00000000000E+00 0.  1.
         11    1    4    4    0    0 -0.11872650763E+01  0.60940054163E+01 -0.51383080154E+01  0.80590762434E+01  0.51100000000E-03 0.  1.
        -11    1    4    4    0    0 -0.17246496893E+02  0.15998673464E+02 -0.48910463877E+01  0.24027516366E+02  0.51100000000E-03 0. -1.
        -12    1    4    4    0    0 -0.12418902706E+02 -0.16078764931E+02 -0.91468253489E+01  0.22280490123E+02  0.00000000000E+00 0.  1.
</event>
<event>
 8    1  0.1262344E-006  0.9118800E+02  0.7816164E-02  0.1184000E+00
        -11   -1    0    0    0    0  0.00000000000E+00  0.00000000000E+00  0.45593999997E+02  0.45594000000E+02  0.51100000000E-03 0.  1.
         11   -1    0    0    0    0 -0.00000000000E+00 -0.00000000000E+00 -0.45593999997E+02  0.45594000000E+02  0.51100000000E-03 0. -1.
         23    2    1    2    0    0  0.00000000000E+00  0.00000000000E+00  0.00000000000E+00  0.91188000000E+02  0.91188000000E+02 0.  0.
    9900012    2    3    3    0    0  0.36010269353E+02 -0.56630813344E+01  0.51935425035E+01  0.54367043021E+02  0.39999906175E+02 0.  0.
         12    1    3    3    0    0 -0.36010269353E+02  0.56630813344E+01 -0.51935425035E+01  0.36820956979E+02  0.00000000000E+00 0. -1.
         11    1    4    4    0    0  0.39349139754E+02 -0.51520647647E+01  0.77017430573E+01  0.40425430327E+02  0.51100000000E-03 0. -1.
        -11    1    4    4    0    0  0.51610740339E+01 -0.28066476310E-01 -0.43685592198E+00  0.51796058024E+01  0.51100000000E-03 0.  1.
         12    1    4    4    0    0 -0.84999444348E+01 -0.48295009338E+00 -0.20713446318E+01  0.87620068917E+01  0.00000000000E+00 0. -1.
</event>
<event>
 8    1  0.1262344E-006  0.9118800E+02  0.7816164E-02  0.1184000E+00
        -11   -1    0    0    0    0  0.00000000000E+00  0.00000000000E+00  0.45593999997E+02  0.45594000000E+02  0.51100000000E-03 0.  1.
         11   -1    0    0    0    0 -0.00000000000E+00 -0.00000000000E+00 -0.45593999997E+02  0.45594000000E+02  0.51100000000E-03 0. -1.
         23    2    1    2    0    0  0.00000000000E+00 -0.35527136788E-14  0.00000000000E+00  0.91188000000E+02  0.91188000000E+02 0.  0.
    9900012    2    3    3    0    0 -0.62961693857E+01  0.26937135221E+02 -0.24300806726E+02  0.54367079175E+02  0.39999988596E+02 0.  0.
        -12    1    3    3    0    0  0.62961693857E+01 -0.26937135221E+02  0.24300806726E+02  0.36820920825E+02  0.00000000000E+00 0.  1.
         11    1    4    4    0    0 -0.51070146768E+01  0.68065831083E+01 -0.16570038256E+02  0.18627327790E+02  0.51100000000E-03 0. -1.
        -11    1    4    4    0    0 -0.35112997341E+01  0.68029105741E+01  0.10526814583E+02  0.13016245374E+02  0.51100000000E-03 0.  1.
         12    1    4    4    0    0  0.23221450252E+01  0.13327641539E+02 -0.18257583053E+02  0.22723506011E+02  0.00000000000E+00 0. -1.
</event>
<event>
 8    1  0.1262344E-006  0.9118800E+02  0.7816164E-02  0.1184000E+00
        -11   -1    0    0    0    0  0.00000000000E+00  0.00000000000E+00  0.45593999997E+02  0.45594000000E+02  0.51100000000E-03 0.  1.
         11   -1    0    0    0    0 -0.00000000000E+00 -0.00000000000E+00 -0.45593999997E+02  0.45594000000E+02  0.51100000000E-03 0. -1.
         23    2    1    2    0    0  0.00000000000E+00  0.00000000000E+00  0.00000000000E+00  0.91188000000E+02  0.91188000000E+02 0.  0.
    9900012    2    3    3    0    0 -0.26704382391E+02 -0.84033671120E+01 -0.23917335624E+02  0.54367087993E+02  0.40000008697E+02 0.  0.
        -12    1    3    3    0    0  0.26704382391E+02  0.84033671120E+01  0.23917335624E+02  0.36820912007E+02  0.00000000000E+00 0.  1.
         11    1    4    4    0    0 -0.24802143144E+02 -0.10086867746E+02 -0.13297748917E+02  0.29895172385E+02  0.51100000000E-03 0. -1.
        -11    1    4    4    0    0 -0.82337423710E+00 -0.31654447586E+01  0.61588980794E+01  0.69735221709E+01  0.51100000000E-03 0.  1.
         12    1    4    4    0    0 -0.10788650106E+01  0.48489453923E+01 -0.16778484786E+02  0.17498393436E+02  0.00000000000E+00 0. -1.
</event>
<event>
 8    1  0.1262344E-006  0.9118800E+02  0.7816164E-02  0.1184000E+00
        -11   -1    0    0    0    0  0.00000000000E+00  0.00000000000E+00  0.45593999997E+02  0.45594000000E+02  0.51100000000E-03 0. -1.
         11   -1    0    0    0    0 -0.00000000000E+00 -0.00000000000E+00 -0.45593999997E+02  0.45594000000E+02  0.51100000000E-03 0.  1.
         23    2    1    2    0    0 -0.13322676296E-14  0.00000000000E+00  0.00000000000E+00  0.91188000000E+02  0.91188000000E+02 0.  0.
    9900012    2    3    3    0    0  0.35494226183E+01  0.17463492844E+02  0.32221209386E+02  0.54367104879E+02  0.40000047192E+02 0.  0.
        -12    1    3    3    0    0 -0.35494226183E+01 -0.17463492844E+02 -0.32221209386E+02  0.36820895121E+02  0.00000000000E+00 0.  1.
         11    1    4    4    0    0  0.69761093151E+01 -0.27518253017E+00  0.41788684796E+01  0.81366312828E+01  0.51100000000E-03 0. -1.
        -11    1    4    4    0    0  0.90458352706E+01  0.12606153732E+02  0.45482809123E+00  0.15522535763E+02  0.51100000000E-03 0.  1.
        -12    1    4    4    0    0 -0.12472521967E+02  0.51325216425E+01  0.27587512815E+02  0.30707937833E+02  0.00000000000E+00 0.  1.
</event>
<event>
 8    1  0.1262344E-006  0.9118800E+02  0.7816164E-02  0.1184000E+00
        -11   -1    0    0    0    0  0.00000000000E+00  0.00000000000E+00  0.45593999997E+02  0.45594000000E+02  0.51100000000E-03 0.  1.
         11   -1    0    0    0    0 -0.00000000000E+00 -0.00000000000E+00 -0.45593999997E+02  0.45594000000E+02  0.51100000000E-03 0. -1.
         23    2    1    2    0    0  0.00000000000E+00  0.00000000000E+00  0.35527136788E-14  0.91188000000E+02  0.91188000000E+02 0.  0.
    9900012    2    3    3    0    0 -0.18259441456E+02  0.29599563628E+02 -0.12092901064E+02  0.54367087118E+02  0.40000006704E+02 0.  0.
        -12    1    3    3    0    0  0.18259441456E+02 -0.29599563628E+02  0.12092901064E+02  0.36820912882E+02  0.00000000000E+00 0.  1.
         11    1    4    4    0    0 -0.45014485871E+01 -0.55266566068E+00 -0.52210139077E+01  0.69157403942E+01  0.51100000000E-03 0. -1.
        -11    1    4    4    0    0 -0.97611397173E+01  0.86889765606E+01  0.12632410414E+02  0.18175696833E+02  0.51100000000E-03 0.  1.
         12    1    4    4    0    0 -0.39968531520E+01  0.21463252728E+02 -0.19504297571E+02  0.29275649891E+02  0.00000000000E+00 0. -1.
</event>
<event>
 8    1  0.1262344E-006  0.9118800E+02  0.7816164E-02  0.1184000E+00
        -11   -1    0    0    0    0  0.00000000000E+00  0.00000000000E+00  0.45593999997E+02  0.45594000000E+02  0.51100000000E-03 0.  1.
         11   -1    0    0    0    0 -0.00000000000E+00 -0.00000000000E+00 -0.45593999997E+02  0.45594000000E+02  0.51100000000E-03 0. -1.
         23    2    1    2    0    0  0.35527136788E-14  0.00000000000E+00  0.00000000000E+00  0.91188000000E+02  0.91188000000E+02 0.  0.
    9900012    2    3    3    0    0  0.18402896611E+02  0.23262465976E+02  0.21816822488E+02  0.54367045769E+02  0.39999912441E+02 0.  0.
         12    1    3    3    0    0 -0.18402896611E+02 -0.23262465976E+02 -0.21816822488E+02  0.36820954231E+02  0.00000000000E+00 0. -1.
         11    1    4    4    0    0  0.13971297877E+02  0.15033711745E+00  0.23062056534E+02  0.26964387949E+02  0.51100000000E-03 0. -1.
        -11    1    4    4    0    0 -0.43981578392E+00  0.15753664710E+02  0.50651424899E+01  0.16553762667E+02  0.51100000000E-03 0.  1.
        -12    1    4    4    0    0  0.48714145175E+01  0.73584641486E+01 -0.63103765359E+01  0.10848895154E+02  0.00000000000E+00 0.  1.
</event>
<event>
 8    1  0.1262344E-006  0.9118800E+02  0.7816164E-02  0.1184000E+00
        -11   -1    0    0    0    0  0.00000000000E+00  0.00000000000E+00  0.45593999997E+02  0.45594000000E+02  0.51100000000E-03 0.  1.
         11   -1    0    0    0    0 -0.00000000000E+00 -0.00000000000E+00 -0.45593999997E+02  0.45594000000E+02  0.51100000000E-03 0. -1.
         23    2    1    2    0    0 -0.16653345369E-15  0.00000000000E+00  0.35527136788E-14  0.91188000000E+02  0.91188000000E+02 0.  0.
    9900012    2    3    3    0    0  0.15071606454E+00  0.23166889446E+02  0.28619118441E+02  0.54367062718E+02  0.39999951079E+02 0.  0.
         12    1    3    3    0    0 -0.15071606454E+00 -0.23166889446E+02 -0.28619118441E+02  0.36820937282E+02  0.00000000000E+00 0. -1.
         11    1    4    4    0    0 -0.23562390801E+01 -0.13049367291E+00  0.22785507543E+02  0.22907384081E+02  0.51100000000E-03 0. -1.
        -11    1    4    4    0    0 -0.70778262136E+01  0.17710574985E+01  0.21768792912E+01  0.76138736712E+01  0.51100000000E-03 0.  1.
        -12    1    4    4    0    0  0.95847813582E+01  0.21526325621E+02  0.36567316069E+01  0.23845804966E+02  0.00000000000E+00 0.  1.
</event>
<event>
 8    1  0.1262344E-006  0.9118800E+02  0.7816164E-02  0.1184000E+00
        -11   -1    0    0    0    0  0.00000000000E+00  0.00000000000E+00  0.45593999997E+02  0.45594000000E+02  0.51100000000E-03 0. -1.
         11   -1    0    0    0    0 -0.00000000000E+00 -0.00000000000E+00 -0.45593999997E+02  0.45594000000E+02  0.51100000000E-03 0.  1.
         23    2    1    2    0    0  0.00000000000E+00  0.00000000000E+00  0.00000000000E+00  0.91188000000E+02  0.91188000000E+02 0.  0.
    9900012    2    3    3    0    0  0.54264679891E+01 -0.27936127537E+02 -0.23364635680E+02  0.54367082343E+02  0.39999995818E+02 0.  0.
         12    1    3    3    0    0 -0.54264679891E+01  0.27936127537E+02  0.23364635680E+02  0.36820917657E+02  0.00000000000E+00 0. -1.
         11    1    4    4    0    0 -0.48163205297E+01  0.74972391891E-01 -0.76411069913E+01  0.90326674143E+01  0.51100000000E-03 0. -1.
        -11    1    4    4    0    0 -0.74137564943E+00 -0.16348505449E+02  0.67769972601E+01  0.17713016694E+02  0.51100000000E-03 0.  1.
        -12    1    4    4    0    0  0.10984164168E+02 -0.11662594480E+02 -0.22500525949E+02  0.27621398235E+02  0.00000000000E+00 0.  1.
</event>
<event>
 8    1  0.1262344E-006  0.9118800E+02  0.7816164E-02  0.1184000E+00
        -11   -1    0    0    0    0  0.00000000000E+00  0.00000000000E+00  0.45593999997E+02  0.45594000000E+02  0.51100000000E-03 0. -1.
         11   -1    0    0    0    0 -0.00000000000E+00 -0.00000000000E+00 -0.45593999997E+02  0.45594000000E+02  0.51100000000E-03 0.  1.
         23    2    1    2    0    0 -0.35527136788E-14 -0.17763568394E-14  0.35527136788E-14  0.91188000000E+02  0.91188000000E+02 0.  0.
    9900012    2    3    3    0    0  0.16216430594E+02  0.12617128027E+02 -0.30555098271E+02  0.54367101434E+02  0.40000039338E+02 0.  0.
         12    1    3    3    0    0 -0.16216430594E+02 -0.12617128027E+02  0.30555098271E+02  0.36820898566E+02  0.00000000000E+00 0. -1.
         11    1    4    4    0    0  0.13810302552E+02  0.70717692025E+01 -0.31499177189E+01  0.15832130562E+02  0.51100000000E-03 0. -1.
        -11    1    4    4    0    0 -0.30786625205E+00  0.15900729622E+02 -0.12735034943E+02  0.20374226351E+02  0.51100000000E-03 0.  1.
        -12    1    4    4    0    0  0.27139942944E+01 -0.10355370797E+02 -0.14670145609E+02  0.18160744521E+02  0.00000000000E+00 0.  1.
</event>
<event>
 8    1  0.1262344E-006  0.9118800E+02  0.7816164E-02  0.1184000E+00
        -11   -1    0    0    0    0  0.00000000000E+00  0.00000000000E+00  0.45593999997E+02  0.45594000000E+02  0.51100000000E-03 0. -1.
         11   -1    0    0    0    0 -0.00000000000E+00 -0.00000000000E+00 -0.45593999997E+02  0.45594000000E+02  0.51100000000E-03 0.  1.
         23    2    1    2    0    0  0.35527136788E-14  0.00000000000E+00  0.26645352591E-14  0.91188000000E+02  0.91188000000E+02 0.  0.
    9900012    2    3    3    0    0 -0.25860622122E+02  0.25174089579E+02 -0.72992167043E+01  0.54367012409E+02  0.39999836389E+02 0.  0.
         12    1    3    3    0    0  0.25860622122E+02 -0.25174089579E+02  0.72992167043E+01  0.36820987591E+02  0.00000000000E+00 0. -1.
         11    1    4    4    0    0 -0.25459571389E+02  0.51126652897E+01 -0.11659725206E+02  0.28465387997E+02  0.51100000000E-03 0.  1.
        -11    1    4    4    0    0  0.39871559553E+01  0.74853912554E+01 -0.47913171312E+01  0.97409042173E+01  0.51100000000E-03 0. -1.
         12    1    4    4    0    0 -0.43882066877E+01  0.12576033034E+02  0.91518256325E+01  0.16160720195E+02  0.00000000000E+00 0. -1.
</event>
<event>
 8    1  0.1262344E-006  0.9118800E+02  0.7816164E-02  0.1184000E+00
        -11   -1    0    0    0    0  0.00000000000E+00  0.00000000000E+00  0.45593999997E+02  0.45594000000E+02  0.51100000000E-03 0.  1.
         11   -1    0    0    0    0 -0.00000000000E+00 -0.00000000000E+00 -0.45593999997E+02  0.45594000000E+02  0.51100000000E-03 0. -1.
         23    2    1    2    0    0  0.88817841970E-15  0.00000000000E+00 -0.35527136788E-14  0.91188000000E+02  0.91188000000E+02 0.  0.
    9900012    2    3    3    0    0 -0.61009401237E+01  0.21364576442E+02  0.29361770855E+02  0.54367079525E+02  0.39999989393E+02 0.  0.
         12    1    3    3    0    0  0.61009401237E+01 -0.21364576442E+02 -0.29361770855E+02  0.36820920475E+02  0.00000000000E+00 0. -1.
         11    1    4    4    0    0 -0.10356291020E+02 -0.22787361901E+01 -0.19667348917E+01  0.10784871288E+02  0.51100000000E-03 0. -1.
        -11    1    4    4    0    0  0.88077182866E+01  0.21550860179E+02  0.18265331309E+02  0.29591177806E+02  0.51100000000E-03 0.  1.
        -12    1    4    4    0    0 -0.45523673908E+01  0.20924524527E+01  0.13063174437E+02  0.13991030431E+02  0.00000000000E+00 0.  1.
</event>
<event>
 8    1  0.1262344E-006  0.9118800E+02  0.7816164E-02  0.1184000E+00
        -11   -1    0    0    0    0  0.00000000000E+00  0.00000000000E+00  0.45593999997E+02  0.45594000000E+02  0.51100000000E-03 0.  1.
         11   -1    0    0    0    0 -0.00000000000E+00 -0.00000000000E+00 -0.45593999997E+02  0.45594000000E+02  0.51100000000E-03 0. -1.
         23    2    1    2    0    0  0.71054273576E-14  0.00000000000E+00  0.00000000000E+00  0.91188000000E+02  0.91188000000E+02 0.  0.
    9900012    2    3    3    0    0  0.31833050423E+02  0.18284752911E+02 -0.28466124405E+01  0.54367102528E+02  0.40000041833E+02 0.  0.
        -12    1    3    3    0    0 -0.31833050423E+02 -0.18284752911E+02  0.28466124405E+01  0.36820897472E+02  0.00000000000E+00 0.  1.
         11    1    4    4    0    0  0.79685989234E+01  0.54137372154E+01  0.11080756154E+02  0.14682992769E+02  0.51100000000E-03 0. -1.
        -11    1    4    4    0    0  0.41794737650E+01 -0.30172524749E+00  0.69467895715E+01  0.81127630737E+01  0.51100000000E-03 0.  1.
        -12    1    4    4    0    0  0.19684977735E+02  0.13172740943E+02 -0.20874158167E+02  0.31571346685E+02  0.00000000000E+00 0.  1.
</event>
<event>
 8    1  0.1262344E-006  0.9118800E+02  0.7816164E-02  0.1184000E+00
        -11   -1    0    0    0    0  0.00000000000E+00  0.00000000000E+00  0.45593999997E+02  0.45594000000E+02  0.51100000000E-03 0. -1.
         11   -1    0    0    0    0 -0.00000000000E+00 -0.00000000000E+00 -0.45593999997E+02  0.45594000000E+02  0.51100000000E-03 0.  1.
         23    2    1    2    0    0  0.00000000000E+00  0.35527136788E-14  0.00000000000E+00  0.91188000000E+02  0.91188000000E+02 0.  0.
    9900012    2    3    3    0    0  0.22409826860E+02 -0.27236838935E+02  0.10570382981E+02  0.54367099259E+02  0.40000034380E+02 0.  0.
        -12    1    3    3    0    0 -0.22409826860E+02  0.27236838935E+02 -0.10570382981E+02  0.36820900741E+02  0.00000000000E+00 0.  1.
         11    1    4    4    0    0  0.22117301461E+02 -0.49684054035E+01  0.53748007634E+00  0.22674853059E+02  0.51100000000E-03 0. -1.
        -11    1    4    4    0    0  0.24896377038E+01  0.83654236524E+00  0.79699301338E+01  0.83915365473E+01  0.51100000000E-03 0.  1.
         12    1    4    4    0    0 -0.21971123045E+01 -0.23104975896E+02  0.20629727706E+01  0.23300709652E+02  0.00000000000E+00 0. -1.
</event>
<event>
 8    1  0.1262344E-006  0.9118800E+02  0.7816164E-02  0.1184000E+00
        -11   -1    0    0    0    0  0.00000000000E+00  0.00000000000E+00  0.45593999997E+02  0.45594000000E+02  0.51100000000E-03 0.  1.
         11   -1    0    0    0    0 -0.00000000000E+00 -0.00000000000E+00 -0.45593999997E+02  0.45594000000E+02  0.51100000000E-03 0. -1.
         23    2    1    2    0    0  0.00000000000E+00  0.00000000000E+00 -0.19984014443E-14  0.91188000000E+02  0.91188000000E+02 0.  0.
    9900012    2    3    3    0    0 -0.35915890303E+02 -0.79090261458E+01  0.18130089909E+01  0.54366934393E+02  0.39999658534E+02 0.  0.
         12    1    3    3    0    0  0.35915890303E+02  0.79090261458E+01 -0.18130089909E+01  0.36821065607E+02  0.00000000000E+00 0. -1.
         11    1    4    4    0    0 -0.35295068425E+01 -0.72469446871E+01  0.13749233519E+02  0.15937912300E+02  0.51100000000E-03 0. -1.
        -11    1    4    4    0    0  0.72503761459E+00 -0.87415181463E+00  0.21607412834E+01  0.24410293100E+01  0.51100000000E-03 0.  1.
         12    1    4    4    0    0 -0.33111421075E+02  0.21207035585E+00 -0.14096965812E+02  0.35987992783E+02  0.00000000000E+00 0. -1.
</event>
<event>
 8    1  0.1262344E-006  0.9118800E+02  0.7816164E-02  0.1184000E+00
        -11   -1    0    0    0    0  0.00000000000E+00  0.00000000000E+00  0.45593999997E+02  0.45594000000E+02  0.51100000000E-03 0. -1.
         11   -1    0    0    0    0 -0.00000000000E+00 -0.00000000000E+00 -0.45593999997E+02  0.45594000000E+02  0.51100000000E-03 0.  1.
         23    2    1    2    0    0  0.00000000000E+00 -0.35527136788E-14  0.17763568394E-14  0.91188000000E+02  0.91188000000E+02 0.  0.
    9900012    2    3    3    0    0 -0.15689318534E+02 -0.29401411082E+02  0.15658501099E+02  0.54366995854E+02  0.39999798647E+02 0.  0.
        -12    1    3    3    0    0  0.15689318534E+02  0.29401411082E+02 -0.15658501099E+02  0.36821004146E+02  0.00000000000E+00 0.  1.
         11    1    4    4    0    0 -0.12717470578E+00 -0.76362296798E+01  0.57710668006E+01  0.95725330715E+01  0.51100000000E-03 0. -1.
        -11    1    4    4    0    0 -0.20291255813E+02 -0.16923655338E+01  0.12675103397E+02  0.23984524385E+02  0.51100000000E-03 0.  1.
        -12    1    4    4    0    0  0.47291119855E+01 -0.20072815869E+02 -0.27876690992E+01  0.20809938397E+02  0.00000000000E+00 0.  1.
</event>
<event>
 8    1  0.1262344E-006  0.9118800E+02  0.7816164E-02  0.1184000E+00
        -11   -1    0    0    0    0  0.00000000000E+00  0.00000000000E+00  0.45593999997E+02  0.45594000000E+02  0.51100000000E-03 0. -1.
         11   -1    0    0    0    0 -0.00000000000E+00 -0.00000000000E+00 -0.45593999997E+02  0.45594000000E+02  0.51100000000E-03 0.  1.
         23    2    1    2    0    0  0.00000000000E+00  0.35527136788E-14  0.00000000000E+00  0.91188000000E+02  0.91188000000E+02 0.  0.
    9900012    2    3    3    0    0  0.27089415973E+02  0.19456345654E+02  0.15601058875E+02  0.54367097214E+02  0.40000029719E+02 0.  0.
         12    1    3    3    0    0 -0.27089415973E+02 -0.19456345654E+02 -0.15601058875E+02  0.36820902786E+02  0.00000000000E+00 0. -1.
         11    1    4    4    0    0  0.11661949305E+02  0.40754284404E+01  0.36082094748E+01  0.12869706852E+02  0.51100000000E-03 0. -1.
        -11    1    4    4    0    0  0.10390411979E+02  0.25114250485E+02  0.13648994533E+02  0.30413505068E+02  0.51100000000E-03 0.  1.
         12    1    4    4    0    0  0.50370546883E+01 -0.97333332718E+01 -0.16561451320E+01  0.11083885294E+02  0.00000000000E+00 0. -1.
</event>
<event>
 8    1  0.1262344E-006  0.9118800E+02  0.7816164E-02  0.1184000E+00
        -11   -1    0    0    0    0  0.00000000000E+00  0.00000000000E+00  0.45593999997E+02  0.45594000000E+02  0.51100000000E-03 0. -1.
         11   -1    0    0    0    0 -0.00000000000E+00 -0.00000000000E+00 -0.45593999997E+02  0.45594000000E+02  0.51100000000E-03 0.  1.
         23    2    1    2    0    0  0.00000000000E+00  0.00000000000E+00  0.00000000000E+00  0.91188000000E+02  0.91188000000E+02 0.  0.
    9900012    2    3    3    0    0  0.69915238172E+01 -0.77676087061E+01 -0.35306650177E+02  0.54367126884E+02  0.40000097358E+02 0.  0.
         12    1    3    3    0    0 -0.69915238172E+01  0.77676087061E+01  0.35306650177E+02  0.36820873116E+02  0.00000000000E+00 0. -1.
         11    1    4    4    0    0 -0.41628064578E+00  0.13240388530E+01 -0.10776592550E+02  0.10865602409E+02  0.51100000000E-03 0. -1.
        -11    1    4    4    0    0  0.46974437713E+00  0.88405029108E+01 -0.22485554893E+02  0.24165581528E+02  0.51100000000E-03 0.  1.
         12    1    4    4    0    0  0.69380600858E+01 -0.17932150470E+02 -0.20445027342E+01  0.19335942947E+02  0.00000000000E+00 0. -1.
</event>
<event>
 8    1  0.1262344E-006  0.9118800E+02  0.7816164E-02  0.1184000E+00
        -11   -1    0    0    0    0  0.00000000000E+00  0.00000000000E+00  0.45593999997E+02  0.45594000000E+02  0.51100000000E-03 0. -1.
         11   -1    0    0    0    0 -0.00000000000E+00 -0.00000000000E+00 -0.45593999997E+02  0.45594000000E+02  0.51100000000E-03 0.  1.
         23    2    1    2    0    0  0.71054273576E-14  0.00000000000E+00  0.00000000000E+00  0.91188000000E+02  0.91188000000E+02 0.  0.
    9900012    2    3    3    0    0 -0.32922408441E+02 -0.12152242400E+02  0.11145323833E+02  0.54367079095E+02  0.39999988414E+02 0.  0.
        -12    1    3    3    0    0  0.32922408441E+02  0.12152242400E+02 -0.11145323833E+02  0.36820920905E+02  0.00000000000E+00 0.  1.
         11    1    4    4    0    0 -0.20698048133E+02 -0.52070915592E+01  0.92967110096E+01  0.23279858996E+02  0.51100000000E-03 0. -1.
        -11    1    4    4    0    0 -0.12209720300E+02 -0.13632804057E+02  0.97494211084E+01  0.20736003194E+02  0.51100000000E-03 0.  1.
        -12    1    4    4    0    0 -0.14640008943E-01  0.66876532164E+01 -0.79008082850E+01  0.10351216906E+02  0.00000000000E+00 0.  1.
</event>
<event>
 8    1  0.1262344E-006  0.9118800E+02  0.7816164E-02  0.1184000E+00
        -11   -1    0    0    0    0  0.00000000000E+00  0.00000000000E+00  0.45593999997E+02  0.45594000000E+02  0.51100000000E-03 0.  1.
         11   -1    0    0    0    0 -0.00000000000E+00 -0.00000000000E+00 -0.45593999997E+02  0.45594000000E+02  0.51100000000E-03 0. -1.
         23    2    1    2    0    0 -0.35527136788E-14 -0.17763568394E-14  0.00000000000E+00  0.91188000000E+02  0.91188000000E+02 0.  0.
    9900012    2    3    3    0    0  0.20462454981E+02 -0.97249576503E+01  0.29025693496E+02  0.54367112611E+02  0.40000064820E+02 0.  0.
         12    1    3    3    0    0 -0.20462454981E+02  0.97249576503E+01 -0.29025693496E+02  0.36820887389E+02  0.00000000000E+00 0. -1.
         11    1    4    4    0    0  0.12761004088E+02  0.87551884021E+01  0.48145206958E+01  0.16207287221E+02  0.51100000000E-03 0. -1.
        -11    1    4    4    0    0 -0.24273584231E+01  0.30076835355E+00  0.14519138875E+02  0.14723719790E+02  0.51100000000E-03 0.  1.
        -12    1    4    4    0    0  0.10128809317E+02 -0.18780914406E+02  0.96920339257E+01  0.23436105600E+02  0.00000000000E+00 0.  1.
</event>
<event>
 8    1  0.1262344E-006  0.9118800E+02  0.7816164E-02  0.1184000E+00
        -11   -1    0    0    0    0  0.00000000000E+00  0.00000000000E+00  0.45593999997E+02  0.45594000000E+02  0.51100000000E-03 0. -1.
         11   -1    0    0    0    0 -0.00000000000E+00 -0.00000000000E+00 -0.45593999997E+02  0.45594000000E+02  0.51100000000E-03 0.  1.
         23    2    1    2    0    0 -0.35527136788E-14  0.35527136788E-14 -0.35527136788E-14  0.91188000000E+02  0.91188000000E+02 0.  0.
    9900012    2    3    3    0    0 -0.30750121558E+02 -0.13416037468E+02 -0.15173019204E+02  0.54367074578E+02  0.39999978114E+02 0.  0.
         12    1    3    3    0    0  0.30750121558E+02  0.13416037468E+02  0.15173019204E+02  0.36820925422E+02  0.00000000000E+00 0. -1.
         11    1    4    4    0    0 -0.10895302082E+02 -0.12309066749E+02  0.32460771162E+01  0.16755827303E+02  0.51100000000E-03 0. -1.
        -11    1    4    4    0    0 -0.60400044459E+01  0.49338961456E+01  0.53539407246E+01  0.94598978021E+01  0.51100000000E-03 0.  1.
        -12    1    4    4    0    0 -0.13814815031E+02 -0.60408668645E+01 -0.23773037045E+02  0.28151349473E+02  0.00000000000E+00 0.  1.
</event>
<event>
 8    1  0.1262344E-006  0.9118800E+02  0.7816164E-02  0.1184000E+00
        -11   -1    0    0    0    0  0.00000000000E+00  0.00000000000E+00  0.45593999997E+02  0.45594000000E+02  0.51100000000E-03 0. -1.
         11   -1    0    0    0    0 -0.00000000000E+00 -0.00000000000E+00 -0.45593999997E+02  0.45594000000E+02  0.51100000000E-03 0.  1.
         23    2    1    2    0    0  0.66613381478E-15  0.71054273576E-14 -0.88817841970E-15  0.91188000000E+02  0.91188000000E+02 0.  0.
    9900012    2    3    3    0    0 -0.32923895444E+00 -0.36030356067E+02  0.75818284105E+01  0.54367094543E+02  0.40000023630E+02 0.  0.
        -12    1    3    3    0    0  0.32923895444E+00  0.36030356067E+02 -0.75818284105E+01  0.36820905457E+02  0.00000000000E+00 0.  1.
         11    1    4    4    0    0  0.25755007085E+01 -0.17666347442E+02 -0.17222580710E+01  0.17935975273E+02  0.51100000000E-03 0. -1.
        -11    1    4    4    0    0 -0.15161728234E+02 -0.94170059940E+01 -0.13350762324E+01  0.17898056703E+02  0.51100000000E-03 0.  1.
         12    1    4    4    0    0  0.12256988571E+02 -0.89470026306E+01  0.10639162714E+02  0.18533062568E+02  0.00000000000E+00 0. -1.
</event>
<event>
 8    1  0.1262344E-006  0.9118800E+02  0.7816164E-02  0.1184000E+00
        -11   -1    0    0    0    0  0.00000000000E+00  0.00000000000E+00  0.45593999997E+02  0.45594000000E+02  0.51100000000E-03 0.  1.
         11   -1    0    0    0    0 -0.00000000000E+00 -0.00000000000E+00 -0.45593999997E+02  0.45594000000E+02  0.51100000000E-03 0. -1.
         23    2    1    2    0    0  0.00000000000E+00  0.00000000000E+00  0.00000000000E+00  0.91188000000E+02  0.91188000000E+02 0.  0.
    9900012    2    3    3    0    0  0.25895464356E+02 -0.21840549782E+02  0.14428977976E+02  0.54367080750E+02  0.39999992185E+02 0.  0.
         12    1    3    3    0    0 -0.25895464356E+02  0.21840549782E+02 -0.14428977976E+02  0.36820919250E+02  0.00000000000E+00 0. -1.
         11    1    4    4    0    0  0.31221656382E+02 -0.24262509622E+02  0.83768820204E+01  0.40418230454E+02  0.51100000000E-03 0. -1.
        -11    1    4    4    0    0 -0.18083663585E+01  0.64759662649E+01  0.14494350200E+01  0.68781676404E+01  0.51100000000E-03 0.  1.
         12    1    4    4    0    0 -0.35178256675E+01 -0.40540064247E+01  0.46026609356E+01  0.70706826549E+01  0.00000000000E+00 0. -1.
</event>
<event>
 8    1  0.1262344E-006  0.9118800E+02  0.7816164E-02  0.1184000E+00
        -11   -1    0    0    0    0  0.00000000000E+00  0.00000000000E+00  0.45593999997E+02  0.45594000000E+02  0.51100000000E-03 0. -1.
         11   -1    0    0    0    0 -0.00000000000E+00 -0.00000000000E+00 -0.45593999997E+02  0.45594000000E+02  0.51100000000E-03 0.  1.
         23    2    1    2    0    0  0.00000000000E+00 -0.35527136788E-14  0.17763568394E-14  0.91188000000E+02  0.91188000000E+02 0.  0.
    9900012    2    3    3    0    0  0.31598901145E+02  0.17003327870E+02  0.82568939454E+01  0.54367081899E+02  0.39999994805E+02 0.  0.
        -12    1    3    3    0    0 -0.31598901145E+02 -0.17003327870E+02 -0.82568939454E+01  0.36820918101E+02  0.00000000000E+00 0.  1.
         11    1    4    4    0    0  0.19001387513E+02  0.29259362531E+02  0.24967241768E+01  0.34977087572E+02  0.51100000000E-03 0. -1.
        -11    1    4    4    0    0  0.80577049877E+00 -0.39138767244E+01  0.54438402146E+00  0.40328713511E+01  0.51100000000E-03 0.  1.
         12    1    4    4    0    0  0.11791743133E+02 -0.83421579365E+01  0.52157857471E+01  0.15357122976E+02  0.00000000000E+00 0. -1.
</event>
<event>
 8    1  0.1262344E-006  0.9118800E+02  0.7816164E-02  0.1184000E+00
        -11   -1    0    0    0    0  0.00000000000E+00  0.00000000000E+00  0.45593999997E+02  0.45594000000E+02  0.51100000000E-03 0.  1.
         11   -1    0    0    0    0 -0.00000000000E+00 -0.00000000000E+00 -0.45593999997E+02  0.45594000000E+02  0.51100000000E-03 0. -1.
         23    2    1    2    0    0 -0.35527136788E-14  0.00000000000E+00  0.00000000000E+00  0.91188000000E+02  0.91188000000E+02 0.  0.
    9900012    2    3    3    0    0 -0.18133447345E+02 -0.17998485307E+02 -0.26514391488E+02  0.54367077389E+02  0.39999984525E+02 0.  0.
        -12    1    3    3    0    0  0.18133447345E+02  0.17998485307E+02  0.26514391488E+02  0.36820922611E+02  0.00000000000E+00 0.  1.
         11    1    4    4    0    0  0.35310764104E+00  0.62235987409E+01  0.24108820968E+00  0.62382681955E+01  0.51100000000E-03 0. -1.
        -11    1    4    4    0    0 -0.14442066377E+02 -0.74717916239E+01  0.52341508322E-01  0.16260494802E+02  0.51100000000E-03 0.  1.
         12    1    4    4    0    0 -0.40444886085E+01 -0.16750292424E+02 -0.26807821206E+02  0.31868314392E+02  0.00000000000E+00 0. -1.
</event>
<event>
 8    1  0.1262344E-006  0.9118800E+02  0.7816164E-02  0.1184000E+00
        -11   -1    0    0    0    0  0.00000000000E+00  0.00000000000E+00  0.45593999997E+02  0.45594000000E+02  0.51100000000E-03 0. -1.
         11   -1    0    0    0    0 -0.00000000000E+00 -0.00000000000E+00 -0.45593999997E+02  0.45594000000E+02  0.51100000000E-03 0.  1.
         23    2    1    2    0    0 -0.17763568394E-14 -0.35527136788E-14  0.00000000000E+00  0.91188000000E+02  0.91188000000E+02 0.  0.
    9900012    2    3    3    0    0 -0.14955681289E+02  0.29511446087E+02 -0.16161129500E+02  0.54367082580E+02  0.39999996357E+02 0.  0.
         12    1    3    3    0    0  0.14955681289E+02 -0.29511446087E+02  0.16161129500E+02  0.36820917420E+02  0.00000000000E+00 0. -1.
         11    1    4    4    0    0 -0.15983486198E+02  0.85753521273E+01  0.21183245756E+01  0.18261867221E+02  0.51100000000E-03 0. -1.
        -11    1    4    4    0    0  0.11836415830E+02  0.13342251324E+02 -0.91330178910E+01  0.20038174222E+02  0.51100000000E-03 0.  1.
        -12    1    4    4    0    0 -0.10808610921E+02  0.75938426352E+01 -0.91464361844E+01  0.16067041137E+02  0.00000000000E+00 0.  1.
</event>
<event>
 8    1  0.1262344E-006  0.9118800E+02  0.7816164E-02  0.1184000E+00
        -11   -1    0    0    0    0  0.00000000000E+00  0.00000000000E+00  0.45593999997E+02  0.45594000000E+02  0.51100000000E-03 0. -1.
         11   -1    0    0    0    0 -0.00000000000E+00 -0.00000000000E+00 -0.45593999997E+02  0.45594000000E+02  0.51100000000E-03 0.  1.
         23    2    1    2    0    0  0.00000000000E+00  0.00000000000E+00  0.00000000000E+00  0.91188000000E+02  0.91188000000E+02 0.  0.
    9900012    2    3    3    0    0 -0.92904550309E+01 -0.30115168542E+02 -0.19040551411E+02  0.54367102007E+02  0.40000040645E+02 0.  0.
         12    1    3    3    0    0  0.92904550309E+01  0.30115168542E+02  0.19040551411E+02  0.36820897993E+02  0.00000000000E+00 0. -1.
         11    1    4    4    0    0  0.19667627507E+01  0.20406702812E+01  0.48395310782E+01  0.56083466576E+01  0.51100000000E-03 0. -1.
        -11    1    4    4    0    0  0.42895361712E+01 -0.15141758392E+02 -0.23481643591E+00  0.15739380763E+02  0.51100000000E-03 0.  1.
        -12    1    4    4    0    0 -0.15546753953E+02 -0.17014080431E+02 -0.23645266053E+02  0.33019374587E+02  0.00000000000E+00 0.  1.
</event>
<event>
 8    1  0.1262344E-006  0.9118800E+02  0.7816164E-02  0.1184000E+00
        -11   -1    0    0    0    0  0.00000000000E+00  0.00000000000E+00  0.45593999997E+02  0.45594000000E+02  0.51100000000E-03 0.  1.
         11   -1    0    0    0    0 -0.00000000000E+00 -0.00000000000E+00 -0.45593999997E+02  0.45594000000E+02  0.51100000000E-03 0. -1.
         23    2    1    2    0    0  0.00000000000E+00  0.71054273576E-14  0.00000000000E+00  0.91188000000E+02  0.91188000000E+02 0.  0.
    9900012    2    3    3    0    0  0.90707558032E+01 -0.34497981321E+02 -0.91318458001E+01  0.54367082931E+02  0.39999997159E+02 0.  0.
        -12    1    3    3    0    0 -0.90707558032E+01  0.34497981321E+02  0.91318458001E+01  0.36820917069E+02  0.00000000000E+00 0.  1.
         11    1    4    4    0    0  0.66962795488E+01 -0.44903943279E+01  0.47307525839E+01  0.93479313908E+01  0.51100000000E-03 0. -1.
        -11    1    4    4    0    0  0.64566371309E+01 -0.31426702758E+02 -0.17186579196E+01  0.32129108213E+02  0.51100000000E-03 0.  1.
        -12    1    4    4    0    0 -0.40821608765E+01  0.14191157651E+01 -0.12143940465E+02  0.12890043327E+02  0.00000000000E+00 0.  1.
</event>
<event>
 8    1  0.1262344E-006  0.9118800E+02  0.7816164E-02  0.1184000E+00
        -11   -1    0    0    0    0  0.00000000000E+00  0.00000000000E+00  0.45593999997E+02  0.45594000000E+02  0.51100000000E-03 0. -1.
         11   -1    0    0    0    0 -0.00000000000E+00 -0.00000000000E+00 -0.45593999997E+02  0.45594000000E+02  0.51100000000E-03 0.  1.
         23    2    1    2    0    0  0.00000000000E+00  0.35527136788E-14  0.00000000000E+00  0.91188000000E+02  0.91188000000E+02 0.  0.
    9900012    2    3    3    0    0  0.16089000958E+02 -0.27215433264E+02 -0.18874462975E+02  0.54367066930E+02  0.39999960680E+02 0.  0.
         12    1    3    3    0    0 -0.16089000958E+02  0.27215433264E+02  0.18874462975E+02  0.36820933070E+02  0.00000000000E+00 0. -1.
         11    1    4    4    0    0 -0.63209959226E+01 -0.21606978841E+01 -0.29700813053E+01  0.73106079105E+01  0.51100000000E-03 0. -1.
        -11    1    4    4    0    0 -0.33385257693E+01 -0.73098018644E+00  0.49027975659E+01  0.59764128521E+01  0.51100000000E-03 0.  1.
        -12    1    4    4    0    0  0.25748522650E+02 -0.24323755193E+02 -0.20807179236E+02  0.41080046167E+02  0.00000000000E+00 0.  1.
</event>
<event>
 8    1  0.1262344E-006  0.9118800E+02  0.7816164E-02  0.1184000E+00
        -11   -1    0    0    0    0  0.00000000000E+00  0.00000000000E+00  0.45593999997E+02  0.45594000000E+02  0.51100000000E-03 0.  1.
         11   -1    0    0    0    0 -0.00000000000E+00 -0.00000000000E+00 -0.45593999997E+02  0.45594000000E+02  0.51100000000E-03 0. -1.
         23    2    1    2    0    0 -0.35527136788E-14  0.00000000000E+00 -0.35527136788E-14  0.91188000000E+02  0.91188000000E+02 0.  0.
    9900012    2    3    3    0    0 -0.28620283952E+02 -0.16792031219E+02 -0.15958933226E+02  0.54367075030E+02  0.39999979146E+02 0.  0.
        -12    1    3    3    0    0  0.28620283952E+02  0.16792031219E+02  0.15958933226E+02  0.36820924970E+02  0.00000000000E+00 0.  1.
         11    1    4    4    0    0 -0.26766945708E+01 -0.41110770621E+01  0.95985491442E+01  0.10779508076E+02  0.51100000000E-03 0. -1.
        -11    1    4    4    0    0  0.45477535705E+00 -0.60069241887E+01 -0.11409895680E+02  0.12902545428E+02  0.51100000000E-03 0.  1.
         12    1    4    4    0    0 -0.26398364738E+02 -0.66740299681E+01 -0.14147586690E+02  0.30685021525E+02  0.00000000000E+00 0. -1.
</event>
<event>
 8    1  0.1262344E-006  0.9118800E+02  0.7816164E-02  0.1184000E+00
        -11   -1    0    0    0    0  0.00000000000E+00  0.00000000000E+00  0.45593999997E+02  0.45594000000E+02  0.51100000000E-03 0. -1.
         11   -1    0    0    0    0 -0.00000000000E+00 -0.00000000000E+00 -0.45593999997E+02  0.45594000000E+02  0.51100000000E-03 0.  1.
         23    2    1    2    0    0  0.00000000000E+00 -0.44408920985E-15  0.00000000000E+00  0.91188000000E+02  0.91188000000E+02 0.  0.
    9900012    2    3    3    0    0 -0.29490231080E+02 -0.27244001049E+01  0.21878823831E+02  0.54367095376E+02  0.40000025529E+02 0.  0.
        -12    1    3    3    0    0  0.29490231080E+02  0.27244001049E+01 -0.21878823831E+02  0.36820904624E+02  0.00000000000E+00 0.  1.
         11    1    4    4    0    0 -0.30620499438E+02 -0.12966201196E+02  0.14964905305E+02  0.36464856374E+02  0.51100000000E-03 0. -1.
        -11    1    4    4    0    0  0.67931837991E+01  0.67389005076E+01  0.56878149870E+01  0.11131548220E+02  0.51100000000E-03 0.  1.
         12    1    4    4    0    0 -0.56629154409E+01  0.35029005832E+01  0.12261035387E+01  0.67706907827E+01  0.00000000000E+00 0. -1.
</event>
<event>
 8    1  0.1262344E-006  0.9118800E+02  0.7816164E-02  0.1184000E+00
        -11   -1    0    0    0    0  0.00000000000E+00  0.00000000000E+00  0.45593999997E+02  0.45594000000E+02  0.51100000000E-03 0.  1.
         11   -1    0    0    0    0 -0.00000000000E+00 -0.00000000000E+00 -0.45593999997E+02  0.45594000000E+02  0.51100000000E-03 0. -1.
         23    2    1    2    0    0  0.00000000000E+00  0.17763568394E-14  0.00000000000E+00  0.91188000000E+02  0.91188000000E+02 0.  0.
    9900012    2    3    3    0    0  0.73887599003E+01 -0.73023221165E+01 -0.35325168292E+02  0.54367011474E+02  0.39999834258E+02 0.  0.
        -12    1    3    3    0    0 -0.73887599003E+01  0.73023221165E+01  0.35325168292E+02  0.36820988526E+02  0.00000000000E+00 0.  1.
         11    1    4    4    0    0  0.67059749214E+01  0.13265559033E+02 -0.28422207337E+02  0.32074398299E+02  0.51100000000E-03 0. -1.
        -11    1    4    4    0    0  0.19966344739E+01 -0.16654020056E+02 -0.39940953581E+01  0.17242265839E+02  0.51100000000E-03 0.  1.
         12    1    4    4    0    0 -0.13138494950E+01 -0.39138610934E+01 -0.29088655972E+01  0.50503473362E+01  0.00000000000E+00 0. -1.
</event>
<event>
 8    1  0.1262344E-006  0.9118800E+02  0.7816164E-02  0.1184000E+00
        -11   -1    0    0    0    0  0.00000000000E+00  0.00000000000E+00  0.45593999997E+02  0.45594000000E+02  0.51100000000E-03 0.  1.
         11   -1    0    0    0    0 -0.00000000000E+00 -0.00000000000E+00 -0.45593999997E+02  0.45594000000E+02  0.51100000000E-03 0. -1.
         23    2    1    2    0    0  0.00000000000E+00  0.00000000000E+00 -0.35527136788E-14  0.91188000000E+02  0.91188000000E+02 0.  0.
    9900012    2    3    3    0    0  0.15009498658E+02 -0.18882421628E+02 -0.27819892805E+02  0.54367118259E+02  0.40000077695E+02 0.  0.
        -12    1    3    3    0    0 -0.15009498658E+02  0.18882421628E+02  0.27819892805E+02  0.36820881741E+02  0.00000000000E+00 0.  1.
         11    1    4    4    0    0 -0.21887150679E+01 -0.14812288400E+02 -0.10344814394E+02  0.18199163344E+02  0.51100000000E-03 0. -1.
        -11    1    4    4    0    0 -0.34690452959E+00  0.86971491178E+01 -0.99065952358E+01  0.13187167056E+02  0.51100000000E-03 0.  1.
        -12    1    4    4    0    0  0.17545118255E+02 -0.12767282346E+02 -0.75684831747E+01  0.22980787860E+02  0.00000000000E+00 0.  1.
</event>
<event>
 8    1  0.1262344E-006  0.9118800E+02  0.7816164E-02  0.1184000E+00
        -11   -1    0    0    0    0  0.00000000000E+00  0.00000000000E+00  0.45593999997E+02  0.45594000000E+02  0.51100000000E-03 0. -1.
         11   -1    0    0    0    0 -0.00000000000E+00 -0.00000000000E+00 -0.45593999997E+02  0.45594000000E+02  0.51100000000E-03 0.  1.
         23    2    1    2    0    0  0.00000000000E+00  0.17763568394E-14  0.00000000000E+00  0.91188000000E+02  0.91188000000E+02 0.  0.
    9900012    2    3    3    0    0 -0.31632821819E+02 -0.11027605574E+02 -0.15281886627E+02  0.54367088010E+02  0.40000008736E+02 0.  0.
        -12    1    3    3    0    0  0.31632821819E+02  0.11027605574E+02  0.15281886627E+02  0.36820911990E+02  0.00000000000E+00 0.  1.
         11    1    4    4    0    0 -0.32308074265E+02  0.69735497430E+01 -0.14348798251E+02  0.36032347554E+02  0.51100000000E-03 0. -1.
        -11    1    4    4    0    0  0.13095270632E+01 -0.28005006329E+01  0.11414509521E-01  0.30915684492E+01  0.51100000000E-03 0.  1.
         12    1    4    4    0    0 -0.63427461654E+00 -0.15200654684E+02 -0.94450288484E+00  0.15243172006E+02  0.00000000000E+00 0. -1.
</event>
<event>
 8    1  0.1262344E-006  0.9118800E+02  0.7816164E-02  0.1184000E+00
        -11   -1    0    0    0    0  0.00000000000E+00  0.00000000000E+00  0.45593999997E+02  0.45594000000E+02  0.51100000000E-03 0.  1.
         11   -1    0    0    0    0 -0.00000000000E+00 -0.00000000000E+00 -0.45593999997E+02  0.45594000000E+02  0.51100000000E-03 0. -1.
         23    2    1    2    0    0  0.35527136788E-14 -0.71054273576E-14  0.35527136788E-14  0.91188000000E+02  0.91188000000E+02 0.  0.
    9900012    2    3    3    0    0 -0.22099129961E+02  0.22384668244E+02 -0.19139885556E+02  0.54367080178E+02  0.39999990882E+02 0.  0.
         12    1    3    3    0    0  0.22099129961E+02 -0.22384668244E+02  0.19139885556E+02  0.36820919822E+02  0.00000000000E+00 0. -1.
         11    1    4    4    0    0 -0.21754180602E+02  0.77397038540E+01 -0.52309740662E+01  0.23675102520E+02  0.51100000000E-03 0. -1.
        -11    1    4    4    0    0 -0.62885943691E+01  0.17649105131E+02 -0.46809792224E+01  0.19311884885E+02  0.51100000000E-03 0.  1.
         12    1    4    4    0    0  0.59436450094E+01 -0.30041407411E+01 -0.92279322676E+01  0.11380092773E+02  0.00000000000E+00 0. -1.
</event>
<event>
 8    1  0.1262344E-006  0.9118800E+02  0.7816164E-02  0.1184000E+00
        -11   -1    0    0    0    0  0.00000000000E+00  0.00000000000E+00  0.45593999997E+02  0.45594000000E+02  0.51100000000E-03 0.  1.
         11   -1    0    0    0    0 -0.00000000000E+00 -0.00000000000E+00 -0.45593999997E+02  0.45594000000E+02  0.51100000000E-03 0. -1.
         23    2    1    2    0    0  0.00000000000E+00  0.00000000000E+00 -0.44408920985E-15  0.91188000000E+02  0.91188000000E+02 0.  0.
    9900012    2    3    3    0    0  0.36586929947E+02  0.22098263317E+01 -0.35061421679E+01  0.54367084636E+02  0.40000001044E+02 0.  0.
        -12    1    3    3    0    0 -0.36586929947E+02 -0.22098263317E+01  0.35061421679E+01  0.36820915364E+02  0.00000000000E+00 0.  1.
         11    1    4    4    0    0  0.36946157527E+02  0.41169477142E+01 -0.80649574189E+01  0.38039602429E+02  0.51100000000E-03 0. -1.
        -11    1    4    4    0    0  0.63870083270E-01 -0.55227804345E+01  0.90156148098E+01  0.10572913211E+02  0.51100000000E-03 0.  1.
        -12    1    4    4    0    0 -0.42309766364E+00  0.36156590520E+01 -0.44567995588E+01  0.57545689952E+01  0.00000000000E+00 0.  1.
</event>
<event>
 8    1  0.1262344E-006  0.9118800E+02  0.7816164E-02  0.1184000E+00
        -11   -1    0    0    0    0  0.00000000000E+00  0.00000000000E+00  0.45593999997E+02  0.45594000000E+02  0.51100000000E-03 0.  1.
         11   -1    0    0    0    0 -0.00000000000E+00 -0.00000000000E+00 -0.45593999997E+02  0.45594000000E+02  0.51100000000E-03 0. -1.
         23    2    1    2    0    0  0.00000000000E+00  0.00000000000E+00  0.00000000000E+00  0.91188000000E+02  0.91188000000E+02 0.  0.
    9900012    2    3    3    0    0  0.45620133371E+01 -0.17076499787E+02  0.32301078651E+02  0.54367102500E+02  0.40000041770E+02 0.  0.
         12    1    3    3    0    0 -0.45620133371E+01  0.17076499787E+02 -0.32301078651E+02  0.36820897500E+02  0.00000000000E+00 0. -1.
         11    1    4    4    0    0 -0.64396359043E+01 -0.10590004142E+02  0.23945173641E+01  0.12623423148E+02  0.51100000000E-03 0. -1.
        -11    1    4    4    0    0  0.57556838962E+01  0.32640807532E+01 -0.28216255519E+01  0.71933087862E+01  0.51100000000E-03 0.  1.
        -12    1    4    4    0    0  0.52459653451E+01 -0.97505763984E+01  0.32728186839E+02  0.34550370566E+02  0.00000000000E+00 0.  1.
</event>
<event>
 8    1  0.1262344E-006  0.9118800E+02  0.7816164E-02  0.1184000E+00
        -11   -1    0    0    0    0  0.00000000000E+00  0.00000000000E+00  0.45593999997E+02  0.45594000000E+02  0.51100000000E-03 0. -1.
         11   -1    0    0    0    0 -0.00000000000E+00 -0.00000000000E+00 -0.45593999997E+02  0.45594000000E+02  0.51100000000E-03 0.  1.
         23    2    1    2    0    0  0.00000000000E+00  0.00000000000E+00  0.35527136788E-14  0.91188000000E+02  0.91188000000E+02 0.  0.
    9900012    2    3    3    0    0 -0.32765881698E+02 -0.32558770989E+01 -0.16479579205E+02  0.54367078367E+02  0.39999986754E+02 0.  0.
        -12    1    3    3    0    0  0.32765881698E+02  0.32558770989E+01  0.16479579205E+02  0.36820921633E+02  0.00000000000E+00 0.  1.
         11    1    4    4    0    0 -0.59731615579E+01 -0.46554169797E+01  0.60115415398E+01  0.96690329505E+01  0.51100000000E-03 0. -1.
        -11    1    4    4    0    0 -0.12414939698E+02 -0.58600094428E+01 -0.24879026358E+02  0.28415425233E+02  0.51100000000E-03 0.  1.
        -12    1    4    4    0    0 -0.14377780442E+02  0.72595493237E+01  0.23879056134E+01  0.16282620184E+02  0.00000000000E+00 0.  1.
</event>
<event>
 8    1  0.1262344E-006  0.9118800E+02  0.7816164E-02  0.1184000E+00
        -11   -1    0    0    0    0  0.00000000000E+00  0.00000000000E+00  0.45593999997E+02  0.45594000000E+02  0.51100000000E-03 0.  1.
         11   -1    0    0    0    0 -0.00000000000E+00 -0.00000000000E+00 -0.45593999997E+02  0.45594000000E+02  0.51100000000E-03 0. -1.
         23    2    1    2    0    0  0.00000000000E+00  0.00000000000E+00  0.44408920985E-15  0.91188000000E+02  0.91188000000E+02 0.  0.
    9900012    2    3    3    0    0  0.23007511816E+02 -0.28663975659E+02  0.21934313306E+01  0.54367078752E+02  0.39999987630E+02 0.  0.
        -12    1    3    3    0    0 -0.23007511816E+02  0.28663975659E+02 -0.21934313306E+01  0.36820921248E+02  0.00000000000E+00 0.  1.
         11    1    4    4    0    0 -0.63791298190E+01 -0.15513548779E+02 -0.25420926684E+00  0.16775819371E+02  0.51100000000E-03 0. -1.
        -11    1    4    4    0    0  0.71277348511E+01  0.47964243469E+01 -0.15192597770E+01  0.87245883086E+01  0.51100000000E-03 0.  1.
         12    1    4    4    0    0  0.22258906784E+02 -0.17946851227E+02  0.39669003744E+01  0.28866671072E+02  0.00000000000E+00 0. -1.
</event>
<event>
 8    1  0.1262344E-006  0.9118800E+02  0.7816164E-02  0.1184000E+00
        -11   -1    0    0    0    0  0.00000000000E+00  0.00000000000E+00  0.45593999997E+02  0.45594000000E+02  0.51100000000E-03 0. -1.
         11   -1    0    0    0    0 -0.00000000000E+00 -0.00000000000E+00 -0.45593999997E+02  0.45594000000E+02  0.51100000000E-03 0.  1.
         23    2    1    2    0    0  0.17763568394E-14 -0.44408920985E-15  0.71054273576E-14  0.91188000000E+02  0.91188000000E+02 0.  0.
    9900012    2    3    3    0    0  0.10194543231E+02  0.22759528003E+01 -0.35308249225E+02  0.54367066603E+02  0.39999959935E+02 0.  0.
         12    1    3    3    0    0 -0.10194543231E+02 -0.22759528003E+01  0.35308249225E+02  0.36820933397E+02  0.00000000000E+00 0. -1.
         11    1    4    4    0    0  0.18051739384E+02  0.77991035201E+01 -0.17490757204E+02  0.26317634740E+02  0.51100000000E-03 0. -1.
        -11    1    4    4    0    0  0.30378480258E+01 -0.90138509354E+01 -0.45924146040E+01  0.10562589714E+02  0.51100000000E-03 0.  1.
        -12    1    4    4    0    0 -0.10895044178E+02  0.34907002156E+01 -0.13225077417E+02  0.17486842149E+02  0.00000000000E+00 0.  1.
</event>
<event>
 8    1  0.1262344E-006  0.9118800E+02  0.7816164E-02  0.1184000E+00
        -11   -1    0    0    0    0  0.00000000000E+00  0.00000000000E+00  0.45593999997E+02  0.45594000000E+02  0.51100000000E-03 0. -1.
         11   -1    0    0    0    0 -0.00000000000E+00 -0.00000000000E+00 -0.45593999997E+02  0.45594000000E+02  0.51100000000E-03 0.  1.
         23    2    1    2    0    0  0.35527136788E-14  0.35527136788E-14  0.00000000000E+00  0.91188000000E+02  0.91188000000E+02 0.  0.
    9900012    2    3    3    0    0 -0.25970931813E+02 -0.14423749971E+02  0.21754187524E+02  0.54367101894E+02  0.40000040388E+02 0.  0.
        -12    1    3    3    0    0  0.25970931813E+02  0.14423749971E+02 -0.21754187524E+02  0.36820898106E+02  0.00000000000E+00 0.  1.
         11    1    4    4    0    0 -0.80493896855E+01 -0.95384485237E+01  0.18115601102E+02  0.21998856291E+02  0.51100000000E-03 0. -1.
        -11    1    4    4    0    0 -0.27204994200E+01 -0.11478818588E+02 -0.59626227807E+01  0.13218065818E+02  0.51100000000E-03 0.  1.
         12    1    4    4    0    0 -0.15201042708E+02  0.65935171403E+01  0.96012092028E+01  0.19150179786E+02  0.00000000000E+00 0. -1.
</event>
<event>
 8    1  0.1262344E-006  0.9118800E+02  0.7816164E-02  0.1184000E+00
        -11   -1    0    0    0    0  0.00000000000E+00  0.00000000000E+00  0.45593999997E+02  0.45594000000E+02  0.51100000000E-03 0. -1.
         11   -1    0    0    0    0 -0.00000000000E+00 -0.00000000000E+00 -0.45593999997E+02  0.45594000000E+02  0.51100000000E-03 0.  1.
         23    2    1    2    0    0  0.00000000000E+00 -0.17763568394E-14  0.00000000000E+00  0.91188000000E+02  0.91188000000E+02 0.  0.
    9900012    2    3    3    0    0 -0.17157810920E+02 -0.89735218541E+01 -0.31318813547E+02  0.54367046019E+02  0.39999913010E+02 0.  0.
         12    1    3    3    0    0  0.17157810920E+02  0.89735218541E+01  0.31318813547E+02  0.36820953981E+02  0.00000000000E+00 0. -1.
         11    1    4    4    0    0  0.70992941155E+01  0.14831569798E+01 -0.20408974080E+02  0.21659315659E+02  0.51100000000E-03 0. -1.
        -11    1    4    4    0    0 -0.13785978972E+02  0.20229909195E+01 -0.82742600075E+01  0.16205217907E+02  0.51100000000E-03 0.  1.
         12    1    4    4    0    0 -0.10471126063E+02 -0.12479669753E+02 -0.26355794598E+01  0.16502512453E+02  0.00000000000E+00 0. -1.
</event>
<event>
 8    1  0.1262344E-006  0.9118800E+02  0.7816164E-02  0.1184000E+00
        -11   -1    0    0    0    0  0.00000000000E+00  0.00000000000E+00  0.45593999997E+02  0.45594000000E+02  0.51100000000E-03 0. -1.
         11   -1    0    0    0    0 -0.00000000000E+00 -0.00000000000E+00 -0.45593999997E+02  0.45594000000E+02  0.51100000000E-03 0.  1.
         23    2    1    2    0    0  0.00000000000E+00  0.00000000000E+00  0.00000000000E+00  0.91188000000E+02  0.91188000000E+02 0.  0.
    9900012    2    3    3    0    0  0.35452710163E+02 -0.74765777308E+01  0.65563332844E+01  0.54367090471E+02  0.40000014346E+02 0.  0.
        -12    1    3    3    0    0 -0.35452710163E+02  0.74765777308E+01 -0.65563332844E+01  0.36820909529E+02  0.00000000000E+00 0.  1.
         11    1    4    4    0    0  0.70837705209E+01  0.14579242567E+02  0.56850374396E+01  0.17177129258E+02  0.51100000000E-03 0. -1.
        -11    1    4    4    0    0  0.44034636824E+01 -0.10839813346E+01 -0.24790685418E+01  0.51682965310E+01  0.51100000000E-03 0.  1.
         12    1    4    4    0    0  0.23965475959E+02 -0.20971838963E+02  0.33503643865E+01  0.32021664681E+02  0.00000000000E+00 0. -1.
</event>
<event>
 8    1  0.1262344E-006  0.9118800E+02  0.7816164E-02  0.1184000E+00
        -11   -1    0    0    0    0  0.00000000000E+00  0.00000000000E+00  0.45593999997E+02  0.45594000000E+02  0.51100000000E-03 0.  1.
         11   -1    0    0    0    0 -0.00000000000E+00 -0.00000000000E+00 -0.45593999997E+02  0.45594000000E+02  0.51100000000E-03 0. -1.
         23    2    1    2    0    0  0.35527136788E-14  0.00000000000E+00 -0.35527136788E-14  0.91188000000E+02  0.91188000000E+02 0.  0.
    9900012    2    3    3    0    0  0.18236514579E+02  0.53676577956E+01 -0.31534069909E+02  0.54367085030E+02  0.40000001942E+02 0.  0.
        -12    1    3    3    0    0 -0.18236514579E+02 -0.53676577956E+01  0.31534069909E+02  0.36820914970E+02  0.00000000000E+00 0.  1.
         11    1    4    4    0    0  0.19191297411E+02  0.83258953554E+01 -0.33595459741E+02  0.39576272503E+02  0.51100000000E-03 0. -1.
        -11    1    4    4    0    0 -0.34380093060E+01  0.48345357923E+01  0.28359632183E+01  0.65753579334E+01  0.51100000000E-03 0.  1.
         12    1    4    4    0    0  0.24832264737E+01 -0.77927733521E+01 -0.77457338708E+00  0.82154545930E+01  0.00000000000E+00 0. -1.
</event>
<event>
 8    1  0.1262344E-006  0.9118800E+02  0.7816164E-02  0.1184000E+00
        -11   -1    0    0    0    0  0.00000000000E+00  0.00000000000E+00  0.45593999997E+02  0.45594000000E+02  0.51100000000E-03 0. -1.
         11   -1    0    0    0    0 -0.00000000000E+00 -0.00000000000E+00 -0.45593999997E+02  0.45594000000E+02  0.51100000000E-03 0.  1.
         23    2    1    2    0    0 -0.88817841970E-15 -0.17763568394E-14  0.00000000000E+00  0.91188000000E+02  0.91188000000E+02 0.  0.
    9900012    2    3    3    0    0 -0.46380853230E+01 -0.15024112349E+02 -0.33294805226E+02  0.54367084172E+02  0.39999999988E+02 0.  0.
         12    1    3    3    0    0  0.46380853230E+01  0.15024112349E+02  0.33294805226E+02  0.36820915828E+02  0.00000000000E+00 0. -1.
         11    1    4    4    0    0  0.47621289424E+01 -0.63367853971E+01 -0.25894800560E+01  0.83389524794E+01  0.51100000000E-03 0. -1.
        -11    1    4    4    0    0 -0.12906616711E+02  0.88842959607E+01 -0.18991419835E+02  0.24620834617E+02  0.51100000000E-03 0.  1.
        -12    1    4    4    0    0  0.35064024452E+01 -0.17571622913E+02 -0.11713905335E+02  0.21407297076E+02  0.00000000000E+00 0.  1.
</event>
<event>
 8    1  0.1262344E-006  0.9118800E+02  0.7816164E-02  0.1184000E+00
        -11   -1    0    0    0    0  0.00000000000E+00  0.00000000000E+00  0.45593999997E+02  0.45594000000E+02  0.51100000000E-03 0. -1.
         11   -1    0    0    0    0 -0.00000000000E+00 -0.00000000000E+00 -0.45593999997E+02  0.45594000000E+02  0.51100000000E-03 0.  1.
         23    2    1    2    0    0  0.00000000000E+00  0.35527136788E-14 -0.17763568394E-14  0.91188000000E+02  0.91188000000E+02 0.  0.
    9900012    2    3    3    0    0  0.17033469104E+02  0.28487820031E+02 -0.15939969384E+02  0.54367114842E+02  0.40000069906E+02 0.  0.
         12    1    3    3    0    0 -0.17033469104E+02 -0.28487820031E+02  0.15939969384E+02  0.36820885158E+02  0.00000000000E+00 0. -1.
         11    1    4    4    0    0 -0.31080684158E+01  0.71841025682E+01 -0.14391264114E+02  0.16382304540E+02  0.51100000000E-03 0.  1.
        -11    1    4    4    0    0  0.10231527310E+02  0.18067409887E+02  0.94656208858E+01  0.22819146131E+02  0.51100000000E-03 0. -1.
         12    1    4    4    0    0  0.99100102102E+01  0.32363075752E+01 -0.11014326156E+02  0.15165664172E+02  0.00000000000E+00 0. -1.
</event>
<event>
 8    1  0.1262344E-006  0.9118800E+02  0.7816164E-02  0.1184000E+00
        -11   -1    0    0    0    0  0.00000000000E+00  0.00000000000E+00  0.45593999997E+02  0.45594000000E+02  0.51100000000E-03 0. -1.
         11   -1    0    0    0    0 -0.00000000000E+00 -0.00000000000E+00 -0.45593999997E+02  0.45594000000E+02  0.51100000000E-03 0.  1.
         23    2    1    2    0    0 -0.35527136788E-14  0.00000000000E+00  0.00000000000E+00  0.91188000000E+02  0.91188000000E+02 0.  0.
    9900012    2    3    3    0    0  0.23384979477E+02 -0.13480229585E+02 -0.25044037433E+02  0.54367113730E+02  0.40000067369E+02 0.  0.
         12    1    3    3    0    0 -0.23384979477E+02  0.13480229585E+02  0.25044037433E+02  0.36820886270E+02  0.00000000000E+00 0. -1.
         11    1    4    4    0    0  0.20920497617E+02  0.21613364231E+01 -0.10424272806E+02  0.23473475658E+02  0.51100000000E-03 0. -1.
        -11    1    4    4    0    0 -0.33413041182E+01 -0.56500194685E+00 -0.14340471664E+02  0.14735422227E+02  0.51100000000E-03 0.  1.
        -12    1    4    4    0    0  0.58057859781E+01 -0.15076564061E+02 -0.27929296307E+00  0.16158215844E+02  0.00000000000E+00 0.  1.
</event>
<event>
 8    1  0.1262344E-006  0.9118800E+02  0.7816164E-02  0.1184000E+00
        -11   -1    0    0    0    0  0.00000000000E+00  0.00000000000E+00  0.45593999997E+02  0.45594000000E+02  0.51100000000E-03 0.  1.
         11   -1    0    0    0    0 -0.00000000000E+00 -0.00000000000E+00 -0.45593999997E+02  0.45594000000E+02  0.51100000000E-03 0. -1.
         23    2    1    2    0    0  0.17763568394E-14  0.00000000000E+00  0.00000000000E+00  0.91188000000E+02  0.91188000000E+02 0.  0.
    9900012    2    3    3    0    0 -0.13284025317E+02 -0.10267152318E+02  0.32770405803E+02  0.54367092327E+02  0.40000018578E+02 0.  0.
         12    1    3    3    0    0  0.13284025317E+02  0.10267152318E+02 -0.32770405803E+02  0.36820907673E+02  0.00000000000E+00 0. -1.
         11    1    4    4    0    0 -0.12070491677E+02 -0.18682014551E+02  0.94382599347E+01  0.24161853983E+02  0.51100000000E-03 0. -1.
        -11    1    4    4    0    0  0.77814751388E+01  0.26070063247E+01  0.76685896433E+01  0.11231878948E+02  0.51100000000E-03 0.  1.
        -12    1    4    4    0    0 -0.89950087785E+01  0.58078559086E+01  0.15663556225E+02  0.18973359397E+02  0.00000000000E+00 0.  1.
</event>
<event>
 8    1  0.1262344E-006  0.9118800E+02  0.7816164E-02  0.1184000E+00
        -11   -1    0    0    0    0  0.00000000000E+00  0.00000000000E+00  0.45593999997E+02  0.45594000000E+02  0.51100000000E-03 0.  1.
         11   -1    0    0    0    0 -0.00000000000E+00 -0.00000000000E+00 -0.45593999997E+02  0.45594000000E+02  0.51100000000E-03 0. -1.
         23    2    1    2    0    0  0.00000000000E+00 -0.35527136788E-14  0.00000000000E+00  0.91188000000E+02  0.91188000000E+02 0.  0.
    9900012    2    3    3    0    0  0.19120367980E+02  0.29040126077E+02 -0.12118655718E+02  0.54367092751E+02  0.40000019544E+02 0.  0.
         12    1    3    3    0    0 -0.19120367980E+02 -0.29040126077E+02  0.12118655718E+02  0.36820907249E+02  0.00000000000E+00 0. -1.
         11    1    4    4    0    0  0.13874048060E+02 -0.16686549110E+01 -0.50243648522E+01  0.14849843811E+02  0.51100000000E-03 0. -1.
        -11    1    4    4    0    0  0.92558193663E+01  0.64593185168E+01  0.47353004152E+01  0.12239937015E+02  0.51100000000E-03 0.  1.
         12    1    4    4    0    0 -0.40094994465E+01  0.24249462471E+02 -0.11829591281E+02  0.27277311925E+02  0.00000000000E+00 0. -1.
</event>
<event>
 8    1  0.1262344E-006  0.9118800E+02  0.7816164E-02  0.1184000E+00
        -11   -1    0    0    0    0  0.00000000000E+00  0.00000000000E+00  0.45593999997E+02  0.45594000000E+02  0.51100000000E-03 0.  1.
         11   -1    0    0    0    0 -0.00000000000E+00 -0.00000000000E+00 -0.45593999997E+02  0.45594000000E+02  0.51100000000E-03 0. -1.
         23    2    1    2    0    0  0.00000000000E+00  0.00000000000E+00  0.35527136788E-14  0.91188000000E+02  0.91188000000E+02 0.  0.
    9900012    2    3    3    0    0 -0.27047418870E+02 -0.15103228933E+02 -0.19902504118E+02  0.54367081191E+02  0.39999993192E+02 0.  0.
        -12    1    3    3    0    0  0.27047418870E+02  0.15103228933E+02  0.19902504118E+02  0.36820918809E+02  0.00000000000E+00 0.  1.
         11    1    4    4    0    0 -0.19253255105E+02  0.47696301177E+01  0.30490942457E+01  0.20068238079E+02  0.51100000000E-03 0. -1.
        -11    1    4    4    0    0 -0.11169135939E+02 -0.14882005087E+02 -0.20783272662E+02  0.27895664463E+02  0.51100000000E-03 0.  1.
        -12    1    4    4    0    0  0.33749721742E+01 -0.49908539644E+01 -0.21683257019E+01  0.64031786497E+01  0.00000000000E+00 0.  1.
</event>
<event>
 8    1  0.1262344E-006  0.9118800E+02  0.7816164E-02  0.1184000E+00
        -11   -1    0    0    0    0  0.00000000000E+00  0.00000000000E+00  0.45593999997E+02  0.45594000000E+02  0.51100000000E-03 0.  1.
         11   -1    0    0    0    0 -0.00000000000E+00 -0.00000000000E+00 -0.45593999997E+02  0.45594000000E+02  0.51100000000E-03 0. -1.
         23    2    1    2    0    0  0.88817841970E-15 -0.71054273576E-14 -0.88817841970E-15  0.91188000000E+02  0.91188000000E+02 0.  0.
    9900012    2    3    3    0    0 -0.73186715612E+01  0.35257840511E+02  0.76877503277E+01  0.54367085074E+02  0.40000002042E+02 0.  0.
        -12    1    3    3    0    0  0.73186715612E+01 -0.35257840511E+02 -0.76877503277E+01  0.36820914926E+02  0.00000000000E+00 0.  1.
         11    1    4    4    0    0 -0.55115924982E+00  0.10660383040E+02 -0.25976711503E+01  0.10986147584E+02  0.51100000000E-03 0. -1.
        -11    1    4    4    0    0 -0.39563082539E+01  0.74017525019E+01 -0.12278378440E+02  0.14872689483E+02  0.51100000000E-03 0.  1.
        -12    1    4    4    0    0 -0.28112040575E+01  0.17195704969E+02  0.22563799918E+02  0.28508248006E+02  0.00000000000E+00 0.  1.
</event>
<event>
 8    1  0.1262344E-006  0.9118800E+02  0.7816164E-02  0.1184000E+00
        -11   -1    0    0    0    0  0.00000000000E+00  0.00000000000E+00  0.45593999997E+02  0.45594000000E+02  0.51100000000E-03 0.  1.
         11   -1    0    0    0    0 -0.00000000000E+00 -0.00000000000E+00 -0.45593999997E+02  0.45594000000E+02  0.51100000000E-03 0. -1.
         23    2    1    2    0    0  0.17763568394E-14 -0.71054273576E-14  0.00000000000E+00  0.91188000000E+02  0.91188000000E+02 0.  0.
    9900012    2    3    3    0    0  0.11360360427E+02 -0.33120298695E+02 -0.11391546574E+02  0.54367091429E+02  0.40000016530E+02 0.  0.
        -12    1    3    3    0    0 -0.11360360427E+02  0.33120298695E+02  0.11391546574E+02  0.36820908571E+02  0.00000000000E+00 0.  1.
         11    1    4    4    0    0 -0.94302960949E+01 -0.19641375142E+02 -0.27225204346E+01  0.21957372787E+02  0.51100000000E-03 0. -1.
        -11    1    4    4    0    0  0.32615149594E+01 -0.10536612278E+02  0.26416070853E+01  0.11341770866E+02  0.51100000000E-03 0.  1.
         12    1    4    4    0    0  0.17529141563E+02 -0.29423112751E+01 -0.11310633224E+02  0.21067947776E+02  0.00000000000E+00 0. -1.
</event>
<event>
 8    1  0.1262344E-006  0.9118800E+02  0.7816164E-02  0.1184000E+00
        -11   -1    0    0    0    0  0.00000000000E+00  0.00000000000E+00  0.45593999997E+02  0.45594000000E+02  0.51100000000E-03 0. -1.
         11   -1    0    0    0    0 -0.00000000000E+00 -0.00000000000E+00 -0.45593999997E+02  0.45594000000E+02  0.51100000000E-03 0.  1.
         23    2    1    2    0    0  0.00000000000E+00  0.00000000000E+00  0.71054273576E-14  0.91188000000E+02  0.91188000000E+02 0.  0.
    9900012    2    3    3    0    0  0.95810152577E+01  0.19939687209E+02 -0.29434706213E+02  0.54366961052E+02  0.39999719309E+02 0.  0.
        -12    1    3    3    0    0 -0.95810152577E+01 -0.19939687209E+02  0.29434706213E+02  0.36821038948E+02  0.00000000000E+00 0.  1.
         11    1    4    4    0    0 -0.32474100387E+01  0.66866143420E+00  0.36191142081E+01  0.49082347117E+01  0.51100000000E-03 0. -1.
        -11    1    4    4    0    0 -0.88758140930E+01  0.90818296189E+01 -0.13341940834E+02  0.18419204394E+02  0.51100000000E-03 0.  1.
         12    1    4    4    0    0  0.21704239389E+02  0.10189196156E+02 -0.19711879587E+02  0.31039521946E+02  0.00000000000E+00 0. -1.
</event>
<event>
 8    1  0.1262344E-006  0.9118800E+02  0.7816164E-02  0.1184000E+00
        -11   -1    0    0    0    0  0.00000000000E+00  0.00000000000E+00  0.45593999997E+02  0.45594000000E+02  0.51100000000E-03 0.  1.
         11   -1    0    0    0    0 -0.00000000000E+00 -0.00000000000E+00 -0.45593999997E+02  0.45594000000E+02  0.51100000000E-03 0. -1.
         23    2    1    2    0    0  0.00000000000E+00  0.17763568394E-14  0.00000000000E+00  0.91188000000E+02  0.91188000000E+02 0.  0.
    9900012    2    3    3    0    0  0.35527427648E+02  0.91566220640E+01 -0.31193358900E+01  0.54367189318E+02  0.40000239687E+02 0.  0.
         12    1    3    3    0    0 -0.35527427648E+02 -0.91566220640E+01  0.31193358900E+01  0.36820810682E+02  0.00000000000E+00 0. -1.
         11    1    4    4    0    0  0.18915694423E+02  0.68229923025E+01 -0.84671837863E+01  0.21818568262E+02  0.51100000000E-03 0. -1.
        -11    1    4    4    0    0  0.18684577257E+02 -0.62726884747E+01 -0.35168785942E+01  0.20020701368E+02  0.51100000000E-03 0.  1.
        -12    1    4    4    0    0 -0.20728440318E+01  0.86063182362E+01  0.88647264905E+01  0.12527919688E+02  0.00000000000E+00 0.  1.
</event>
<event>
 8    1  0.1262344E-006  0.9118800E+02  0.7816164E-02  0.1184000E+00
        -11   -1    0    0    0    0  0.00000000000E+00  0.00000000000E+00  0.45593999997E+02  0.45594000000E+02  0.51100000000E-03 0.  1.
         11   -1    0    0    0    0 -0.00000000000E+00 -0.00000000000E+00 -0.45593999997E+02  0.45594000000E+02  0.51100000000E-03 0. -1.
         23    2    1    2    0    0  0.00000000000E+00  0.00000000000E+00  0.00000000000E+00  0.91188000000E+02  0.91188000000E+02 0.  0.
    9900012    2    3    3    0    0 -0.25690165759E+02 -0.14786322818E+02  0.21844071804E+02  0.54367035425E+02  0.39999888859E+02 0.  0.
         12    1    3    3    0    0  0.25690165759E+02  0.14786322818E+02 -0.21844071804E+02  0.36820964575E+02  0.00000000000E+00 0. -1.
         11    1    4    4    0    0  0.91194608448E+00 -0.92452448273E+01 -0.15255851168E+01  0.94145423568E+01  0.51100000000E-03 0. -1.
        -11    1    4    4    0    0 -0.16042564333E+02 -0.97789679112E+01 -0.19010209996E+00  0.18789045289E+02  0.51100000000E-03 0.  1.
        -12    1    4    4    0    0 -0.10559547510E+02  0.42378899205E+01  0.23559759021E+02  0.26163447780E+02  0.00000000000E+00 0.  1.
</event>
<event>
 8    1  0.1262344E-006  0.9118800E+02  0.7816164E-02  0.1184000E+00
        -11   -1    0    0    0    0  0.00000000000E+00  0.00000000000E+00  0.45593999997E+02  0.45594000000E+02  0.51100000000E-03 0. -1.
         11   -1    0    0    0    0 -0.00000000000E+00 -0.00000000000E+00 -0.45593999997E+02  0.45594000000E+02  0.51100000000E-03 0.  1.
         23    2    1    2    0    0  0.35527136788E-14 -0.17763568394E-14  0.00000000000E+00  0.91188000000E+02  0.91188000000E+02 0.  0.
    9900012    2    3    3    0    0 -0.17956555429E+02 -0.14925292545E+02  0.28470641777E+02  0.54367086328E+02  0.40000004903E+02 0.  0.
        -12    1    3    3    0    0  0.17956555429E+02  0.14925292545E+02 -0.28470641777E+02  0.36820913672E+02  0.00000000000E+00 0.  1.
         11    1    4    4    0    0 -0.72016845439E+01  0.14972046959E+01  0.14430131472E+01  0.74958768250E+01  0.51100000000E-03 0. -1.
        -11    1    4    4    0    0  0.84822234427E+01 -0.11267268360E+01 -0.20495795918E+01  0.87987729065E+01  0.51100000000E-03 0.  1.
         12    1    4    4    0    0 -0.19237094328E+02 -0.15295770405E+02  0.29077208221E+02  0.38072436597E+02  0.00000000000E+00 0. -1.
</event>
<event>
 8    1  0.1262344E-006  0.9118800E+02  0.7816164E-02  0.1184000E+00
        -11   -1    0    0    0    0  0.00000000000E+00  0.00000000000E+00  0.45593999997E+02  0.45594000000E+02  0.51100000000E-03 0. -1.
         11   -1    0    0    0    0 -0.00000000000E+00 -0.00000000000E+00 -0.45593999997E+02  0.45594000000E+02  0.51100000000E-03 0.  1.
         23    2    1    2    0    0 -0.17763568394E-14  0.17763568394E-14  0.00000000000E+00  0.91188000000E+02  0.91188000000E+02 0.  0.
    9900012    2    3    3    0    0 -0.13817300149E+02 -0.87500128788E+01 -0.32989368547E+02  0.54367096345E+02  0.40000027739E+02 0.  0.
         12    1    3    3    0    0  0.13817300149E+02  0.87500128788E+01  0.32989368547E+02  0.36820903655E+02  0.00000000000E+00 0. -1.
         11    1    4    4    0    0  0.55070577364E+00  0.57575841079E+01 -0.17777832736E+02  0.18695036471E+02  0.51100000000E-03 0. -1.
        -11    1    4    4    0    0  0.53901235510E+01 -0.58279437441E+01 -0.11190231404E+02  0.13720045164E+02  0.51100000000E-03 0.  1.
         12    1    4    4    0    0 -0.19758129473E+02 -0.86796532426E+01 -0.40213044081E+01  0.21952014710E+02  0.00000000000E+00 0. -1.
</event>
<event>
 8    1  0.1262344E-006  0.9118800E+02  0.7816164E-02  0.1184000E+00
        -11   -1    0    0    0    0  0.00000000000E+00  0.00000000000E+00  0.45593999997E+02  0.45594000000E+02  0.51100000000E-03 0. -1.
         11   -1    0    0    0    0 -0.00000000000E+00 -0.00000000000E+00 -0.45593999997E+02  0.45594000000E+02  0.51100000000E-03 0.  1.
         23    2    1    2    0    0  0.00000000000E+00  0.22204460493E-15 -0.35527136788E-14  0.91188000000E+02  0.91188000000E+02 0.  0.
    9900012    2    3    3    0    0 -0.27114886488E+02 -0.12350209367E+01 -0.24880489703E+02  0.54367066907E+02  0.39999960628E+02 0.  0.
         12    1    3    3    0    0  0.27114886488E+02  0.12350209367E+01  0.24880489703E+02  0.36820933093E+02  0.00000000000E+00 0. -1.
         11    1    4    4    0    0 -0.50766018444E+01 -0.26619910694E+01  0.39134313535E+01  0.69406792146E+01  0.51100000000E-03 0. -1.
        -11    1    4    4    0    0 -0.17576103800E+02 -0.10903834937E+02 -0.27267220577E+02  0.34224470184E+02  0.51100000000E-03 0.  1.
         12    1    4    4    0    0 -0.44621808432E+01  0.12330805069E+02 -0.15267004795E+01  0.13201917508E+02  0.00000000000E+00 0. -1.
</event>
<event>
 8    1  0.1262344E-006  0.9118800E+02  0.7816164E-02  0.1184000E+00
        -11   -1    0    0    0    0  0.00000000000E+00  0.00000000000E+00  0.45593999997E+02  0.45594000000E+02  0.51100000000E-03 0.  1.
         11   -1    0    0    0    0 -0.00000000000E+00 -0.00000000000E+00 -0.45593999997E+02  0.45594000000E+02  0.51100000000E-03 0. -1.
         23    2    1    2    0    0  0.35527136788E-14 -0.35527136788E-14  0.00000000000E+00  0.91188000000E+02  0.91188000000E+02 0.  0.
    9900012    2    3    3    0    0 -0.24408709446E+02  0.25739592032E+02 -0.98726040226E+01  0.54367081964E+02  0.39999994954E+02 0.  0.
        -12    1    3    3    0    0  0.24408709446E+02 -0.25739592032E+02  0.98726040226E+01  0.36820918036E+02  0.00000000000E+00 0.  1.
         11    1    4    4    0    0  0.22531339156E+01 -0.61144419661E+01 -0.58901837679E+01  0.87839215661E+01  0.51100000000E-03 0.  1.
        -11    1    4    4    0    0 -0.10700601838E+02  0.41432675227E+01 -0.70339221187E+01  0.13459034367E+02  0.51100000000E-03 0. -1.
        -12    1    4    4    0    0 -0.15961241524E+02  0.27710766475E+02  0.30515018641E+01  0.32124126031E+02  0.00000000000E+00 0.  1.
</event>
<event>
 8    1  0.1262344E-006  0.9118800E+02  0.7816164E-02  0.1184000E+00
        -11   -1    0    0    0    0  0.00000000000E+00  0.00000000000E+00  0.45593999997E+02  0.45594000000E+02  0.51100000000E-03 0.  1.
         11   -1    0    0    0    0 -0.00000000000E+00 -0.00000000000E+00 -0.45593999997E+02  0.45594000000E+02  0.51100000000E-03 0. -1.
         23    2    1    2    0    0  0.00000000000E+00 -0.35527136788E-14  0.00000000000E+00  0.91188000000E+02  0.91188000000E+02 0.  0.
    9900012    2    3    3    0    0  0.70894271278E+01 -0.30874058745E+02  0.18769973029E+02  0.54367090616E+02  0.40000014677E+02 0.  0.
         12    1    3    3    0    0 -0.70894271278E+01  0.30874058745E+02 -0.18769973029E+02  0.36820909384E+02  0.00000000000E+00 0. -1.
         11    1    4    4    0    0  0.15511406025E+01 -0.16540092074E+01  0.38566170262E+01  0.44738438478E+01  0.51100000000E-03 0. -1.
        -11    1    4    4    0    0  0.14947664352E+02 -0.24725762657E+02  0.22811191166E+02  0.36812313853E+02  0.51100000000E-03 0.  1.
        -12    1    4    4    0    0 -0.94093778269E+01 -0.44942868807E+01 -0.78978351637E+01  0.13080932915E+02  0.00000000000E+00 0.  1.
</event>
<event>
 8    1  0.1262344E-006  0.9118800E+02  0.7816164E-02  0.1184000E+00
        -11   -1    0    0    0    0  0.00000000000E+00  0.00000000000E+00  0.45593999997E+02  0.45594000000E+02  0.51100000000E-03 0. -1.
         11   -1    0    0    0    0 -0.00000000000E+00 -0.00000000000E+00 -0.45593999997E+02  0.45594000000E+02  0.51100000000E-03 0.  1.
         23    2    1    2    0    0  0.00000000000E+00  0.35527136788E-14 -0.88817841970E-15  0.91188000000E+02  0.91188000000E+02 0.  0.
    9900012    2    3    3    0    0  0.19699383131E+02 -0.30330703712E+02 -0.69110531316E+01  0.54367082863E+02  0.39999997004E+02 0.  0.
        -12    1    3    3    0    0 -0.19699383131E+02  0.30330703712E+02  0.69110531316E+01  0.36820917137E+02  0.00000000000E+00 0.  1.
         11    1    4    4    0    0  0.87992925424E+00 -0.24969703209E+02  0.69355010401E+01  0.25929934994E+02  0.51100000000E-03 0. -1.
        -11    1    4    4    0    0  0.64778675169E+01  0.51938590719E+01 -0.26637687879E+01  0.87197823392E+01  0.51100000000E-03 0.  1.
         12    1    4    4    0    0  0.12341586360E+02 -0.10554859575E+02 -0.11182785384E+02  0.19717365530E+02  0.00000000000E+00 0. -1.
</event>
<event>
 8    1  0.1262344E-006  0.9118800E+02  0.7816164E-02  0.1184000E+00
        -11   -1    0    0    0    0  0.00000000000E+00  0.00000000000E+00  0.45593999997E+02  0.45594000000E+02  0.51100000000E-03 0. -1.
         11   -1    0    0    0    0 -0.00000000000E+00 -0.00000000000E+00 -0.45593999997E+02  0.45594000000E+02  0.51100000000E-03 0.  1.
         23    2    1    2    0    0  0.35527136788E-14  0.00000000000E+00  0.00000000000E+00  0.91188000000E+02  0.91188000000E+02 0.  0.
    9900012    2    3    3    0    0  0.27149673059E+02  0.20110224898E+02  0.14637466249E+02  0.54367064232E+02  0.39999954530E+02 0.  0.
        -12    1    3    3    0    0 -0.27149673059E+02 -0.20110224898E+02 -0.14637466249E+02  0.36820935768E+02  0.00000000000E+00 0.  1.
         11    1    4    4    0    0  0.12705263668E+02  0.49271256162E+01  0.19609153967E+02  0.23879263207E+02  0.51100000000E-03 0. -1.
        -11    1    4    4    0    0  0.50961396486E+01  0.18887980281E+02 -0.73820884007E+00  0.19577318278E+02  0.51100000000E-03 0.  1.
         12    1    4    4    0    0  0.93482697416E+01 -0.37048809988E+01 -0.42334788784E+01  0.10910482748E+02  0.00000000000E+00 0. -1.
</event>
<event>
 8    1  0.1262344E-006  0.9118800E+02  0.7816164E-02  0.1184000E+00
        -11   -1    0    0    0    0  0.00000000000E+00  0.00000000000E+00  0.45593999997E+02  0.45594000000E+02  0.51100000000E-03 0.  1.
         11   -1    0    0    0    0 -0.00000000000E+00 -0.00000000000E+00 -0.45593999997E+02  0.45594000000E+02  0.51100000000E-03 0. -1.
         23    2    1    2    0    0  0.00000000000E+00  0.00000000000E+00 -0.88817841970E-15  0.91188000000E+02  0.91188000000E+02 0.  0.
    9900012    2    3    3    0    0 -0.23517996204E+02 -0.27776522833E+02  0.55810773853E+01  0.54367084871E+02  0.40000001581E+02 0.  0.
        -12    1    3    3    0    0  0.23517996204E+02  0.27776522833E+02 -0.55810773853E+01  0.36820915129E+02  0.00000000000E+00 0.  1.
         11    1    4    4    0    0 -0.75855359633E+01 -0.29408399174E+02  0.27775772176E+01  0.30497692262E+02  0.51100000000E-03 0. -1.
        -11    1    4    4    0    0 -0.13175101428E+02 -0.68044454436E+01  0.17061479339E+01  0.14926309539E+02  0.51100000000E-03 0.  1.
         12    1    4    4    0    0 -0.27573588129E+01  0.84363217845E+01  0.10973522338E+01  0.89430830702E+01  0.00000000000E+00 0. -1.
</event>
<event>
 8    1  0.1262344E-006  0.9118800E+02  0.7816164E-02  0.1184000E+00
        -11   -1    0    0    0    0  0.00000000000E+00  0.00000000000E+00  0.45593999997E+02  0.45594000000E+02  0.51100000000E-03 0.  1.
         11   -1    0    0    0    0 -0.00000000000E+00 -0.00000000000E+00 -0.45593999997E+02  0.45594000000E+02  0.51100000000E-03 0. -1.
         23    2    1    2    0    0  0.00000000000E+00 -0.17763568394E-14 -0.17763568394E-14  0.91188000000E+02  0.91188000000E+02 0.  0.
    9900012    2    3    3    0    0 -0.33739610979E+02 -0.87054703448E+01  0.11900962173E+02  0.54367089316E+02  0.40000011714E+02 0.  0.
         12    1    3    3    0    0  0.33739610979E+02  0.87054703448E+01 -0.11900962173E+02  0.36820910684E+02  0.00000000000E+00 0. -1.
         11    1    4    4    0    0 -0.98551767537E+01  0.94692700686E+01 -0.66628331355E-01  0.13667334198E+02  0.51100000000E-03 0. -1.
        -11    1    4    4    0    0 -0.78300349210E+01  0.56672768445E+01  0.58957831707E+01  0.11322002171E+02  0.51100000000E-03 0.  1.
         12    1    4    4    0    0 -0.16054399305E+02 -0.23842017258E+02  0.60718073334E+01  0.29377752948E+02  0.00000000000E+00 0. -1.
</event>
<event>
 8    1  0.1262344E-006  0.9118800E+02  0.7816164E-02  0.1184000E+00
        -11   -1    0    0    0    0  0.00000000000E+00  0.00000000000E+00  0.45593999997E+02  0.45594000000E+02  0.51100000000E-03 0. -1.
         11   -1    0    0    0    0 -0.00000000000E+00 -0.00000000000E+00 -0.45593999997E+02  0.45594000000E+02  0.51100000000E-03 0.  1.
         23    2    1    2    0    0  0.71054273576E-14 -0.88817841970E-15 -0.24980018054E-15  0.91188000000E+02  0.91188000000E+02 0.  0.
    9900012    2    3    3    0    0  0.36333623102E+02  0.59658192227E+01 -0.23697786798E+00  0.54367091195E+02  0.40000015997E+02 0.  0.
         12    1    3    3    0    0 -0.36333623102E+02 -0.59658192227E+01  0.23697786798E+00  0.36820908805E+02  0.00000000000E+00 0. -1.
         11    1    4    4    0    0  0.90464694333E+01  0.10048374630E+02 -0.32292326263E+01  0.13900949087E+02  0.51100000000E-03 0. -1.
        -11    1    4    4    0    0  0.33453147600E+02 -0.57414345600E+01  0.30661402373E+01  0.34080469060E+02  0.51100000000E-03 0.  1.
         12    1    4    4    0    0 -0.61659939314E+01  0.16588791525E+01 -0.73885478983E-01  0.63856730474E+01  0.00000000000E+00 0. -1.
</event>
<event>
 8    1  0.1262344E-006  0.9118800E+02  0.7816164E-02  0.1184000E+00
        -11   -1    0    0    0    0  0.00000000000E+00  0.00000000000E+00  0.45593999997E+02  0.45594000000E+02  0.51100000000E-03 0.  1.
         11   -1    0    0    0    0 -0.00000000000E+00 -0.00000000000E+00 -0.45593999997E+02  0.45594000000E+02  0.51100000000E-03 0. -1.
         23    2    1    2    0    0 -0.17763568394E-14  0.00000000000E+00  0.17763568394E-14  0.91188000000E+02  0.91188000000E+02 0.  0.
    9900012    2    3    3    0    0 -0.13545042370E+02  0.34144850330E+02 -0.25378968037E+01  0.54367083430E+02  0.39999998295E+02 0.  0.
         12    1    3    3    0    0  0.13545042370E+02 -0.34144850330E+02  0.25378968037E+01  0.36820916570E+02  0.00000000000E+00 0. -1.
         11    1    4    4    0    0 -0.18091333139E+02  0.28324740817E+02 -0.10103660362E+02  0.35095173886E+02  0.51100000000E-03 0. -1.
        -11    1    4    4    0    0 -0.26962680922E+01 -0.17379906039E+01  0.81793563562E+01  0.87859173469E+01  0.51100000000E-03 0.  1.
        -12    1    4    4    0    0  0.72425588613E+01  0.75581001169E+01 -0.61359279832E+00  0.10485992197E+02  0.00000000000E+00 0.  1.
</event>
<event>
 8    1  0.1262344E-006  0.9118800E+02  0.7816164E-02  0.1184000E+00
        -11   -1    0    0    0    0  0.00000000000E+00  0.00000000000E+00  0.45593999997E+02  0.45594000000E+02  0.51100000000E-03 0. -1.
         11   -1    0    0    0    0 -0.00000000000E+00 -0.00000000000E+00 -0.45593999997E+02  0.45594000000E+02  0.51100000000E-03 0.  1.
         23    2    1    2    0    0  0.00000000000E+00  0.35527136788E-14  0.00000000000E+00  0.91188000000E+02  0.91188000000E+02 0.  0.
    9900012    2    3    3    0    0 -0.10455901694E+02  0.16906525964E+02  0.30993923590E+02  0.54367084749E+02  0.40000001303E+02 0.  0.
        -12    1    3    3    0    0  0.10455901694E+02 -0.16906525964E+02 -0.30993923590E+02  0.36820915251E+02  0.00000000000E+00 0.  1.
         11    1    4    4    0    0 -0.57351700373E+01  0.16753438467E+02  0.60600554655E+01  0.18716146728E+02  0.51100000000E-03 0. -1.
        -11    1    4    4    0    0 -0.13140530749E+01  0.10371009885E+02  0.24750749567E+01  0.10742931529E+02  0.51100000000E-03 0.  1.
         12    1    4    4    0    0 -0.34066785822E+01 -0.10217922389E+02  0.22458793168E+02  0.24908006493E+02  0.00000000000E+00 0. -1.
</event>
<event>
 8    1  0.1262344E-006  0.9118800E+02  0.7816164E-02  0.1184000E+00
        -11   -1    0    0    0    0  0.00000000000E+00  0.00000000000E+00  0.45593999997E+02  0.45594000000E+02  0.51100000000E-03 0.  1.
         11   -1    0    0    0    0 -0.00000000000E+00 -0.00000000000E+00 -0.45593999997E+02  0.45594000000E+02  0.51100000000E-03 0. -1.
         23    2    1    2    0    0 -0.35527136788E-14  0.35527136788E-14  0.88817841970E-15  0.91188000000E+02  0.91188000000E+02 0.  0.
    9900012    2    3    3    0    0  0.30334452238E+02 -0.19941174512E+02 -0.61603449374E+01  0.54367091765E+02  0.40000017297E+02 0.  0.
        -12    1    3    3    0    0 -0.30334452238E+02  0.19941174512E+02  0.61603449374E+01  0.36820908235E+02  0.00000000000E+00 0.  1.
         11    1    4    4    0    0  0.89564588982E+01 -0.26094460181E+01 -0.27264701215E+01  0.97191051080E+01  0.51100000000E-03 0. -1.
        -11    1    4    4    0    0  0.10445963716E+02  0.84978253046E+01  0.64221280594E+01  0.14918945068E+02  0.51100000000E-03 0.  1.
         12    1    4    4    0    0  0.10932029624E+02 -0.25829553799E+02 -0.98560028753E+01  0.29729041589E+02  0.00000000000E+00 0. -1.
</event>
<event>
 8    1  0.1262344E-006  0.9118800E+02  0.7816164E-02  0.1184000E+00
        -11   -1    0    0    0    0  0.00000000000E+00  0.00000000000E+00  0.45593999997E+02  0.45594000000E+02  0.51100000000E-03 0.  1.
         11   -1    0    0    0    0 -0.00000000000E+00 -0.00000000000E+00 -0.45593999997E+02  0.45594000000E+02  0.51100000000E-03 0. -1.
         23    2    1    2    0    0 -0.17763568394E-14  0.35527136788E-14  0.00000000000E+00  0.91188000000E+02  0.91188000000E+02 0.  0.
    9900012    2    3    3    0    0  0.13807416212E+02  0.19820413523E+02  0.27789977897E+02  0.54367130833E+02  0.40000106360E+02 0.  0.
         12    1    3    3    0    0 -0.13807416212E+02 -0.19820413523E+02 -0.27789977897E+02  0.36820869167E+02  0.00000000000E+00 0. -1.
         11    1    4    4    0    0 -0.11031329428E+02 -0.33319240641E+01  0.11464928733E+02  0.16255354134E+02  0.51100000000E-03 0. -1.
        -11    1    4    4    0    0  0.17634190036E+02  0.19526407136E+02  0.11507737679E+02  0.28717124867E+02  0.51100000000E-03 0.  1.
         12    1    4    4    0    0  0.72045556037E+01  0.36259304519E+01  0.48173114851E+01  0.93946518314E+01  0.00000000000E+00 0. -1.
</event>
<event>
 8    1  0.1262344E-006  0.9118800E+02  0.7816164E-02  0.1184000E+00
        -11   -1    0    0    0    0  0.00000000000E+00  0.00000000000E+00  0.45593999997E+02  0.45594000000E+02  0.51100000000E-03 0. -1.
         11   -1    0    0    0    0 -0.00000000000E+00 -0.00000000000E+00 -0.45593999997E+02  0.45594000000E+02  0.51100000000E-03 0.  1.
         23    2    1    2    0    0  0.00000000000E+00 -0.44408920985E-15  0.00000000000E+00  0.91188000000E+02  0.91188000000E+02 0.  0.
    9900012    2    3    3    0    0 -0.20593088338E+02  0.27325227865E+01  0.30401292044E+02  0.54367074890E+02  0.39999978826E+02 0.  0.
        -12    1    3    3    0    0  0.20593088338E+02 -0.27325227865E+01 -0.30401292044E+02  0.36820925110E+02  0.00000000000E+00 0.  1.
         11    1    4    4    0    0  0.78332864830E+01 -0.22760717205E+01  0.26633640973E-01  0.81573028149E+01  0.51100000000E-03 0.  1.
        -11    1    4    4    0    0 -0.82394993484E+01 -0.93683913037E+00 -0.10821080009E+01  0.83628927444E+01  0.51100000000E-03 0. -1.
        -12    1    4    4    0    0 -0.20186875472E+02  0.59454336373E+01  0.31456766404E+02  0.37846879330E+02  0.00000000000E+00 0.  1.
</event>
<event>
 8    1  0.1262344E-006  0.9118800E+02  0.7816164E-02  0.1184000E+00
        -11   -1    0    0    0    0  0.00000000000E+00  0.00000000000E+00  0.45593999997E+02  0.45594000000E+02  0.51100000000E-03 0.  1.
         11   -1    0    0    0    0 -0.00000000000E+00 -0.00000000000E+00 -0.45593999997E+02  0.45594000000E+02  0.51100000000E-03 0. -1.
         23    2    1    2    0    0 -0.35527136788E-14  0.00000000000E+00  0.00000000000E+00  0.91188000000E+02  0.91188000000E+02 0.  0.
    9900012    2    3    3    0    0  0.13620385824E+02 -0.25243259479E+02 -0.23087724486E+02  0.54367080932E+02  0.39999992600E+02 0.  0.
        -12    1    3    3    0    0 -0.13620385824E+02  0.25243259479E+02  0.23087724486E+02  0.36820919068E+02  0.00000000000E+00 0.  1.
         11    1    4    4    0    0  0.22496851836E+02 -0.17782252628E+02 -0.25901212436E+02  0.38641812289E+02  0.51100000000E-03 0. -1.
        -11    1    4    4    0    0 -0.72103029377E+01 -0.30065835608E+00 -0.12520225017E+01  0.73243719530E+01  0.51100000000E-03 0.  1.
         12    1    4    4    0    0 -0.16661630745E+01 -0.71603484944E+01  0.40655104516E+01  0.84008966893E+01  0.00000000000E+00 0. -1.
</event>
<event>
 8    1  0.1262344E-006  0.9118800E+02  0.7816164E-02  0.1184000E+00
        -11   -1    0    0    0    0  0.00000000000E+00  0.00000000000E+00  0.45593999997E+02  0.45594000000E+02  0.51100000000E-03 0.  1.
         11   -1    0    0    0    0 -0.00000000000E+00 -0.00000000000E+00 -0.45593999997E+02  0.45594000000E+02  0.51100000000E-03 0. -1.
         23    2    1    2    0    0 -0.17763568394E-14 -0.44408920985E-15  0.00000000000E+00  0.91188000000E+02  0.91188000000E+02 0.  0.
    9900012    2    3    3    0    0  0.12157544753E+02 -0.25465431477E+01  0.34662528441E+02  0.54367059567E+02  0.39999943894E+02 0.  0.
         12    1    3    3    0    0 -0.12157544753E+02  0.25465431477E+01 -0.34662528441E+02  0.36820940433E+02  0.00000000000E+00 0. -1.
         11    1    4    4    0    0  0.18831920491E+01 -0.72136750419E+01  0.19207852871E+02  0.20604007670E+02  0.51100000000E-03 0. -1.
        -11    1    4    4    0    0 -0.44537317831E+01  0.42086783061E+01  0.17815535904E+02  0.18839904980E+02  0.51100000000E-03 0.  1.
         12    1    4    4    0    0  0.14728084487E+02  0.45845358819E+00 -0.23608603333E+01  0.14923146916E+02  0.00000000000E+00 0. -1.
</event>
<event>
 8    1  0.1262344E-006  0.9118800E+02  0.7816164E-02  0.1184000E+00
        -11   -1    0    0    0    0  0.00000000000E+00  0.00000000000E+00  0.45593999997E+02  0.45594000000E+02  0.51100000000E-03 0.  1.
         11   -1    0    0    0    0 -0.00000000000E+00 -0.00000000000E+00 -0.45593999997E+02  0.45594000000E+02  0.51100000000E-03 0. -1.
         23    2    1    2    0    0  0.00000000000E+00  0.00000000000E+00  0.44408920985E-15  0.91188000000E+02  0.91188000000E+02 0.  0.
    9900012    2    3    3    0    0 -0.77531615220E+01  0.35847320030E+02  0.32616532049E+01  0.54367078657E+02  0.39999987414E+02 0.  0.
        -12    1    3    3    0    0  0.77531615220E+01 -0.35847320030E+02 -0.32616532049E+01  0.36820921343E+02  0.00000000000E+00 0.  1.
         11    1    4    4    0    0 -0.10306204437E+02  0.27142606951E+02 -0.13890916692E+02  0.32185346492E+02  0.51100000000E-03 0. -1.
        -11    1    4    4    0    0  0.39621267441E+01 -0.96211747447E+00  0.69405298756E+01  0.80495387189E+01  0.51100000000E-03 0.  1.
         12    1    4    4    0    0 -0.14090838290E+01  0.96668305541E+01  0.10212040022E+02  0.14132193446E+02  0.00000000000E+00 0. -1.
</event>
<event>
 8    1  0.1262344E-006  0.9118800E+02  0.7816164E-02  0.1184000E+00
        -11   -1    0    0    0    0  0.00000000000E+00  0.00000000000E+00  0.45593999997E+02  0.45594000000E+02  0.51100000000E-03 0.  1.
         11   -1    0    0    0    0 -0.00000000000E+00 -0.00000000000E+00 -0.45593999997E+02  0.45594000000E+02  0.51100000000E-03 0. -1.
         23    2    1    2    0    0  0.00000000000E+00  0.17763568394E-14  0.00000000000E+00  0.91188000000E+02  0.91188000000E+02 0.  0.
    9900012    2    3    3    0    0  0.32431635134E+02 -0.75986181029E+01 -0.15691753249E+02  0.54367067440E+02  0.39999961844E+02 0.  0.
        -12    1    3    3    0    0 -0.32431635134E+02  0.75986181029E+01  0.15691753249E+02  0.36820932560E+02  0.00000000000E+00 0.  1.
         11    1    4    4    0    0  0.67010302499E+01 -0.80200414274E+01 -0.70296893584E+01  0.12595292916E+02  0.51100000000E-03 0. -1.
        -11    1    4    4    0    0  0.15223858159E+02 -0.55869341136E+01  0.10347085460E+02  0.19236472333E+02  0.51100000000E-03 0.  1.
        -12    1    4    4    0    0  0.10506746725E+02  0.60083574381E+01 -0.19009149350E+02  0.22535302192E+02  0.00000000000E+00 0.  1.
</event>
<event>
 8    1  0.1262344E-006  0.9118800E+02  0.7816164E-02  0.1184000E+00
        -11   -1    0    0    0    0  0.00000000000E+00  0.00000000000E+00  0.45593999997E+02  0.45594000000E+02  0.51100000000E-03 0. -1.
         11   -1    0    0    0    0 -0.00000000000E+00 -0.00000000000E+00 -0.45593999997E+02  0.45594000000E+02  0.51100000000E-03 0.  1.
         23    2    1    2    0    0 -0.26645352591E-14  0.00000000000E+00  0.00000000000E+00  0.91188000000E+02  0.91188000000E+02 0.  0.
    9900012    2    3    3    0    0 -0.43104828456E+01 -0.16773551940E+02  0.32493781234E+02  0.54367107481E+02  0.40000053124E+02 0.  0.
        -12    1    3    3    0    0  0.43104828456E+01  0.16773551940E+02 -0.32493781234E+02  0.36820892519E+02  0.00000000000E+00 0.  1.
         11    1    4    4    0    0 -0.12998412736E+02  0.41143994277E+00  0.26020496686E+02  0.29089418429E+02  0.51100000000E-03 0. -1.
        -11    1    4    4    0    0 -0.35952761940E+01 -0.52146315574E+01 -0.12691775620E+01  0.64598146363E+01  0.51100000000E-03 0.  1.
         12    1    4    4    0    0  0.12283206084E+02 -0.11970360325E+02  0.77424621097E+01  0.18817874416E+02  0.00000000000E+00 0. -1.
</event>
<event>
 8    1  0.1262344E-006  0.9118800E+02  0.7816164E-02  0.1184000E+00
        -11   -1    0    0    0    0  0.00000000000E+00  0.00000000000E+00  0.45593999997E+02  0.45594000000E+02  0.51100000000E-03 0.  1.
         11   -1    0    0    0    0 -0.00000000000E+00 -0.00000000000E+00 -0.45593999997E+02  0.45594000000E+02  0.51100000000E-03 0. -1.
         23    2    1    2    0    0  0.00000000000E+00  0.17763568394E-14  0.00000000000E+00  0.91188000000E+02  0.91188000000E+02 0.  0.
    9900012    2    3    3    0    0 -0.30337003453E+01 -0.15004684791E+02 -0.33487849109E+02  0.54367082827E+02  0.39999996921E+02 0.  0.
        -12    1    3    3    0    0  0.30337003453E+01  0.15004684791E+02  0.33487849109E+02  0.36820917173E+02  0.00000000000E+00 0.  1.
         11    1    4    4    0    0 -0.35394180154E+00 -0.10671917601E+02 -0.33227252095E+02  0.34900793431E+02  0.51100000000E-03 0. -1.
        -11    1    4    4    0    0  0.68648495764E+01 -0.28265656505E+01 -0.47479749445E+01  0.88124286901E+01  0.51100000000E-03 0.  1.
        -12    1    4    4    0    0 -0.95446081201E+01 -0.15062015402E+01  0.44873779305E+01  0.10653860706E+02  0.00000000000E+00 0.  1.
</event>
<event>
 8    1  0.1262344E-006  0.9118800E+02  0.7816164E-02  0.1184000E+00
        -11   -1    0    0    0    0  0.00000000000E+00  0.00000000000E+00  0.45593999997E+02  0.45594000000E+02  0.51100000000E-03 0.  1.
         11   -1    0    0    0    0 -0.00000000000E+00 -0.00000000000E+00 -0.45593999997E+02  0.45594000000E+02  0.51100000000E-03 0. -1.
         23    2    1    2    0    0  0.00000000000E+00 -0.35527136788E-14  0.00000000000E+00  0.91188000000E+02  0.91188000000E+02 0.  0.
    9900012    2    3    3    0    0 -0.21067177860E+01 -0.31144944202E+02 -0.19527744814E+02  0.54367100680E+02  0.40000037621E+02 0.  0.
         12    1    3    3    0    0  0.21067177860E+01  0.31144944202E+02  0.19527744814E+02  0.36820899320E+02  0.00000000000E+00 0. -1.
         11    1    4    4    0    0  0.27997348944E+01 -0.33699444006E+01  0.34115729108E+01  0.55528254725E+01  0.51100000000E-03 0. -1.
        -11    1    4    4    0    0 -0.92315410084E+01 -0.32423901143E+02 -0.11300497501E+02  0.35556039694E+02  0.51100000000E-03 0.  1.
         12    1    4    4    0    0  0.43250883280E+01  0.46489013413E+01 -0.11638820224E+02  0.13258235513E+02  0.00000000000E+00 0. -1.
</event>
<event>
 8    1  0.1262344E-006  0.9118800E+02  0.7816164E-02  0.1184000E+00
        -11   -1    0    0    0    0  0.00000000000E+00  0.00000000000E+00  0.45593999997E+02  0.45594000000E+02  0.51100000000E-03 0.  1.
         11   -1    0    0    0    0 -0.00000000000E+00 -0.00000000000E+00 -0.45593999997E+02  0.45594000000E+02  0.51100000000E-03 0. -1.
         23    2    1    2    0    0  0.00000000000E+00  0.00000000000E+00  0.00000000000E+00  0.91188000000E+02  0.91188000000E+02 0.  0.
    9900012    2    3    3    0    0 -0.30413352809E+02 -0.20219551428E+02  0.46880221717E+01  0.54367084193E+02  0.40000000034E+02 0.  0.
        -12    1    3    3    0    0  0.30413352809E+02  0.20219551428E+02 -0.46880221717E+01  0.36820915807E+02  0.00000000000E+00 0.  1.
         11    1    4    4    0    0 -0.77186147312E+01  0.49990069764E+01  0.61012877063E+01  0.11035977349E+02  0.51100000000E-03 0. -1.
        -11    1    4    4    0    0  0.24887984902E+01 -0.14655465915E+02 -0.52258665361E+01  0.15757108886E+02  0.51100000000E-03 0.  1.
         12    1    4    4    0    0 -0.25183536568E+02 -0.10563092489E+02  0.38126010015E+01  0.27573997958E+02  0.00000000000E+00 0. -1.
</event>
<event>
 8    1  0.1262344E-006  0.9118800E+02  0.7816164E-02  0.1184000E+00
        -11   -1    0    0    0    0  0.00000000000E+00  0.00000000000E+00  0.45593999997E+02  0.45594000000E+02  0.51100000000E-03 0. -1.
         11   -1    0    0    0    0 -0.00000000000E+00 -0.00000000000E+00 -0.45593999997E+02  0.45594000000E+02  0.51100000000E-03 0.  1.
         23    2    1    2    0    0  0.00000000000E+00  0.00000000000E+00  0.00000000000E+00  0.91188000000E+02  0.91188000000E+02 0.  0.
    9900012    2    3    3    0    0 -0.23001593645E+02 -0.11190274959E+02  0.26485552892E+02  0.54367081002E+02  0.39999992760E+02 0.  0.
        -12    1    3    3    0    0  0.23001593645E+02  0.11190274959E+02 -0.26485552892E+02  0.36820918998E+02  0.00000000000E+00 0.  1.
         11    1    4    4    0    0 -0.38923560198E+01 -0.54316122887E+00 -0.60359439425E+01  0.72026438926E+01  0.51100000000E-03 0.  1.
        -11    1    4    4    0    0  0.34891234711E+01  0.18334964466E+01  0.16083773644E+02  0.16559694040E+02  0.51100000000E-03 0. -1.
        -12    1    4    4    0    0 -0.22598361097E+02 -0.12480610176E+02  0.16437723191E+02  0.30604743069E+02  0.00000000000E+00 0.  1.
</event>
<event>
 8    1  0.1262344E-006  0.9118800E+02  0.7816164E-02  0.1184000E+00
        -11   -1    0    0    0    0  0.00000000000E+00  0.00000000000E+00  0.45593999997E+02  0.45594000000E+02  0.51100000000E-03 0. -1.
         11   -1    0    0    0    0 -0.00000000000E+00 -0.00000000000E+00 -0.45593999997E+02  0.45594000000E+02  0.51100000000E-03 0.  1.
         23    2    1    2    0    0  0.00000000000E+00 -0.35527136788E-14  0.00000000000E+00  0.91188000000E+02  0.91188000000E+02 0.  0.
    9900012    2    3    3    0    0 -0.17948620362E+02 -0.24117701902E+02 -0.21259408329E+02  0.54367096149E+02  0.40000027291E+02 0.  0.
         12    1    3    3    0    0  0.17948620362E+02  0.24117701902E+02  0.21259408329E+02  0.36820903851E+02  0.00000000000E+00 0. -1.
         11    1    4    4    0    0  0.28179673872E+01 -0.57088340413E+00 -0.16582609988E+02  0.16830026807E+02  0.51100000000E-03 0. -1.
        -11    1    4    4    0    0  0.27525257074E+01 -0.87649279548E+01 -0.31666488807E+01  0.97174083591E+01  0.51100000000E-03 0.  1.
         12    1    4    4    0    0 -0.23519113457E+02 -0.14781890543E+02 -0.15101494602E+01  0.27819660983E+02  0.00000000000E+00 0. -1.
</event>
<event>
 8    1  0.1262344E-006  0.9118800E+02  0.7816164E-02  0.1184000E+00
        -11   -1    0    0    0    0  0.00000000000E+00  0.00000000000E+00  0.45593999997E+02  0.45594000000E+02  0.51100000000E-03 0. -1.
         11   -1    0    0    0    0 -0.00000000000E+00 -0.00000000000E+00 -0.45593999997E+02  0.45594000000E+02  0.51100000000E-03 0.  1.
         23    2    1    2    0    0  0.00000000000E+00  0.35527136788E-14  0.00000000000E+00  0.91188000000E+02  0.91188000000E+02 0.  0.
    9900012    2    3    3    0    0 -0.68618117105E+01 -0.17695205331E+02 -0.31552728990E+02  0.54367089387E+02  0.40000011875E+02 0.  0.
         12    1    3    3    0    0  0.68618117105E+01  0.17695205331E+02  0.31552728990E+02  0.36820910613E+02  0.00000000000E+00 0. -1.
         11    1    4    4    0    0  0.87321084109E+01 -0.15141904444E+01  0.54243816986E+01  0.10390688479E+02  0.51100000000E-03 0. -1.
        -11    1    4    4    0    0 -0.33298660298E+01 -0.89432772368E+01 -0.13956398173E+02  0.16907136532E+02  0.51100000000E-03 0.  1.
         12    1    4    4    0    0 -0.12264054092E+02 -0.72377376502E+01 -0.23020712516E+02  0.27069264375E+02  0.00000000000E+00 0. -1.
</event>
<event>
 8    1  0.1262344E-006  0.9118800E+02  0.7816164E-02  0.1184000E+00
        -11   -1    0    0    0    0  0.00000000000E+00  0.00000000000E+00  0.45593999997E+02  0.45594000000E+02  0.51100000000E-03 0.  1.
         11   -1    0    0    0    0 -0.00000000000E+00 -0.00000000000E+00 -0.45593999997E+02  0.45594000000E+02  0.51100000000E-03 0. -1.
         23    2    1    2    0    0  0.35527136788E-14  0.55511151231E-15 -0.35527136788E-14  0.91188000000E+02  0.91188000000E+02 0.  0.
    9900012    2    3    3    0    0  0.28884933062E+02 -0.51392345679E+00 -0.22829286770E+02  0.54367084615E+02  0.40000000997E+02 0.  0.
        -12    1    3    3    0    0 -0.28884933062E+02  0.51392345679E+00  0.22829286770E+02  0.36820915385E+02  0.00000000000E+00 0.  1.
         11    1    4    4    0    0  0.23722967142E+02  0.24222789842E+01 -0.18492072832E+02  0.30176205252E+02  0.51100000000E-03 0. -1.
        -11    1    4    4    0    0  0.30804558002E+01  0.57379988450E+00  0.93747538926E+01  0.98845568971E+01  0.51100000000E-03 0.  1.
         12    1    4    4    0    0  0.20815101197E+01 -0.35100023255E+01 -0.13711967831E+02  0.14306322466E+02  0.00000000000E+00 0. -1.
</event>
<event>
 8    1  0.1262344E-006  0.9118800E+02  0.7816164E-02  0.1184000E+00
        -11   -1    0    0    0    0  0.00000000000E+00  0.00000000000E+00  0.45593999997E+02  0.45594000000E+02  0.51100000000E-03 0. -1.
         11   -1    0    0    0    0 -0.00000000000E+00 -0.00000000000E+00 -0.45593999997E+02  0.45594000000E+02  0.51100000000E-03 0.  1.
         23    2    1    2    0    0  0.00000000000E+00  0.00000000000E+00  0.00000000000E+00  0.91188000000E+02  0.91188000000E+02 0.  0.
    9900012    2    3    3    0    0  0.16286219907E+02 -0.26643657169E+02 -0.19510376793E+02  0.54367078925E+02  0.39999988025E+02 0.  0.
        -12    1    3    3    0    0 -0.16286219907E+02  0.26643657169E+02  0.19510376793E+02  0.36820921075E+02  0.00000000000E+00 0.  1.
         11    1    4    4    0    0 -0.26302294503E+00 -0.51711814455E+01 -0.24285983392E+02  0.24831820074E+02  0.51100000000E-03 0. -1.
        -11    1    4    4    0    0  0.73712474550E+01 -0.33927142293E+01  0.44544659835E+01  0.92567848816E+01  0.51100000000E-03 0.  1.
         12    1    4    4    0    0  0.91779953971E+01 -0.18079761495E+02  0.32114061594E+00  0.20278473969E+02  0.00000000000E+00 0. -1.
</event>
<event>
 8    1  0.1262344E-006  0.9118800E+02  0.7816164E-02  0.1184000E+00
        -11   -1    0    0    0    0  0.00000000000E+00  0.00000000000E+00  0.45593999997E+02  0.45594000000E+02  0.51100000000E-03 0.  1.
         11   -1    0    0    0    0 -0.00000000000E+00 -0.00000000000E+00 -0.45593999997E+02  0.45594000000E+02  0.51100000000E-03 0. -1.
         23    2    1    2    0    0  0.00000000000E+00  0.35527136788E-14  0.17763568394E-14  0.91188000000E+02  0.91188000000E+02 0.  0.
    9900012    2    3    3    0    0  0.17167422062E+02 -0.31749505347E+02  0.72819709833E+01  0.54367101431E+02  0.40000039333E+02 0.  0.
         12    1    3    3    0    0 -0.17167422062E+02  0.31749505347E+02 -0.72819709833E+01  0.36820898569E+02  0.00000000000E+00 0. -1.
         11    1    4    4    0    0  0.24154774872E+00 -0.55245556389E+01 -0.44030902374E+01  0.70686819296E+01  0.51100000000E-03 0. -1.
        -11    1    4    4    0    0  0.95016473991E+01  0.42905271405E+01 -0.51903650674E+01  0.11646021477E+02  0.51100000000E-03 0.  1.
        -12    1    4    4    0    0  0.74242269141E+01 -0.30515476848E+02  0.16875426288E+02  0.35652398025E+02  0.00000000000E+00 0.  1.
</event>
<event>
 8    1  0.1262344E-006  0.9118800E+02  0.7816164E-02  0.1184000E+00
        -11   -1    0    0    0    0  0.00000000000E+00  0.00000000000E+00  0.45593999997E+02  0.45594000000E+02  0.51100000000E-03 0.  1.
         11   -1    0    0    0    0 -0.00000000000E+00 -0.00000000000E+00 -0.45593999997E+02  0.45594000000E+02  0.51100000000E-03 0. -1.
         23    2    1    2    0    0 -0.35527136788E-14  0.17763568394E-14 -0.35527136788E-14  0.91188000000E+02  0.91188000000E+02 0.  0.
    9900012    2    3    3    0    0  0.17312529832E+02 -0.79885554853E+01  0.31499835476E+02  0.54367077375E+02  0.39999984491E+02 0.  0.
         12    1    3    3    0    0 -0.17312529832E+02  0.79885554853E+01 -0.31499835476E+02  0.36820922625E+02  0.00000000000E+00 0. -1.
         11    1    4    4    0    0  0.78465305500E+01 -0.17555665762E+01 -0.61014272292E+01  0.10093436985E+02  0.51100000000E-03 0. -1.
        -11    1    4    4    0    0  0.91402590889E+01 -0.13161145605E+02  0.29800808742E+02  0.33835606863E+02  0.51100000000E-03 0.  1.
        -12    1    4    4    0    0  0.32574019352E+00  0.69281566955E+01  0.78004539637E+01  0.10438033527E+02  0.00000000000E+00 0.  1.
</event>
<event>
 8    1  0.1262344E-006  0.9118800E+02  0.7816164E-02  0.1184000E+00
        -11   -1    0    0    0    0  0.00000000000E+00  0.00000000000E+00  0.45593999997E+02  0.45594000000E+02  0.51100000000E-03 0.  1.
         11   -1    0    0    0    0 -0.00000000000E+00 -0.00000000000E+00 -0.45593999997E+02  0.45594000000E+02  0.51100000000E-03 0. -1.
         23    2    1    2    0    0 -0.17763568394E-14 -0.35527136788E-14  0.00000000000E+00  0.91188000000E+02  0.91188000000E+02 0.  0.
    9900012    2    3    3    0    0  0.12323203086E+02  0.82285504649E+01 -0.33707721294E+02  0.54367070464E+02  0.39999968737E+02 0.  0.
        -12    1    3    3    0    0 -0.12323203086E+02 -0.82285504649E+01  0.33707721294E+02  0.36820929536E+02  0.00000000000E+00 0.  1.
         11    1    4    4    0    0 -0.56517936479E+00 -0.93811897607E+01 -0.23543819931E+02  0.25350297952E+02  0.51100000000E-03 0. -1.
        -11    1    4    4    0    0 -0.38960190197E+01  0.36855308583E+01 -0.17424394289E+01  0.56389890347E+01  0.51100000000E-03 0.  1.
        -12    1    4    4    0    0  0.16784401470E+02  0.13924209367E+02 -0.84214619341E+01  0.23377783478E+02  0.00000000000E+00 0.  1.
</event>
<event>
 8    1  0.1262344E-006  0.9118800E+02  0.7816164E-02  0.1184000E+00
        -11   -1    0    0    0    0  0.00000000000E+00  0.00000000000E+00  0.45593999997E+02  0.45594000000E+02  0.51100000000E-03 0.  1.
         11   -1    0    0    0    0 -0.00000000000E+00 -0.00000000000E+00 -0.45593999997E+02  0.45594000000E+02  0.51100000000E-03 0. -1.
         23    2    1    2    0    0 -0.35527136788E-14  0.00000000000E+00  0.00000000000E+00  0.91188000000E+02  0.91188000000E+02 0.  0.
    9900012    2    3    3    0    0  0.26059861126E+02  0.24672855333E+02  0.82410441210E+01  0.54367068991E+02  0.39999965378E+02 0.  0.
         12    1    3    3    0    0 -0.26059861126E+02 -0.24672855333E+02 -0.82410441210E+01  0.36820931009E+02  0.00000000000E+00 0. -1.
         11    1    4    4    0    0  0.33314401183E+02  0.72700947440E+01  0.44056516256E+01  0.34381875608E+02  0.51100000000E-03 0. -1.
        -11    1    4    4    0    0 -0.26456869730E+01  0.43050682317E+01  0.34057288051E+01  0.60936246187E+01  0.51100000000E-03 0.  1.
         12    1    4    4    0    0 -0.46088530845E+01  0.13097692358E+02  0.42966369034E+00  0.13891568764E+02  0.00000000000E+00 0. -1.
</event>
<event>
 8    1  0.1262344E-006  0.9118800E+02  0.7816164E-02  0.1184000E+00
        -11   -1    0    0    0    0  0.00000000000E+00  0.00000000000E+00  0.45593999997E+02  0.45594000000E+02  0.51100000000E-03 0.  1.
         11   -1    0    0    0    0 -0.00000000000E+00 -0.00000000000E+00 -0.45593999997E+02  0.45594000000E+02  0.51100000000E-03 0. -1.
         23    2    1    2    0    0 -0.17763568394E-14  0.00000000000E+00  0.00000000000E+00  0.91188000000E+02  0.91188000000E+02 0.  0.
    9900012    2    3    3    0    0  0.13644975846E+02  0.32992037813E+02  0.90066540468E+01  0.54367085535E+02  0.40000003095E+02 0.  0.
         12    1    3    3    0    0 -0.13644975846E+02 -0.32992037813E+02 -0.90066540468E+01  0.36820914465E+02  0.00000000000E+00 0. -1.
         11    1    4    4    0    0  0.38288279941E+01  0.99514471992E+01 -0.30530223285E+01  0.11091085193E+02  0.51100000000E-03 0. -1.
        -11    1    4    4    0    0  0.14384305420E+02  0.23675838839E+02 -0.26793447671E+01  0.27832220102E+02  0.51100000000E-03 0.  1.
         12    1    4    4    0    0 -0.45681575679E+01 -0.63524822497E+00  0.14739021142E+02  0.15443780240E+02  0.00000000000E+00 0. -1.
</event>
<event>
 8    1  0.1262344E-006  0.9118800E+02  0.7816164E-02  0.1184000E+00
        -11   -1    0    0    0    0  0.00000000000E+00  0.00000000000E+00  0.45593999997E+02  0.45594000000E+02  0.51100000000E-03 0. -1.
         11   -1    0    0    0    0 -0.00000000000E+00 -0.00000000000E+00 -0.45593999997E+02  0.45594000000E+02  0.51100000000E-03 0.  1.
         23    2    1    2    0    0  0.17763568394E-14  0.00000000000E+00  0.00000000000E+00  0.91188000000E+02  0.91188000000E+02 0.  0.
    9900012    2    3    3    0    0 -0.10253323441E+02  0.28252113524E+02 -0.21271284569E+02  0.54367080574E+02  0.39999991784E+02 0.  0.
        -12    1    3    3    0    0  0.10253323441E+02 -0.28252113524E+02  0.21271284569E+02  0.36820919426E+02  0.00000000000E+00 0.  1.
         11    1    4    4    0    0  0.12104019923E+02  0.93210193906E+01 -0.60327104460E+01  0.16425050878E+02  0.51100000000E-03 0. -1.
        -11    1    4    4    0    0 -0.25448460671E+02  0.16802600745E+02 -0.15444940798E+02  0.34183296196E+02  0.51100000000E-03 0.  1.
        -12    1    4    4    0    0  0.30911173074E+01  0.21284933889E+01  0.20636667476E+00  0.37587334994E+01  0.00000000000E+00 0.  1.
</event>
<event>
 8    1  0.1262344E-006  0.9118800E+02  0.7816164E-02  0.1184000E+00
        -11   -1    0    0    0    0  0.00000000000E+00  0.00000000000E+00  0.45593999997E+02  0.45594000000E+02  0.51100000000E-03 0.  1.
         11   -1    0    0    0    0 -0.00000000000E+00 -0.00000000000E+00 -0.45593999997E+02  0.45594000000E+02  0.51100000000E-03 0. -1.
         23    2    1    2    0    0  0.00000000000E+00 -0.17763568394E-14  0.00000000000E+00  0.91188000000E+02  0.91188000000E+02 0.  0.
    9900012    2    3    3    0    0 -0.83138273691E+01  0.14277899206E+02 -0.32905935915E+02  0.54367099010E+02  0.40000033814E+02 0.  0.
        -12    1    3    3    0    0  0.83138273691E+01 -0.14277899206E+02  0.32905935915E+02  0.36820900990E+02  0.00000000000E+00 0.  1.
         11    1    4    4    0    0 -0.10692541288E+01  0.33811363734E+01  0.96086108574E+00  0.36740497894E+01  0.51100000000E-03 0. -1.
        -11    1    4    4    0    0 -0.30285103974E+01  0.20394329593E+02 -0.68165618538E+01  0.21715572075E+02  0.51100000000E-03 0.  1.
         12    1    4    4    0    0 -0.42160628428E+01 -0.94975667604E+01 -0.27050235147E+02  0.28977477146E+02  0.00000000000E+00 0. -1.
</event>
<event>
 8    1  0.1262344E-006  0.9118800E+02  0.7816164E-02  0.1184000E+00
        -11   -1    0    0    0    0  0.00000000000E+00  0.00000000000E+00  0.45593999997E+02  0.45594000000E+02  0.51100000000E-03 0. -1.
         11   -1    0    0    0    0 -0.00000000000E+00 -0.00000000000E+00 -0.45593999997E+02  0.45594000000E+02  0.51100000000E-03 0.  1.
         23    2    1    2    0    0  0.00000000000E+00  0.00000000000E+00  0.00000000000E+00  0.91188000000E+02  0.91188000000E+02 0.  0.
    9900012    2    3    3    0    0  0.75742950545E+01 -0.16759750165E+02  0.31898594749E+02  0.54367088576E+02  0.40000010027E+02 0.  0.
        -12    1    3    3    0    0 -0.75742950545E+01  0.16759750165E+02 -0.31898594749E+02  0.36820911424E+02  0.00000000000E+00 0.  1.
         11    1    4    4    0    0  0.57934986539E+01 -0.47331403421E+01  0.11563281843E+02  0.13772317576E+02  0.51100000000E-03 0. -1.
        -11    1    4    4    0    0  0.14354612230E+02 -0.45183473240E+01  0.21115069635E+02  0.25929067102E+02  0.51100000000E-03 0.  1.
        -12    1    4    4    0    0 -0.12573815830E+02 -0.75082624987E+01 -0.77975673016E+00  0.14665703898E+02  0.00000000000E+00 0.  1.
</event>
<event>
 8    1  0.1262344E-006  0.9118800E+02  0.7816164E-02  0.1184000E+00
        -11   -1    0    0    0    0  0.00000000000E+00  0.00000000000E+00  0.45593999997E+02  0.45594000000E+02  0.51100000000E-03 0. -1.
         11   -1    0    0    0    0 -0.00000000000E+00 -0.00000000000E+00 -0.45593999997E+02  0.45594000000E+02  0.51100000000E-03 0.  1.
         23    2    1    2    0    0  0.00000000000E+00 -0.35527136788E-14 -0.35527136788E-14  0.91188000000E+02  0.91188000000E+02 0.  0.
    9900012    2    3    3    0    0 -0.43700065142E+01 -0.18472366260E+02 -0.31550819931E+02  0.54367088679E+02  0.40000010262E+02 0.  0.
         12    1    3    3    0    0  0.43700065142E+01  0.18472366260E+02  0.31550819931E+02  0.36820911321E+02  0.00000000000E+00 0. -1.
         11    1    4    4    0    0 -0.64857195261E+01 -0.18616529763E+02 -0.27628428491E+01  0.19906607925E+02  0.51100000000E-03 0.  1.
        -11    1    4    4    0    0 -0.53069740231E+00  0.93251452306E+01 -0.15436479458E+02  0.18042307824E+02  0.51100000000E-03 0. -1.
         12    1    4    4    0    0  0.26464104142E+01 -0.91809817268E+01 -0.13351497625E+02  0.16418172930E+02  0.00000000000E+00 0. -1.
</event>
<event>
 8    1  0.1262344E-006  0.9118800E+02  0.7816164E-02  0.1184000E+00
        -11   -1    0    0    0    0  0.00000000000E+00  0.00000000000E+00  0.45593999997E+02  0.45594000000E+02  0.51100000000E-03 0. -1.
         11   -1    0    0    0    0 -0.00000000000E+00 -0.00000000000E+00 -0.45593999997E+02  0.45594000000E+02  0.51100000000E-03 0.  1.
         23    2    1    2    0    0  0.71054273576E-14  0.44408920985E-15 -0.17763568394E-14  0.91188000000E+02  0.91188000000E+02 0.  0.
    9900012    2    3    3    0    0  0.34184584354E+02  0.10419740993E+01 -0.13642176587E+02  0.54367075249E+02  0.39999979646E+02 0.  0.
         12    1    3    3    0    0 -0.34184584354E+02 -0.10419740993E+01  0.13642176587E+02  0.36820924751E+02  0.00000000000E+00 0. -1.
         11    1    4    4    0    0  0.17672024483E+02  0.94215788161E+01 -0.17373459700E+02  0.26512331073E+02  0.51100000000E-03 0. -1.
        -11    1    4    4    0    0  0.13807074722E+02 -0.14005647236E+02 -0.14800936536E+01  0.19722680962E+02  0.51100000000E-03 0.  1.
         12    1    4    4    0    0  0.27054851488E+01  0.56260425188E+01  0.52113767661E+01  0.81320632137E+01  0.00000000000E+00 0. -1.
</event>
<event>
 8    1  0.1262344E-006  0.9118800E+02  0.7816164E-02  0.1184000E+00
        -11   -1    0    0    0    0  0.00000000000E+00  0.00000000000E+00  0.45593999997E+02  0.45594000000E+02  0.51100000000E-03 0.  1.
         11   -1    0    0    0    0 -0.00000000000E+00 -0.00000000000E+00 -0.45593999997E+02  0.45594000000E+02  0.51100000000E-03 0. -1.
         23    2    1    2    0    0 -0.35527136788E-14  0.00000000000E+00  0.00000000000E+00  0.91188000000E+02  0.91188000000E+02 0.  0.
    9900012    2    3    3    0    0  0.28792577000E+02 -0.74962862701E+01 -0.21692677696E+02  0.54367094745E+02  0.40000024091E+02 0.  0.
        -12    1    3    3    0    0 -0.28792577000E+02  0.74962862701E+01  0.21692677696E+02  0.36820905255E+02  0.00000000000E+00 0.  1.
         11    1    4    4    0    0  0.10706526181E+02 -0.15095837379E+01  0.32288581069E+01  0.11284239933E+02  0.51100000000E-03 0. -1.
        -11    1    4    4    0    0  0.87622974432E+01 -0.22534651639E+01  0.58096651784E+01  0.10752124045E+02  0.51100000000E-03 0.  1.
         12    1    4    4    0    0  0.93237533763E+01 -0.37332373684E+01 -0.30731200981E+02  0.32330730768E+02  0.00000000000E+00 0. -1.
</event>
<event>
 8    1  0.1262344E-006  0.9118800E+02  0.7816164E-02  0.1184000E+00
        -11   -1    0    0    0    0  0.00000000000E+00  0.00000000000E+00  0.45593999997E+02  0.45594000000E+02  0.51100000000E-03 0.  1.
         11   -1    0    0    0    0 -0.00000000000E+00 -0.00000000000E+00 -0.45593999997E+02  0.45594000000E+02  0.51100000000E-03 0. -1.
         23    2    1    2    0    0  0.00000000000E+00  0.35527136788E-14 -0.17763568394E-14  0.91188000000E+02  0.91188000000E+02 0.  0.
    9900012    2    3    3    0    0 -0.14552927416E+02 -0.30747374188E+02  0.14092414336E+02  0.54367016068E+02  0.39999844731E+02 0.  0.
         12    1    3    3    0    0  0.14552927416E+02  0.30747374188E+02 -0.14092414336E+02  0.36820983932E+02  0.00000000000E+00 0. -1.
         11    1    4    4    0    0  0.31732297199E+01  0.63568102203E+01 -0.89637059265E+00  0.71611384244E+01  0.51100000000E-03 0. -1.
        -11    1    4    4    0    0  0.80271649313E+00 -0.20890769900E+01 -0.29626981901E+01  0.37129741805E+01  0.51100000000E-03 0.  1.
        -12    1    4    4    0    0 -0.18528873629E+02 -0.35015107419E+02  0.17951483119E+02  0.43492903464E+02  0.00000000000E+00 0.  1.
</event>
<event>
 8    1  0.1262344E-006  0.9118800E+02  0.7816164E-02  0.1184000E+00
        -11   -1    0    0    0    0  0.00000000000E+00  0.00000000000E+00  0.45593999997E+02  0.45594000000E+02  0.51100000000E-03 0.  1.
         11   -1    0    0    0    0 -0.00000000000E+00 -0.00000000000E+00 -0.45593999997E+02  0.45594000000E+02  0.51100000000E-03 0. -1.
         23    2    1    2    0    0  0.88817841970E-15  0.88817841970E-15 -0.71054273576E-14  0.91188000000E+02  0.91188000000E+02 0.  0.
    9900012    2    3    3    0    0  0.20356610685E+01  0.54330538077E+01  0.36360954208E+02  0.54367068716E+02  0.39999964753E+02 0.  0.
         12    1    3    3    0    0 -0.20356610685E+01 -0.54330538077E+01 -0.36360954208E+02  0.36820931284E+02  0.00000000000E+00 0. -1.
         11    1    4    4    0    0  0.85690928467E+01 -0.65946700164E+01  0.55817560763E+01  0.12168608219E+02  0.51100000000E-03 0. -1.
        -11    1    4    4    0    0 -0.96633282113E+01 -0.39285583060E+01  0.20387411297E+02  0.22901092161E+02  0.51100000000E-03 0.  1.
         12    1    4    4    0    0  0.31298964332E+01  0.15956282130E+02  0.10391786835E+02  0.19297368336E+02  0.00000000000E+00 0. -1.
</event>
<event>
 8    1  0.1262344E-006  0.9118800E+02  0.7816164E-02  0.1184000E+00
        -11   -1    0    0    0    0  0.00000000000E+00  0.00000000000E+00  0.45593999997E+02  0.45594000000E+02  0.51100000000E-03 0.  1.
         11   -1    0    0    0    0 -0.00000000000E+00 -0.00000000000E+00 -0.45593999997E+02  0.45594000000E+02  0.51100000000E-03 0. -1.
         23    2    1    2    0    0  0.00000000000E+00  0.00000000000E+00  0.17763568394E-14  0.91188000000E+02  0.91188000000E+02 0.  0.
    9900012    2    3    3    0    0 -0.31913956561E+02  0.16095568005E+02  0.88437993541E+01  0.54367072258E+02  0.39999972825E+02 0.  0.
        -12    1    3    3    0    0  0.31913956561E+02 -0.16095568005E+02 -0.88437993541E+01  0.36820927742E+02  0.00000000000E+00 0.  1.
         11    1    4    4    0    0 -0.60061336390E+01 -0.83665811791E+01 -0.35009558042E+01  0.10877959998E+02  0.51100000000E-03 0. -1.
        -11    1    4    4    0    0 -0.64499564004E+01  0.32722890515E+01  0.12817040041E+02  0.14716872252E+02  0.51100000000E-03 0.  1.
        -12    1    4    4    0    0 -0.19457866522E+02  0.21189860133E+02 -0.47228488301E+00  0.28772240007E+02  0.00000000000E+00 0.  1.
</event>
<event>
 8    1  0.1262344E-006  0.9118800E+02  0.7816164E-02  0.1184000E+00
        -11   -1    0    0    0    0  0.00000000000E+00  0.00000000000E+00  0.45593999997E+02  0.45594000000E+02  0.51100000000E-03 0.  1.
         11   -1    0    0    0    0 -0.00000000000E+00 -0.00000000000E+00 -0.45593999997E+02  0.45594000000E+02  0.51100000000E-03 0. -1.
         23    2    1    2    0    0 -0.17763568394E-14  0.00000000000E+00  0.00000000000E+00  0.91188000000E+02  0.91188000000E+02 0.  0.
    9900012    2    3    3    0    0 -0.13990004363E+02 -0.28141829305E+01  0.33943162918E+02  0.54367107065E+02  0.40000052175E+02 0.  0.
         12    1    3    3    0    0  0.13990004363E+02  0.28141829305E+01 -0.33943162918E+02  0.36820892935E+02  0.00000000000E+00 0. -1.
         11    1    4    4    0    0  0.34775839926E+01  0.20980900271E+01 -0.33932710433E+01  0.52924343002E+01  0.51100000000E-03 0. -1.
        -11    1    4    4    0    0 -0.20476460026E+02 -0.39137021416E+01  0.39886600016E+02  0.45006036714E+02  0.51100000000E-03 0.  1.
        -12    1    4    4    0    0  0.30088716705E+01 -0.99857081603E+00 -0.25501660540E+01  0.40686360499E+01  0.00000000000E+00 0.  1.
</event>
<event>
 8    1  0.1262344E-006  0.9118800E+02  0.7816164E-02  0.1184000E+00
        -11   -1    0    0    0    0  0.00000000000E+00  0.00000000000E+00  0.45593999997E+02  0.45594000000E+02  0.51100000000E-03 0. -1.
         11   -1    0    0    0    0 -0.00000000000E+00 -0.00000000000E+00 -0.45593999997E+02  0.45594000000E+02  0.51100000000E-03 0.  1.
         23    2    1    2    0    0  0.00000000000E+00  0.00000000000E+00  0.35527136788E-14  0.91188000000E+02  0.91188000000E+02 0.  0.
    9900012    2    3    3    0    0 -0.54002616361E+01 -0.18289262798E+02 -0.31497976469E+02  0.54367048341E+02  0.39999918303E+02 0.  0.
         12    1    3    3    0    0  0.54002616361E+01  0.18289262798E+02  0.31497976469E+02  0.36820951659E+02  0.00000000000E+00 0. -1.
         11    1    4    4    0    0  0.55723865617E+01 -0.11613285423E+02  0.29049507615E+01  0.13204492777E+02  0.51100000000E-03 0. -1.
        -11    1    4    4    0    0 -0.15325603359E+02 -0.61875471340E+01 -0.19163546667E+02  0.25306152986E+02  0.51100000000E-03 0.  1.
         12    1    4    4    0    0  0.43529551609E+01 -0.48843024024E+00 -0.15239380564E+02  0.15856402578E+02  0.00000000000E+00 0. -1.
</event>
<event>
 8    1  0.1262344E-006  0.9118800E+02  0.7816164E-02  0.1184000E+00
        -11   -1    0    0    0    0  0.00000000000E+00  0.00000000000E+00  0.45593999997E+02  0.45594000000E+02  0.51100000000E-03 0.  1.
         11   -1    0    0    0    0 -0.00000000000E+00 -0.00000000000E+00 -0.45593999997E+02  0.45594000000E+02  0.51100000000E-03 0. -1.
         23    2    1    2    0    0  0.00000000000E+00  0.35527136788E-14  0.66613381478E-15  0.91188000000E+02  0.91188000000E+02 0.  0.
    9900012    2    3    3    0    0  0.32947838823E+02  0.16373667070E+02 -0.14603347264E+01  0.54366951211E+02  0.39999696874E+02 0.  0.
         12    1    3    3    0    0 -0.32947838823E+02 -0.16373667070E+02  0.14603347264E+01  0.36821048789E+02  0.00000000000E+00 0. -1.
         11    1    4    4    0    0  0.59775252958E+01 -0.51138305233E+01  0.90257676867E+00  0.79181258115E+01  0.51100000000E-03 0. -1.
        -11    1    4    4    0    0 -0.26400251727E+01  0.11678908119E+02 -0.84666526821E+01  0.14664611678E+02  0.51100000000E-03 0.  1.
        -12    1    4    4    0    0  0.29610338700E+02  0.98085894740E+01  0.61037411870E+01  0.31784213721E+02  0.00000000000E+00 0.  1.
</event>
<event>
 8    1  0.1262344E-006  0.9118800E+02  0.7816164E-02  0.1184000E+00
        -11   -1    0    0    0    0  0.00000000000E+00  0.00000000000E+00  0.45593999997E+02  0.45594000000E+02  0.51100000000E-03 0. -1.
         11   -1    0    0    0    0 -0.00000000000E+00 -0.00000000000E+00 -0.45593999997E+02  0.45594000000E+02  0.51100000000E-03 0.  1.
         23    2    1    2    0    0  0.00000000000E+00 -0.35527136788E-14 -0.44408920985E-15  0.91188000000E+02  0.91188000000E+02 0.  0.
    9900012    2    3    3    0    0  0.31974547052E+02  0.17973352286E+02 -0.32198404516E+01  0.54367076273E+02  0.39999981979E+02 0.  0.
        -12    1    3    3    0    0 -0.31974547052E+02 -0.17973352286E+02  0.32198404516E+01  0.36820923727E+02  0.00000000000E+00 0.  1.
         11    1    4    4    0    0  0.63421886551E+01  0.33450921754E+01  0.12673905285E+01  0.72814337607E+01  0.51100000000E-03 0. -1.
        -11    1    4    4    0    0  0.30737940634E+02  0.12229083087E+02 -0.14083282019E+02  0.35954280694E+02  0.51100000000E-03 0.  1.
        -12    1    4    4    0    0 -0.51055822367E+01  0.23991770237E+01  0.95960510391E+01  0.11131361818E+02  0.00000000000E+00 0.  1.
</event>
<event>
 8    1  0.1262344E-006  0.9118800E+02  0.7816164E-02  0.1184000E+00
        -11   -1    0    0    0    0  0.00000000000E+00  0.00000000000E+00  0.45593999997E+02  0.45594000000E+02  0.51100000000E-03 0.  1.
         11   -1    0    0    0    0 -0.00000000000E+00 -0.00000000000E+00 -0.45593999997E+02  0.45594000000E+02  0.51100000000E-03 0. -1.
         23    2    1    2    0    0  0.00000000000E+00  0.00000000000E+00  0.00000000000E+00  0.91188000000E+02  0.91188000000E+02 0.  0.
    9900012    2    3    3    0    0  0.20830961579E+02 -0.23499530208E+02 -0.19225557953E+02  0.54367096169E+02  0.40000027336E+02 0.  0.
        -12    1    3    3    0    0 -0.20830961579E+02  0.23499530208E+02  0.19225557953E+02  0.36820903831E+02  0.00000000000E+00 0.  1.
         11    1    4    4    0    0  0.16714362685E+02 -0.32260005353E+01 -0.69010461291E+01  0.18368490340E+02  0.51100000000E-03 0. -1.
        -11    1    4    4    0    0  0.39258080563E+01 -0.26477673267E+02 -0.12996109070E+02  0.29755302077E+02  0.51100000000E-03 0.  1.
        -12    1    4    4    0    0  0.19079083779E+00  0.62041435936E+01  0.67159724584E+00  0.62433037516E+01  0.00000000000E+00 0.  1.
</event>
<event>
 8    1  0.1262344E-006  0.9118800E+02  0.7816164E-02  0.1184000E+00
        -11   -1    0    0    0    0  0.00000000000E+00  0.00000000000E+00  0.45593999997E+02  0.45594000000E+02  0.51100000000E-03 0.  1.
         11   -1    0    0    0    0 -0.00000000000E+00 -0.00000000000E+00 -0.45593999997E+02  0.45594000000E+02  0.51100000000E-03 0. -1.
         23    2    1    2    0    0  0.00000000000E+00  0.00000000000E+00  0.00000000000E+00  0.91188000000E+02  0.91188000000E+02 0.  0.
    9900012    2    3    3    0    0  0.41244057804E+01  0.47281975418E+01 -0.36282403426E+02  0.54367090541E+02  0.40000014506E+02 0.  0.
        -12    1    3    3    0    0 -0.41244057804E+01 -0.47281975418E+01  0.36282403426E+02  0.36820909459E+02  0.00000000000E+00 0.  1.
         11    1    4    4    0    0 -0.60285289709E+01  0.11621111501E+02 -0.31948724537E+01  0.13475926845E+02  0.51100000000E-03 0. -1.
        -11    1    4    4    0    0  0.99375682192E+01 -0.77039222265E+01 -0.62520581814E+01  0.14042574961E+02  0.51100000000E-03 0.  1.
         12    1    4    4    0    0  0.21536653204E+00  0.81100826760E+00 -0.26835472791E+02  0.26848588735E+02  0.00000000000E+00 0. -1.
</event>
<event>
 8    1  0.1262344E-006  0.9118800E+02  0.7816164E-02  0.1184000E+00
        -11   -1    0    0    0    0  0.00000000000E+00  0.00000000000E+00  0.45593999997E+02  0.45594000000E+02  0.51100000000E-03 0.  1.
         11   -1    0    0    0    0 -0.00000000000E+00 -0.00000000000E+00 -0.45593999997E+02  0.45594000000E+02  0.51100000000E-03 0. -1.
         23    2    1    2    0    0  0.35527136788E-14  0.35527136788E-14 -0.44408920985E-15  0.91188000000E+02  0.91188000000E+02 0.  0.
    9900012    2    3    3    0    0 -0.24978877969E+02  0.26992884629E+02  0.17939079887E+01  0.54367105510E+02  0.40000048630E+02 0.  0.
         12    1    3    3    0    0  0.24978877969E+02 -0.26992884629E+02 -0.17939079887E+01  0.36820894490E+02  0.00000000000E+00 0. -1.
         11    1    4    4    0    0  0.18036252725E+01  0.22529324183E+02  0.83700700991E+01  0.24101485141E+02  0.51100000000E-03 0. -1.
        -11    1    4    4    0    0 -0.13543639636E+02  0.30051516395E+01  0.25694703762E+01  0.14108979029E+02  0.51100000000E-03 0.  1.
         12    1    4    4    0    0 -0.13238863605E+02  0.14584088071E+01 -0.91456324866E+01  0.16156641340E+02  0.00000000000E+00 0. -1.
</event>
<event>
 8    1  0.1262344E-006  0.9118800E+02  0.7816164E-02  0.1184000E+00
        -11   -1    0    0    0    0  0.00000000000E+00  0.00000000000E+00  0.45593999997E+02  0.45594000000E+02  0.51100000000E-03 0.  1.
         11   -1    0    0    0    0 -0.00000000000E+00 -0.00000000000E+00 -0.45593999997E+02  0.45594000000E+02  0.51100000000E-03 0. -1.
         23    2    1    2    0    0  0.00000000000E+00 -0.35527136788E-14 -0.35527136788E-14  0.91188000000E+02  0.91188000000E+02 0.  0.
    9900012    2    3    3    0    0  0.17151262794E+02  0.23758992498E+02 -0.22296105102E+02  0.54367192803E+02  0.40000247631E+02 0.  0.
        -12    1    3    3    0    0 -0.17151262794E+02 -0.23758992498E+02  0.22296105102E+02  0.36820807197E+02  0.00000000000E+00 0.  1.
         11    1    4    4    0    0  0.91173612558E+01  0.29595669640E+02 -0.32679023735E+01  0.31140152920E+02  0.51100000000E-03 0.  1.
        -11    1    4    4    0    0  0.77384865388E+01 -0.27751850475E+00 -0.10633677668E+02  0.13154325959E+02  0.51100000000E-03 0. -1.
         12    1    4    4    0    0  0.29541499990E+00 -0.55591586380E+01 -0.83945250602E+01  0.10072713923E+02  0.00000000000E+00 0. -1.
</event>
<event>
 8    1  0.1262344E-006  0.9118800E+02  0.7816164E-02  0.1184000E+00
        -11   -1    0    0    0    0  0.00000000000E+00  0.00000000000E+00  0.45593999997E+02  0.45594000000E+02  0.51100000000E-03 0. -1.
         11   -1    0    0    0    0 -0.00000000000E+00 -0.00000000000E+00 -0.45593999997E+02  0.45594000000E+02  0.51100000000E-03 0.  1.
         23    2    1    2    0    0 -0.35527136788E-14  0.17763568394E-14  0.35527136788E-14  0.91188000000E+02  0.91188000000E+02 0.  0.
    9900012    2    3    3    0    0 -0.16868585484E+02 -0.13567038685E+02 -0.29785339730E+02  0.54367079619E+02  0.39999989607E+02 0.  0.
         12    1    3    3    0    0  0.16868585484E+02  0.13567038685E+02  0.29785339730E+02  0.36820920381E+02  0.00000000000E+00 0. -1.
         11    1    4    4    0    0  0.33184763253E+01 -0.44662793366E+01  0.15562452664E+01  0.57777016040E+01  0.51100000000E-03 0. -1.
        -11    1    4    4    0    0 -0.94985322194E+00 -0.12295681756E+02 -0.80657352303E+00  0.12358663847E+02  0.51100000000E-03 0.  1.
        -12    1    4    4    0    0 -0.19237208587E+02  0.31949224072E+01 -0.30535011473E+02  0.36230714167E+02  0.00000000000E+00 0.  1.
</event>
<event>
 8    1  0.1262344E-006  0.9118800E+02  0.7816164E-02  0.1184000E+00
        -11   -1    0    0    0    0  0.00000000000E+00  0.00000000000E+00  0.45593999997E+02  0.45594000000E+02  0.51100000000E-03 0. -1.
         11   -1    0    0    0    0 -0.00000000000E+00 -0.00000000000E+00 -0.45593999997E+02  0.45594000000E+02  0.51100000000E-03 0.  1.
         23    2    1    2    0    0  0.00000000000E+00  0.00000000000E+00  0.35527136788E-14  0.91188000000E+02  0.91188000000E+02 0.  0.
    9900012    2    3    3    0    0 -0.12440576058E+02  0.24159019668E+02 -0.24846604967E+02  0.54367082815E+02  0.39999996893E+02 0.  0.
         12    1    3    3    0    0  0.12440576058E+02 -0.24159019668E+02  0.24846604967E+02  0.36820917185E+02  0.00000000000E+00 0. -1.
         11    1    4    4    0    0  0.27322422819E+01  0.82199744983E+01 -0.97994140845E+01  0.13079053685E+02  0.51100000000E-03 0. -1.
        -11    1    4    4    0    0  0.14361047323E+01  0.20670114896E+02 -0.50235144462E+01  0.21320219143E+02  0.51100000000E-03 0.  1.
         12    1    4    4    0    0 -0.16608923072E+02 -0.47310697270E+01 -0.10023676436E+02  0.19967809987E+02  0.00000000000E+00 0. -1.
</event>
<event>
 8    1  0.1262344E-006  0.9118800E+02  0.7816164E-02  0.1184000E+00
        -11   -1    0    0    0    0  0.00000000000E+00  0.00000000000E+00  0.45593999997E+02  0.45594000000E+02  0.51100000000E-03 0.  1.
         11   -1    0    0    0    0 -0.00000000000E+00 -0.00000000000E+00 -0.45593999997E+02  0.45594000000E+02  0.51100000000E-03 0. -1.
         23    2    1    2    0    0  0.00000000000E+00  0.00000000000E+00  0.00000000000E+00  0.91188000000E+02  0.91188000000E+02 0.  0.
    9900012    2    3    3    0    0  0.52821878949E+01 -0.67367798038E+01  0.35811926752E+02  0.54367084629E+02  0.40000001029E+02 0.  0.
         12    1    3    3    0    0 -0.52821878949E+01  0.67367798038E+01 -0.35811926752E+02  0.36820915371E+02  0.00000000000E+00 0. -1.
         11    1    4    4    0    0  0.41547628820E+01  0.24273262164E+01  0.15611699012E+02  0.16336435152E+02  0.51100000000E-03 0.  1.
        -11    1    4    4    0    0  0.10009934555E+02  0.60104276536E+01  0.58816190193E+00  0.11690593016E+02  0.51100000000E-03 0. -1.
        -12    1    4    4    0    0 -0.88825095421E+01 -0.15174533674E+02  0.19612065838E+02  0.26340056462E+02  0.00000000000E+00 0.  1.
</event>
<event>
 8    1  0.1262344E-006  0.9118800E+02  0.7816164E-02  0.1184000E+00
        -11   -1    0    0    0    0  0.00000000000E+00  0.00000000000E+00  0.45593999997E+02  0.45594000000E+02  0.51100000000E-03 0.  1.
         11   -1    0    0    0    0 -0.00000000000E+00 -0.00000000000E+00 -0.45593999997E+02  0.45594000000E+02  0.51100000000E-03 0. -1.
         23    2    1    2    0    0  0.00000000000E+00  0.22204460493E-15  0.00000000000E+00  0.91188000000E+02  0.91188000000E+02 0.  0.
    9900012    2    3    3    0    0  0.35267847890E+02 -0.10937486930E+01  0.10524281131E+02  0.54367110897E+02  0.40000060913E+02 0.  0.
         12    1    3    3    0    0 -0.35267847890E+02  0.10937486930E+01 -0.10524281131E+02  0.36820889103E+02  0.00000000000E+00 0. -1.
         11    1    4    4    0    0  0.28575445507E+00  0.53051724252E+01  0.79311025306E+01  0.95461456977E+01  0.51100000000E-03 0.  1.
        -11    1    4    4    0    0  0.21440937720E+02 -0.60539288206E+01 -0.11670064546E+02  0.25150631628E+02  0.51100000000E-03 0. -1.
         12    1    4    4    0    0  0.13541155715E+02 -0.34499229759E+00  0.14263243147E+02  0.19670333572E+02  0.00000000000E+00 0. -1.
</event>
<event>
 8    1  0.1262344E-006  0.9118800E+02  0.7816164E-02  0.1184000E+00
        -11   -1    0    0    0    0  0.00000000000E+00  0.00000000000E+00  0.45593999997E+02  0.45594000000E+02  0.51100000000E-03 0. -1.
         11   -1    0    0    0    0 -0.00000000000E+00 -0.00000000000E+00 -0.45593999997E+02  0.45594000000E+02  0.51100000000E-03 0.  1.
         23    2    1    2    0    0  0.00000000000E+00  0.00000000000E+00 -0.71054273576E-14  0.91188000000E+02  0.91188000000E+02 0.  0.
    9900012    2    3    3    0    0  0.52543494982E+01 -0.48203310798E+01 -0.36123889858E+02  0.54367092911E+02  0.40000019910E+02 0.  0.
         12    1    3    3    0    0 -0.52543494982E+01  0.48203310798E+01  0.36123889858E+02  0.36820907089E+02  0.00000000000E+00 0. -1.
         11    1    4    4    0    0  0.46979233310E+01 -0.15893791509E+02 -0.54199998988E+01  0.17437301721E+02  0.51100000000E-03 0. -1.
        -11    1    4    4    0    0  0.87638420940E+01  0.69707605496E+01 -0.14662552091E+02  0.18449576282E+02  0.51100000000E-03 0.  1.
         12    1    4    4    0    0 -0.82074159268E+01  0.41026998792E+01 -0.16041337868E+02  0.18480214909E+02  0.00000000000E+00 0. -1.
</event>
<event>
 8    1  0.1262344E-006  0.9118800E+02  0.7816164E-02  0.1184000E+00
        -11   -1    0    0    0    0  0.00000000000E+00  0.00000000000E+00  0.45593999997E+02  0.45594000000E+02  0.51100000000E-03 0.  1.
         11   -1    0    0    0    0 -0.00000000000E+00 -0.00000000000E+00 -0.45593999997E+02  0.45594000000E+02  0.51100000000E-03 0. -1.
         23    2    1    2    0    0  0.35527136788E-14  0.00000000000E+00  0.71054273576E-14  0.91188000000E+02  0.91188000000E+02 0.  0.
    9900012    2    3    3    0    0 -0.25659381398E+02  0.48921787006E+01  0.25950753228E+02  0.54367097522E+02  0.40000030422E+02 0.  0.
         12    1    3    3    0    0  0.25659381398E+02 -0.48921787006E+01 -0.25950753228E+02  0.36820902478E+02  0.00000000000E+00 0. -1.
         11    1    4    4    0    0 -0.15813553606E+02 -0.30556036721E+01  0.16597521910E+01  0.16191354763E+02  0.51100000000E-03 0. -1.
        -11    1    4    4    0    0 -0.84689458247E+01  0.24160775029E+01 -0.37421167967E+01  0.95689033992E+01  0.51100000000E-03 0.  1.
        -12    1    4    4    0    0 -0.13768819673E+01  0.55317048698E+01  0.28033117834E+02  0.28606839361E+02  0.00000000000E+00 0.  1.
</event>
<event>
 8    1  0.1262344E-006  0.9118800E+02  0.7816164E-02  0.1184000E+00
        -11   -1    0    0    0    0  0.00000000000E+00  0.00000000000E+00  0.45593999997E+02  0.45594000000E+02  0.51100000000E-03 0.  1.
         11   -1    0    0    0    0 -0.00000000000E+00 -0.00000000000E+00 -0.45593999997E+02  0.45594000000E+02  0.51100000000E-03 0. -1.
         23    2    1    2    0    0  0.35527136788E-14  0.00000000000E+00 -0.44408920985E-15  0.91188000000E+02  0.91188000000E+02 0.  0.
    9900012    2    3    3    0    0  0.24442067712E+02  0.27458525744E+02 -0.20958590583E+01  0.54367110070E+02  0.40000059026E+02 0.  0.
         12    1    3    3    0    0 -0.24442067712E+02 -0.27458525744E+02  0.20958590583E+01  0.36820889930E+02  0.00000000000E+00 0. -1.
         11    1    4    4    0    0 -0.12812804390E+01  0.12049383126E+02  0.85956843910E+01  0.14856483557E+02  0.51100000000E-03 0. -1.
        -11    1    4    4    0    0  0.83481525227E+01  0.83027172854E+01  0.70148578560E+01  0.13705290798E+02  0.51100000000E-03 0.  1.
         12    1    4    4    0    0  0.17375195629E+02  0.71064253321E+01 -0.17706401305E+02  0.25805335714E+02  0.00000000000E+00 0. -1.
</event>
<event>
 8    1  0.1262344E-006  0.9118800E+02  0.7816164E-02  0.1184000E+00
        -11   -1    0    0    0    0  0.00000000000E+00  0.00000000000E+00  0.45593999997E+02  0.45594000000E+02  0.51100000000E-03 0. -1.
         11   -1    0    0    0    0 -0.00000000000E+00 -0.00000000000E+00 -0.45593999997E+02  0.45594000000E+02  0.51100000000E-03 0.  1.
         23    2    1    2    0    0  0.00000000000E+00 -0.44408920985E-15  0.71054273576E-14  0.91188000000E+02  0.91188000000E+02 0.  0.
    9900012    2    3    3    0    0 -0.10775121557E+02 -0.22736831707E+01  0.35135536661E+02  0.54367098107E+02  0.40000031755E+02 0.  0.
        -12    1    3    3    0    0  0.10775121557E+02  0.22736831707E+01 -0.35135536661E+02  0.36820901893E+02  0.00000000000E+00 0.  1.
         11    1    4    4    0    0  0.66185991310E+01 -0.35366929062E+01  0.11396866027E+02  0.13645607597E+02  0.51100000000E-03 0. -1.
        -11    1    4    4    0    0  0.58863951049E+01  0.80511444421E+00 -0.17546972676E+01  0.61949026918E+01  0.51100000000E-03 0.  1.
        -12    1    4    4    0    0 -0.23280115793E+02  0.45789529132E+00  0.25493367901E+02  0.34526587819E+02  0.00000000000E+00 0.  1.
</event>
<event>
 8    1  0.1262344E-006  0.9118800E+02  0.7816164E-02  0.1184000E+00
        -11   -1    0    0    0    0  0.00000000000E+00  0.00000000000E+00  0.45593999997E+02  0.45594000000E+02  0.51100000000E-03 0. -1.
         11   -1    0    0    0    0 -0.00000000000E+00 -0.00000000000E+00 -0.45593999997E+02  0.45594000000E+02  0.51100000000E-03 0.  1.
         23    2    1    2    0    0  0.00000000000E+00  0.00000000000E+00 -0.71054273576E-14  0.91188000000E+02  0.91188000000E+02 0.  0.
    9900012    2    3    3    0    0 -0.13104550440E+02 -0.83849509677E+01 -0.33372790245E+02  0.54367085105E+02  0.40000002113E+02 0.  0.
         12    1    3    3    0    0  0.13104550440E+02  0.83849509677E+01  0.33372790245E+02  0.36820914895E+02  0.00000000000E+00 0. -1.
         11    1    4    4    0    0  0.54010491585E+01 -0.37693441736E+01  0.10324978927E+01  0.66667338084E+01  0.51100000000E-03 0. -1.
        -11    1    4    4    0    0 -0.95952295862E+01 -0.15857752429E+02 -0.21695864651E+02  0.28535018594E+02  0.51100000000E-03 0.  1.
        -12    1    4    4    0    0 -0.89103700122E+01  0.11242145635E+02 -0.12709423487E+02  0.19165332703E+02  0.00000000000E+00 0.  1.
</event>
<event>
 8    1  0.1262344E-006  0.9118800E+02  0.7816164E-02  0.1184000E+00
        -11   -1    0    0    0    0  0.00000000000E+00  0.00000000000E+00  0.45593999997E+02  0.45594000000E+02  0.51100000000E-03 0. -1.
         11   -1    0    0    0    0 -0.00000000000E+00 -0.00000000000E+00 -0.45593999997E+02  0.45594000000E+02  0.51100000000E-03 0.  1.
         23    2    1    2    0    0  0.00000000000E+00  0.44408920985E-15  0.17763568394E-14  0.91188000000E+02  0.91188000000E+02 0.  0.
    9900012    2    3    3    0    0  0.33330474601E+02  0.31484927152E+01 -0.15327951782E+02  0.54367086793E+02  0.40000005963E+02 0.  0.
         12    1    3    3    0    0 -0.33330474601E+02 -0.31484927152E+01  0.15327951782E+02  0.36820913207E+02  0.00000000000E+00 0. -1.
         11    1    4    4    0    0  0.13727066445E+01 -0.22776629775E+01 -0.55112808020E+01  0.61193372607E+01  0.51100000000E-03 0. -1.
        -11    1    4    4    0    0  0.15043513075E+02  0.58508184697E-01 -0.22050860298E+02  0.26693653721E+02  0.51100000000E-03 0.  1.
         12    1    4    4    0    0  0.16914254882E+02  0.53676475080E+01  0.12234189318E+02  0.21554095811E+02  0.00000000000E+00 0. -1.
</event>
<event>
 8    1  0.1262344E-006  0.9118800E+02  0.7816164E-02  0.1184000E+00
        -11   -1    0    0    0    0  0.00000000000E+00  0.00000000000E+00  0.45593999997E+02  0.45594000000E+02  0.51100000000E-03 0.  1.
         11   -1    0    0    0    0 -0.00000000000E+00 -0.00000000000E+00 -0.45593999997E+02  0.45594000000E+02  0.51100000000E-03 0. -1.
         23    2    1    2    0    0  0.00000000000E+00  0.00000000000E+00  0.00000000000E+00  0.91188000000E+02  0.91188000000E+02 0.  0.
    9900012    2    3    3    0    0  0.29525397658E+02  0.10912070708E+02  0.19103885952E+02  0.54367070456E+02  0.39999968719E+02 0.  0.
         12    1    3    3    0    0 -0.29525397658E+02 -0.10912070708E+02 -0.19103885952E+02  0.36820929544E+02  0.00000000000E+00 0. -1.
         11    1    4    4    0    0  0.19807344301E+02 -0.79232656708E+01 -0.24393847870E+01  0.21472299028E+02  0.51100000000E-03 0. -1.
        -11    1    4    4    0    0  0.31300890516E+01 -0.95951942638E+00  0.59000305577E+00  0.33265956874E+01  0.51100000000E-03 0.  1.
         12    1    4    4    0    0  0.65879643049E+01  0.19794855805E+02  0.20953267683E+02  0.29568175741E+02  0.00000000000E+00 0. -1.
</event>
<event>
 8    1  0.1262344E-006  0.9118800E+02  0.7816164E-02  0.1184000E+00
        -11   -1    0    0    0    0  0.00000000000E+00  0.00000000000E+00  0.45593999997E+02  0.45594000000E+02  0.51100000000E-03 0. -1.
         11   -1    0    0    0    0 -0.00000000000E+00 -0.00000000000E+00 -0.45593999997E+02  0.45594000000E+02  0.51100000000E-03 0.  1.
         23    2    1    2    0    0  0.35527136788E-14 -0.35527136788E-14  0.00000000000E+00  0.91188000000E+02  0.91188000000E+02 0.  0.
    9900012    2    3    3    0    0  0.26626248446E+02 -0.21093162973E+02 -0.14209212647E+02  0.54367077218E+02  0.39999984133E+02 0.  0.
        -12    1    3    3    0    0 -0.26626248446E+02  0.21093162973E+02  0.14209212647E+02  0.36820922782E+02  0.00000000000E+00 0.  1.
         11    1    4    4    0    0  0.27105906735E+02 -0.22377219402E+02 -0.21815013012E+02  0.41368646595E+02  0.51100000000E-03 0.  1.
        -11    1    4    4    0    0 -0.11954180598E+01  0.20860651168E+01 -0.21247874201E+01  0.32086467321E+01  0.51100000000E-03 0. -1.
         12    1    4    4    0    0  0.71575977006E+00 -0.80200868775E+00  0.97305877853E+01  0.97897838909E+01  0.00000000000E+00 0. -1.
</event>
<event>
 8    1  0.1262344E-006  0.9118800E+02  0.7816164E-02  0.1184000E+00
        -11   -1    0    0    0    0  0.00000000000E+00  0.00000000000E+00  0.45593999997E+02  0.45594000000E+02  0.51100000000E-03 0. -1.
         11   -1    0    0    0    0 -0.00000000000E+00 -0.00000000000E+00 -0.45593999997E+02  0.45594000000E+02  0.51100000000E-03 0.  1.
         23    2    1    2    0    0  0.00000000000E+00  0.71054273576E-14  0.00000000000E+00  0.91188000000E+02  0.91188000000E+02 0.  0.
    9900012    2    3    3    0    0  0.56290781726E+01  0.27094043217E+02 -0.24290014860E+02  0.54367102118E+02  0.40000040899E+02 0.  0.
         12    1    3    3    0    0 -0.56290781726E+01 -0.27094043217E+02  0.24290014860E+02  0.36820897882E+02  0.00000000000E+00 0. -1.
         11    1    4    4    0    0  0.36188262464E+01  0.12270770839E+02  0.73289570200E+01  0.14743857421E+02  0.51100000000E-03 0. -1.
        -11    1    4    4    0    0 -0.73210586094E+01  0.80898745948E+01 -0.22262313008E+02  0.24792227629E+02  0.51100000000E-03 0.  1.
         12    1    4    4    0    0  0.93313105356E+01  0.67333977829E+01 -0.93566588723E+01  0.14831017068E+02  0.00000000000E+00 0. -1.
</event>
<event>
 8    1  0.1262344E-006  0.9118800E+02  0.7816164E-02  0.1184000E+00
        -11   -1    0    0    0    0  0.00000000000E+00  0.00000000000E+00  0.45593999997E+02  0.45594000000E+02  0.51100000000E-03 0.  1.
         11   -1    0    0    0    0 -0.00000000000E+00 -0.00000000000E+00 -0.45593999997E+02  0.45594000000E+02  0.51100000000E-03 0. -1.
         23    2    1    2    0    0  0.00000000000E+00  0.88817841970E-15  0.00000000000E+00  0.91188000000E+02  0.91188000000E+02 0.  0.
    9900012    2    3    3    0    0  0.62361568780E+01 -0.49559361791E+01  0.35948960137E+02  0.54367099808E+02  0.40000035632E+02 0.  0.
         12    1    3    3    0    0 -0.62361568780E+01  0.49559361791E+01 -0.35948960137E+02  0.36820900192E+02  0.00000000000E+00 0. -1.
         11    1    4    4    0    0 -0.17332491787E+01  0.10522207573E+02  0.15959461924E+02  0.19194411428E+02  0.51100000000E-03 0.  1.
        -11    1    4    4    0    0  0.15907504316E+02 -0.89405888669E+01  0.15538149702E+02  0.23966996459E+02  0.51100000000E-03 0. -1.
         12    1    4    4    0    0 -0.79380982589E+01 -0.65375548855E+01  0.44513485118E+01  0.11205691921E+02  0.00000000000E+00 0. -1.
</event>
<event>
 8    1  0.1262344E-006  0.9118800E+02  0.7816164E-02  0.1184000E+00
        -11   -1    0    0    0    0  0.00000000000E+00  0.00000000000E+00  0.45593999997E+02  0.45594000000E+02  0.51100000000E-03 0. -1.
         11   -1    0    0    0    0 -0.00000000000E+00 -0.00000000000E+00 -0.45593999997E+02  0.45594000000E+02  0.51100000000E-03 0.  1.
         23    2    1    2    0    0 -0.35527136788E-14 -0.35527136788E-14  0.00000000000E+00  0.91188000000E+02  0.91188000000E+02 0.  0.
    9900012    2    3    3    0    0  0.16503071170E+02  0.31855082047E+02 -0.82874445888E+01  0.54367090885E+02  0.40000015290E+02 0.  0.
         12    1    3    3    0    0 -0.16503071170E+02 -0.31855082047E+02  0.82874445888E+01  0.36820909115E+02  0.00000000000E+00 0. -1.
         11    1    4    4    0    0  0.13422606050E+02  0.27096648704E+02 -0.10429011554E+02  0.31986856776E+02  0.51100000000E-03 0. -1.
        -11    1    4    4    0    0  0.11628514794E+02  0.67883629120E+01  0.75855152450E+00  0.13486275542E+02  0.51100000000E-03 0.  1.
         12    1    4    4    0    0 -0.85480496735E+01 -0.20299295693E+01  0.13830154404E+01  0.88939585666E+01  0.00000000000E+00 0. -1.
</event>
<event>
 8    1  0.1262344E-006  0.9118800E+02  0.7816164E-02  0.1184000E+00
        -11   -1    0    0    0    0  0.00000000000E+00  0.00000000000E+00  0.45593999997E+02  0.45594000000E+02  0.51100000000E-03 0. -1.
         11   -1    0    0    0    0 -0.00000000000E+00 -0.00000000000E+00 -0.45593999997E+02  0.45594000000E+02  0.51100000000E-03 0.  1.
         23    2    1    2    0    0  0.00000000000E+00  0.35527136788E-14  0.44408920985E-15  0.91188000000E+02  0.91188000000E+02 0.  0.
    9900012    2    3    3    0    0 -0.32542606809E+02 -0.16905951273E+02 -0.33084452312E+01  0.54367105711E+02  0.40000049090E+02 0.  0.
         12    1    3    3    0    0  0.32542606809E+02  0.16905951273E+02  0.33084452312E+01  0.36820894289E+02  0.00000000000E+00 0. -1.
         11    1    4    4    0    0 -0.32409038817E+02 -0.36825731465E+01 -0.15135832869E+01  0.32652688659E+02  0.51100000000E-03 0.  1.
        -11    1    4    4    0    0 -0.15887491316E+01  0.35564739117E+01  0.21026919207E+01  0.44265047229E+01  0.51100000000E-03 0. -1.
        -12    1    4    4    0    0  0.14551811401E+01 -0.16779852038E+02 -0.38975538650E+01  0.17287912329E+02  0.00000000000E+00 0.  1.
</event>
<event>
 8    1  0.1262344E-006  0.9118800E+02  0.7816164E-02  0.1184000E+00
        -11   -1    0    0    0    0  0.00000000000E+00  0.00000000000E+00  0.45593999997E+02  0.45594000000E+02  0.51100000000E-03 0. -1.
         11   -1    0    0    0    0 -0.00000000000E+00 -0.00000000000E+00 -0.45593999997E+02  0.45594000000E+02  0.51100000000E-03 0.  1.
         23    2    1    2    0    0 -0.35527136788E-14 -0.14210854715E-13  0.17763568394E-14  0.91188000000E+02  0.91188000000E+02 0.  0.
    9900012    2    3    3    0    0  0.10998499692E+02  0.32101931072E+02 -0.14292624327E+02  0.54367080890E+02  0.39999992504E+02 0.  0.
         12    1    3    3    0    0 -0.10998499692E+02 -0.32101931072E+02  0.14292624327E+02  0.36820919110E+02  0.00000000000E+00 0. -1.
         11    1    4    4    0    0  0.28377151189E+01 -0.31414335991E+01  0.35148176307E+01  0.55022881960E+01  0.51100000000E-03 0. -1.
        -11    1    4    4    0    0  0.12679483706E+02  0.31451809652E+02 -0.23025173152E+02  0.40989562530E+02  0.51100000000E-03 0.  1.
         12    1    4    4    0    0 -0.45186991329E+01  0.37915550186E+01  0.52177311950E+01  0.78752301639E+01  0.00000000000E+00 0. -1.
</event>
<event>
 8    1  0.1262344E-006  0.9118800E+02  0.7816164E-02  0.1184000E+00
        -11   -1    0    0    0    0  0.00000000000E+00  0.00000000000E+00  0.45593999997E+02  0.45594000000E+02  0.51100000000E-03 0.  1.
         11   -1    0    0    0    0 -0.00000000000E+00 -0.00000000000E+00 -0.45593999997E+02  0.45594000000E+02  0.51100000000E-03 0. -1.
         23    2    1    2    0    0 -0.35527136788E-14  0.00000000000E+00  0.00000000000E+00  0.91188000000E+02  0.91188000000E+02 0.  0.
    9900012    2    3    3    0    0  0.17638522335E+02  0.27037116874E+02  0.17709928053E+02  0.54367289650E+02  0.40000468413E+02 0.  0.
         12    1    3    3    0    0 -0.17638522335E+02 -0.27037116874E+02 -0.17709928053E+02  0.36820710350E+02  0.00000000000E+00 0. -1.
         11    1    4    4    0    0  0.31404367824E+01  0.39613913823E+01 -0.56862224949E+01  0.76084223983E+01  0.51100000000E-03 0. -1.
        -11    1    4    4    0    0  0.17390934226E+02  0.28912541927E+02  0.17676475873E+02  0.38089860508E+02  0.51100000000E-03 0.  1.
        -12    1    4    4    0    0 -0.28928486739E+01 -0.58368164353E+01  0.57196746746E+01  0.86690067443E+01  0.00000000000E+00 0.  1.
</event>
<event>
 8    1  0.1262344E-006  0.9118800E+02  0.7816164E-02  0.1184000E+00
        -11   -1    0    0    0    0  0.00000000000E+00  0.00000000000E+00  0.45593999997E+02  0.45594000000E+02  0.51100000000E-03 0.  1.
         11   -1    0    0    0    0 -0.00000000000E+00 -0.00000000000E+00 -0.45593999997E+02  0.45594000000E+02  0.51100000000E-03 0. -1.
         23    2    1    2    0    0  0.00000000000E+00  0.00000000000E+00 -0.35527136788E-14  0.91188000000E+02  0.91188000000E+02 0.  0.
    9900012    2    3    3    0    0  0.18767345953E+02 -0.20085413879E+02 -0.24497814026E+02  0.54367081803E+02  0.39999994586E+02 0.  0.
        -12    1    3    3    0    0 -0.18767345953E+02  0.20085413879E+02  0.24497814026E+02  0.36820918197E+02  0.00000000000E+00 0.  1.
         11    1    4    4    0    0  0.41621284821E+01  0.72375781153E+01 -0.36159897389E+01  0.90984192324E+01  0.51100000000E-03 0. -1.
        -11    1    4    4    0    0 -0.75289887225E+00 -0.20233073379E+02 -0.19798655680E+02  0.28318384171E+02  0.51100000000E-03 0.  1.
        -12    1    4    4    0    0  0.15358116344E+02 -0.70899186151E+01 -0.10831686074E+01  0.16950278400E+02  0.00000000000E+00 0.  1.
</event>
<event>
 8    1  0.1262344E-006  0.9118800E+02  0.7816164E-02  0.1184000E+00
        -11   -1    0    0    0    0  0.00000000000E+00  0.00000000000E+00  0.45593999997E+02  0.45594000000E+02  0.51100000000E-03 0. -1.
         11   -1    0    0    0    0 -0.00000000000E+00 -0.00000000000E+00 -0.45593999997E+02  0.45594000000E+02  0.51100000000E-03 0.  1.
         23    2    1    2    0    0  0.35527136788E-14  0.00000000000E+00  0.00000000000E+00  0.91188000000E+02  0.91188000000E+02 0.  0.
    9900012    2    3    3    0    0  0.31051966538E+02  0.82689780764E+01 -0.17977197886E+02  0.54367078391E+02  0.39999986809E+02 0.  0.
         12    1    3    3    0    0 -0.31051966538E+02 -0.82689780764E+01  0.17977197886E+02  0.36820921609E+02  0.00000000000E+00 0. -1.
         11    1    4    4    0    0 -0.21830123873E+00 -0.51777401331E+01 -0.65456311380E+01  0.83487685063E+01  0.51100000000E-03 0.  1.
        -11    1    4    4    0    0 -0.54762342269E+00  0.10007769274E+02  0.36145946425E+01  0.10654606138E+02  0.51100000000E-03 0. -1.
         12    1    4    4    0    0  0.31817891199E+02  0.34389489353E+01 -0.15046161390E+02  0.35363703747E+02  0.00000000000E+00 0. -1.
</event>
<event>
 8    1  0.1262344E-006  0.9118800E+02  0.7816164E-02  0.1184000E+00
        -11   -1    0    0    0    0  0.00000000000E+00  0.00000000000E+00  0.45593999997E+02  0.45594000000E+02  0.51100000000E-03 0. -1.
         11   -1    0    0    0    0 -0.00000000000E+00 -0.00000000000E+00 -0.45593999997E+02  0.45594000000E+02  0.51100000000E-03 0.  1.
         23    2    1    2    0    0  0.00000000000E+00 -0.17763568394E-14 -0.35527136788E-14  0.91188000000E+02  0.91188000000E+02 0.  0.
    9900012    2    3    3    0    0 -0.27920036298E+02  0.14976453373E+02  0.18760314922E+02  0.54367190686E+02  0.40000242807E+02 0.  0.
        -12    1    3    3    0    0  0.27920036298E+02 -0.14976453373E+02 -0.18760314922E+02  0.36820809314E+02  0.00000000000E+00 0.  1.
         11    1    4    4    0    0 -0.24311531751E+02  0.19855098365E+02  0.10030589800E+01  0.31405121155E+02  0.51100000000E-03 0. -1.
        -11    1    4    4    0    0  0.36332305459E+01 -0.56540973724E+01  0.11683765514E+02  0.13478855966E+02  0.51100000000E-03 0.  1.
         12    1    4    4    0    0 -0.72417350929E+01  0.77545238066E+00  0.60734904281E+01  0.94832135656E+01  0.00000000000E+00 0. -1.
</event>
<event>
 8    1  0.1262344E-006  0.9118800E+02  0.7816164E-02  0.1184000E+00
        -11   -1    0    0    0    0  0.00000000000E+00  0.00000000000E+00  0.45593999997E+02  0.45594000000E+02  0.51100000000E-03 0.  1.
         11   -1    0    0    0    0 -0.00000000000E+00 -0.00000000000E+00 -0.45593999997E+02  0.45594000000E+02  0.51100000000E-03 0. -1.
         23    2    1    2    0    0 -0.88817841970E-15  0.00000000000E+00  0.00000000000E+00  0.91188000000E+02  0.91188000000E+02 0.  0.
    9900012    2    3    3    0    0  0.53593356076E+01 -0.26807780563E+02  0.24665757328E+02  0.54367093419E+02  0.40000021068E+02 0.  0.
         12    1    3    3    0    0 -0.53593356076E+01  0.26807780563E+02 -0.24665757328E+02  0.36820906581E+02  0.00000000000E+00 0. -1.
         11    1    4    4    0    0  0.19313142305E+02 -0.49447398592E+01  0.15789683361E+02  0.25431516252E+02  0.51100000000E-03 0. -1.
        -11    1    4    4    0    0 -0.31568765677E+01 -0.79046699568E+01  0.73091686636E+01  0.11219341496E+02  0.51100000000E-03 0.  1.
         12    1    4    4    0    0 -0.10796930129E+02 -0.13958370747E+02  0.15669053032E+01  0.17716235671E+02  0.00000000000E+00 0. -1.
</event>
<event>
 8    1  0.1262344E-006  0.9118800E+02  0.7816164E-02  0.1184000E+00
        -11   -1    0    0    0    0  0.00000000000E+00  0.00000000000E+00  0.45593999997E+02  0.45594000000E+02  0.51100000000E-03 0.  1.
         11   -1    0    0    0    0 -0.00000000000E+00 -0.00000000000E+00 -0.45593999997E+02  0.45594000000E+02  0.51100000000E-03 0. -1.
         23    2    1    2    0    0 -0.71054273576E-14  0.00000000000E+00  0.35527136788E-14  0.91188000000E+02  0.91188000000E+02 0.  0.
    9900012    2    3    3    0    0  0.32054934025E+02 -0.52887999051E+01 -0.17328866011E+02  0.54367084788E+02  0.40000001391E+02 0.  0.
        -12    1    3    3    0    0 -0.32054934025E+02  0.52887999051E+01  0.17328866011E+02  0.36820915212E+02  0.00000000000E+00 0.  1.
         11    1    4    4    0    0  0.11462446876E+02 -0.67426012213E+01 -0.36511107675E+01  0.13790611651E+02  0.51100000000E-03 0.  1.
        -11    1    4    4    0    0  0.24669685236E+02  0.24860870803E+01 -0.20760958927E+02  0.32338698404E+02  0.51100000000E-03 0. -1.
        -12    1    4    4    0    0 -0.40771980865E+01 -0.10322857642E+01  0.70832036834E+01  0.82377747333E+01  0.00000000000E+00 0.  1.
</event>
<event>
 8    1  0.1262344E-006  0.9118800E+02  0.7816164E-02  0.1184000E+00
        -11   -1    0    0    0    0  0.00000000000E+00  0.00000000000E+00  0.45593999997E+02  0.45594000000E+02  0.51100000000E-03 0. -1.
         11   -1    0    0    0    0 -0.00000000000E+00 -0.00000000000E+00 -0.45593999997E+02  0.45594000000E+02  0.51100000000E-03 0.  1.
         23    2    1    2    0    0  0.00000000000E+00  0.88817841970E-15  0.00000000000E+00  0.91188000000E+02  0.91188000000E+02 0.  0.
    9900012    2    3    3    0    0  0.21658103523E+02  0.55475312412E+01  0.29256244373E+02  0.54367131108E+02  0.40000106988E+02 0.  0.
        -12    1    3    3    0    0 -0.21658103523E+02 -0.55475312412E+01 -0.29256244373E+02  0.36820868892E+02  0.00000000000E+00 0.  1.
         11    1    4    4    0    0  0.26752417270E+02  0.10211916856E+02  0.10678048108E+02  0.30561344658E+02  0.51100000000E-03 0. -1.
        -11    1    4    4    0    0 -0.12054140566E+01 -0.79744568915E+01  0.54892752523E+01  0.97558766299E+01  0.51100000000E-03 0.  1.
         12    1    4    4    0    0 -0.38888996904E+01  0.33100712769E+01  0.13088921013E+02  0.14049909820E+02  0.00000000000E+00 0. -1.
</event>
<event>
 8    1  0.1262344E-006  0.9118800E+02  0.7816164E-02  0.1184000E+00
        -11   -1    0    0    0    0  0.00000000000E+00  0.00000000000E+00  0.45593999997E+02  0.45594000000E+02  0.51100000000E-03 0.  1.
         11   -1    0    0    0    0 -0.00000000000E+00 -0.00000000000E+00 -0.45593999997E+02  0.45594000000E+02  0.51100000000E-03 0. -1.
         23    2    1    2    0    0  0.00000000000E+00  0.00000000000E+00 -0.88817841970E-15  0.91188000000E+02  0.91188000000E+02 0.  0.
    9900012    2    3    3    0    0  0.36499808002E+02  0.42338533213E+01 -0.23702872619E+01  0.54367085294E+02  0.40000002544E+02 0.  0.
        -12    1    3    3    0    0 -0.36499808002E+02 -0.42338533213E+01  0.23702872619E+01  0.36820914706E+02  0.00000000000E+00 0.  1.
         11    1    4    4    0    0  0.20115767493E+01  0.25969853982E+01  0.26534554610E+01  0.42227479585E+01  0.51100000000E-03 0.  1.
        -11    1    4    4    0    0  0.37351328133E+01  0.11219560904E+02 -0.12362573608E+02  0.17107395783E+02  0.51100000000E-03 0. -1.
        -12    1    4    4    0    0  0.30753098439E+02 -0.95826929805E+01  0.73388308851E+01  0.33036941552E+02  0.00000000000E+00 0.  1.
</event>
<event>
 8    1  0.1262344E-006  0.9118800E+02  0.7816164E-02  0.1184000E+00
        -11   -1    0    0    0    0  0.00000000000E+00  0.00000000000E+00  0.45593999997E+02  0.45594000000E+02  0.51100000000E-03 0. -1.
         11   -1    0    0    0    0 -0.00000000000E+00 -0.00000000000E+00 -0.45593999997E+02  0.45594000000E+02  0.51100000000E-03 0.  1.
         23    2    1    2    0    0  0.00000000000E+00 -0.17763568394E-14 -0.71054273576E-14  0.91188000000E+02  0.91188000000E+02 0.  0.
    9900012    2    3    3    0    0  0.77947682033E+01  0.40230376319E+01 -0.35760818952E+02  0.54367089972E+02  0.40000013210E+02 0.  0.
         12    1    3    3    0    0 -0.77947682033E+01 -0.40230376319E+01  0.35760818952E+02  0.36820910028E+02  0.00000000000E+00 0. -1.
         11    1    4    4    0    0 -0.67632284319E+01  0.81974573103E-01 -0.60326100121E+01  0.90631320454E+01  0.51100000000E-03 0. -1.
        -11    1    4    4    0    0  0.73962100268E+01 -0.12388319162E+02 -0.20928297002E+02  0.25419834580E+02  0.51100000000E-03 0.  1.
        -12    1    4    4    0    0  0.71617866084E+01  0.16329382221E+02 -0.87999119384E+01  0.19884123347E+02  0.00000000000E+00 0.  1.
</event>
<event>
 8    1  0.1262344E-006  0.9118800E+02  0.7816164E-02  0.1184000E+00
        -11   -1    0    0    0    0  0.00000000000E+00  0.00000000000E+00  0.45593999997E+02  0.45594000000E+02  0.51100000000E-03 0.  1.
         11   -1    0    0    0    0 -0.00000000000E+00 -0.00000000000E+00 -0.45593999997E+02  0.45594000000E+02  0.51100000000E-03 0. -1.
         23    2    1    2    0    0  0.88817841970E-15  0.00000000000E+00  0.00000000000E+00  0.91188000000E+02  0.91188000000E+02 0.  0.
    9900012    2    3    3    0    0 -0.48708438938E+01 -0.30158142193E+02  0.20555766388E+02  0.54367106576E+02  0.40000051061E+02 0.  0.
         12    1    3    3    0    0  0.48708438938E+01  0.30158142193E+02 -0.20555766388E+02  0.36820893424E+02  0.00000000000E+00 0. -1.
         11    1    4    4    0    0  0.78393931088E+00 -0.13444677418E+01  0.34509654609E+01  0.37856726252E+01  0.51100000000E-03 0. -1.
        -11    1    4    4    0    0 -0.16534015249E+02 -0.29162280916E+02  0.43355734629E+01  0.33802507096E+02  0.51100000000E-03 0.  1.
        -12    1    4    4    0    0  0.10879232045E+02  0.34860646460E+00  0.12769227464E+02  0.16778926854E+02  0.00000000000E+00 0.  1.
</event>
<event>
 8    1  0.1262344E-006  0.9118800E+02  0.7816164E-02  0.1184000E+00
        -11   -1    0    0    0    0  0.00000000000E+00  0.00000000000E+00  0.45593999997E+02  0.45594000000E+02  0.51100000000E-03 0.  1.
         11   -1    0    0    0    0 -0.00000000000E+00 -0.00000000000E+00 -0.45593999997E+02  0.45594000000E+02  0.51100000000E-03 0. -1.
         23    2    1    2    0    0  0.00000000000E+00  0.44408920985E-15  0.00000000000E+00  0.91188000000E+02  0.91188000000E+02 0.  0.
    9900012    2    3    3    0    0 -0.83959341317E+01  0.22380398210E+01 -0.35780992728E+02  0.54367082402E+02  0.39999995952E+02 0.  0.
        -12    1    3    3    0    0  0.83959341317E+01 -0.22380398210E+01  0.35780992728E+02  0.36820917598E+02  0.00000000000E+00 0.  1.
         11    1    4    4    0    0 -0.14610718669E+02 -0.73727506285E+01 -0.15767282297E+02  0.22725266624E+02  0.51100000000E-03 0. -1.
        -11    1    4    4    0    0 -0.66797388025E+01  0.66066326954E+01 -0.25655342105E+01  0.97390180248E+01  0.51100000000E-03 0.  1.
         12    1    4    4    0    0  0.12894523340E+02  0.30041577541E+01 -0.17448176220E+02  0.21902797753E+02  0.00000000000E+00 0. -1.
</event>
<event>
 8    1  0.1262344E-006  0.9118800E+02  0.7816164E-02  0.1184000E+00
        -11   -1    0    0    0    0  0.00000000000E+00  0.00000000000E+00  0.45593999997E+02  0.45594000000E+02  0.51100000000E-03 0. -1.
         11   -1    0    0    0    0 -0.00000000000E+00 -0.00000000000E+00 -0.45593999997E+02  0.45594000000E+02  0.51100000000E-03 0.  1.
         23    2    1    2    0    0 -0.35527136788E-14  0.00000000000E+00 -0.35527136788E-14  0.91188000000E+02  0.91188000000E+02 0.  0.
    9900012    2    3    3    0    0 -0.24819331596E+02  0.65067819527E+01 -0.26409149886E+02  0.54367073477E+02  0.39999975607E+02 0.  0.
         12    1    3    3    0    0  0.24819331596E+02 -0.65067819527E+01  0.26409149886E+02  0.36820926523E+02  0.00000000000E+00 0. -1.
         11    1    4    4    0    0 -0.49802420723E+01  0.92785382628E+01 -0.20384837345E+02  0.22944186131E+02  0.51100000000E-03 0. -1.
        -11    1    4    4    0    0 -0.24479031551E+02 -0.14534741886E+01 -0.85602331971E+01  0.25973316414E+02  0.51100000000E-03 0.  1.
         12    1    4    4    0    0  0.46399420273E+01 -0.13182821215E+01  0.25359206557E+01  0.54495709318E+01  0.00000000000E+00 0. -1.
</event>
<event>
 8    1  0.1262344E-006  0.9118800E+02  0.7816164E-02  0.1184000E+00
        -11   -1    0    0    0    0  0.00000000000E+00  0.00000000000E+00  0.45593999997E+02  0.45594000000E+02  0.51100000000E-03 0.  1.
         11   -1    0    0    0    0 -0.00000000000E+00 -0.00000000000E+00 -0.45593999997E+02  0.45594000000E+02  0.51100000000E-03 0. -1.
         23    2    1    2    0    0  0.35527136788E-14 -0.55511151231E-15 -0.35527136788E-14  0.91188000000E+02  0.91188000000E+02 0.  0.
    9900012    2    3    3    0    0 -0.20541192991E+02 -0.15925307462E+00 -0.30558516088E+02  0.54366961495E+02  0.39999720320E+02 0.  0.
        -12    1    3    3    0    0  0.20541192991E+02  0.15925307462E+00  0.30558516088E+02  0.36821038505E+02  0.00000000000E+00 0.  1.
         11    1    4    4    0    0  0.22610739195E+01  0.26540511455E+01 -0.46726032246E+01  0.58300655149E+01  0.51100000000E-03 0. -1.
        -11    1    4    4    0    0  0.78099121327E+01 -0.53471454691E+01 -0.21201412907E+01  0.96995717195E+01  0.51100000000E-03 0.  1.
         12    1    4    4    0    0 -0.30612179044E+02  0.25338412489E+01 -0.23765771573E+02  0.38837324261E+02  0.00000000000E+00 0. -1.
</event>
<event>
 8    1  0.1262344E-006  0.9118800E+02  0.7816164E-02  0.1184000E+00
        -11   -1    0    0    0    0  0.00000000000E+00  0.00000000000E+00  0.45593999997E+02  0.45594000000E+02  0.51100000000E-03 0. -1.
         11   -1    0    0    0    0 -0.00000000000E+00 -0.00000000000E+00 -0.45593999997E+02  0.45594000000E+02  0.51100000000E-03 0.  1.
         23    2    1    2    0    0 -0.88817841970E-15 -0.71054273576E-14 -0.88817841970E-15  0.91188000000E+02  0.91188000000E+02 0.  0.
    9900012    2    3    3    0    0  0.69789691744E+01  0.36144333461E+02  0.81292941088E+00  0.54367086020E+02  0.40000004200E+02 0.  0.
        -12    1    3    3    0    0 -0.69789691744E+01 -0.36144333461E+02 -0.81292941088E+00  0.36820913980E+02  0.00000000000E+00 0.  1.
         11    1    4    4    0    0 -0.68117224325E+00  0.39020769615E+01  0.86571630153E+01  0.95203294047E+01  0.51100000000E-03 0. -1.
        -11    1    4    4    0    0  0.18499810507E+02  0.16866990661E+02 -0.18513592612E+01  0.25103105269E+02  0.51100000000E-03 0.  1.
        -12    1    4    4    0    0 -0.10839669090E+02  0.15375265839E+02 -0.59928743432E+01  0.19743651346E+02  0.00000000000E+00 0.  1.
</event>
<event>
 8    1  0.1262344E-006  0.9118800E+02  0.7816164E-02  0.1184000E+00
        -11   -1    0    0    0    0  0.00000000000E+00  0.00000000000E+00  0.45593999997E+02  0.45594000000E+02  0.51100000000E-03 0. -1.
         11   -1    0    0    0    0 -0.00000000000E+00 -0.00000000000E+00 -0.45593999997E+02  0.45594000000E+02  0.51100000000E-03 0.  1.
         23    2    1    2    0    0  0.35527136788E-14  0.00000000000E+00  0.00000000000E+00  0.91188000000E+02  0.91188000000E+02 0.  0.
    9900012    2    3    3    0    0  0.30248279090E+02  0.10042643953E+02 -0.18438251354E+02  0.54367052178E+02  0.39999927051E+02 0.  0.
        -12    1    3    3    0    0 -0.30248279090E+02 -0.10042643953E+02  0.18438251354E+02  0.36820947822E+02  0.00000000000E+00 0.  1.
         11    1    4    4    0    0 -0.12079182650E+01  0.55625554704E+01 -0.12461064775E+02  0.13699606764E+02  0.51100000000E-03 0.  1.
        -11    1    4    4    0    0  0.71846612907E+01  0.12130108169E+02  0.14096116591E+01  0.14168482182E+02  0.51100000000E-03 0. -1.
        -12    1    4    4    0    0  0.24271536065E+02 -0.76500196870E+01 -0.73867982379E+01  0.26498963232E+02  0.00000000000E+00 0.  1.
</event>
<event>
 8    1  0.1262344E-006  0.9118800E+02  0.7816164E-02  0.1184000E+00
        -11   -1    0    0    0    0  0.00000000000E+00  0.00000000000E+00  0.45593999997E+02  0.45594000000E+02  0.51100000000E-03 0. -1.
         11   -1    0    0    0    0 -0.00000000000E+00 -0.00000000000E+00 -0.45593999997E+02  0.45594000000E+02  0.51100000000E-03 0.  1.
         23    2    1    2    0    0 -0.35527136788E-14  0.00000000000E+00  0.35527136788E-14  0.91188000000E+02  0.91188000000E+02 0.  0.
    9900012    2    3    3    0    0 -0.25963253389E+02 -0.10208413385E+02 -0.24030796143E+02  0.54367063108E+02  0.39999951968E+02 0.  0.
         12    1    3    3    0    0  0.25963253389E+02  0.10208413385E+02  0.24030796143E+02  0.36820936892E+02  0.00000000000E+00 0. -1.
         11    1    4    4    0    0 -0.42081612298E+01 -0.64866197408E+00  0.30075002645E+01  0.52129110289E+01  0.51100000000E-03 0. -1.
        -11    1    4    4    0    0 -0.14907328186E+02 -0.64408507149E+01 -0.34763838116E+02  0.38369746316E+02  0.51100000000E-03 0.  1.
        -12    1    4    4    0    0 -0.68477639730E+01 -0.31189006957E+01  0.77255417084E+01  0.10784405763E+02  0.00000000000E+00 0.  1.
</event>
<event>
 8    1  0.1262344E-006  0.9118800E+02  0.7816164E-02  0.1184000E+00
        -11   -1    0    0    0    0  0.00000000000E+00  0.00000000000E+00  0.45593999997E+02  0.45594000000E+02  0.51100000000E-03 0.  1.
         11   -1    0    0    0    0 -0.00000000000E+00 -0.00000000000E+00 -0.45593999997E+02  0.45594000000E+02  0.51100000000E-03 0. -1.
         23    2    1    2    0    0  0.00000000000E+00  0.00000000000E+00  0.00000000000E+00  0.91188000000E+02  0.91188000000E+02 0.  0.
    9900012    2    3    3    0    0 -0.25687044280E+02 -0.24625433615E+02 -0.94628672142E+01  0.54367053780E+02  0.39999930703E+02 0.  0.
        -12    1    3    3    0    0  0.25687044280E+02  0.24625433615E+02  0.94628672142E+01  0.36820946220E+02  0.00000000000E+00 0.  1.
         11    1    4    4    0    0  0.15740267096E+01  0.21059820503E+01  0.22492638101E+00  0.26388089391E+01  0.51100000000E-03 0. -1.
        -11    1    4    4    0    0 -0.13935207103E+02  0.60118574901E+01 -0.42014368612E+00  0.15182521150E+02  0.51100000000E-03 0.  1.
         12    1    4    4    0    0 -0.13325863886E+02 -0.32743273156E+02 -0.92676499091E+01  0.36545723691E+02  0.00000000000E+00 0. -1.
</event>
<event>
 8    1  0.1262344E-006  0.9118800E+02  0.7816164E-02  0.1184000E+00
        -11   -1    0    0    0    0  0.00000000000E+00  0.00000000000E+00  0.45593999997E+02  0.45594000000E+02  0.51100000000E-03 0.  1.
         11   -1    0    0    0    0 -0.00000000000E+00 -0.00000000000E+00 -0.45593999997E+02  0.45594000000E+02  0.51100000000E-03 0. -1.
         23    2    1    2    0    0  0.00000000000E+00  0.17763568394E-14  0.00000000000E+00  0.91188000000E+02  0.91188000000E+02 0.  0.
    9900012    2    3    3    0    0 -0.81938292883E+01 -0.13272825626E+02  0.33353761427E+02  0.54367080134E+02  0.39999990781E+02 0.  0.
         12    1    3    3    0    0  0.81938292883E+01  0.13272825626E+02 -0.33353761427E+02  0.36820919866E+02  0.00000000000E+00 0. -1.
         11    1    4    4    0    0 -0.58378714491E+01 -0.85591255656E-01  0.29951898493E+01  0.65619533230E+01  0.51100000000E-03 0. -1.
        -11    1    4    4    0    0 -0.29781230463E+01 -0.10295712244E+02  0.38067905095E+02  0.39547898884E+02  0.51100000000E-03 0.  1.
        -12    1    4    4    0    0  0.62216520711E+00 -0.28915221260E+01 -0.77093335179E+01  0.82572279271E+01  0.00000000000E+00 0.  1.
</event>
<event>
 8    1  0.1262344E-006  0.9118800E+02  0.7816164E-02  0.1184000E+00
        -11   -1    0    0    0    0  0.00000000000E+00  0.00000000000E+00  0.45593999997E+02  0.45594000000E+02  0.51100000000E-03 0.  1.
         11   -1    0    0    0    0 -0.00000000000E+00 -0.00000000000E+00 -0.45593999997E+02  0.45594000000E+02  0.51100000000E-03 0. -1.
         23    2    1    2    0    0  0.00000000000E+00  0.35527136788E-14 -0.35527136788E-14  0.91188000000E+02  0.91188000000E+02 0.  0.
    9900012    2    3    3    0    0  0.20735615165E+01  0.30479571571E+02 -0.20554112863E+02  0.54367143192E+02  0.40000134534E+02 0.  0.
        -12    1    3    3    0    0 -0.20735615165E+01 -0.30479571571E+02  0.20554112863E+02  0.36820856808E+02  0.00000000000E+00 0.  1.
         11    1    4    4    0    0  0.91303801444E+01 -0.61547264242E+01  0.39040578858E+00  0.11018026860E+02  0.51100000000E-03 0.  1.
        -11    1    4    4    0    0 -0.70714324567E+01  0.35546675570E+02 -0.21486749099E+02  0.42133735749E+02  0.51100000000E-03 0. -1.
         12    1    4    4    0    0  0.14613828838E-01  0.10876224254E+01  0.54223044776E+00  0.12153805835E+01  0.00000000000E+00 0. -1.
</event>
<event>
 8    1  0.1262344E-006  0.9118800E+02  0.7816164E-02  0.1184000E+00
        -11   -1    0    0    0    0  0.00000000000E+00  0.00000000000E+00  0.45593999997E+02  0.45594000000E+02  0.51100000000E-03 0. -1.
         11   -1    0    0    0    0 -0.00000000000E+00 -0.00000000000E+00 -0.45593999997E+02  0.45594000000E+02  0.51100000000E-03 0.  1.
         23    2    1    2    0    0  0.35527136788E-14  0.88817841970E-15  0.00000000000E+00  0.91188000000E+02  0.91188000000E+02 0.  0.
    9900012    2    3    3    0    0  0.20266212018E+02  0.45093720043E+01  0.30409328444E+02  0.54367067884E+02  0.39999962855E+02 0.  0.
        -12    1    3    3    0    0 -0.20266212018E+02 -0.45093720043E+01 -0.30409328444E+02  0.36820932116E+02  0.00000000000E+00 0.  1.
         11    1    4    4    0    0 -0.86690725951E+01 -0.56612632831E+00  0.55758723157E+01  0.10322968130E+02  0.51100000000E-03 0. -1.
        -11    1    4    4    0    0  0.28869758960E+01  0.39775664015E+01 -0.31184541205E+01  0.58206890198E+01  0.51100000000E-03 0.  1.
         12    1    4    4    0    0  0.26048308717E+02  0.10979319311E+01  0.27951910249E+02  0.38223410734E+02  0.00000000000E+00 0. -1.
</event>
<event>
 8    1  0.1262344E-006  0.9118800E+02  0.7816164E-02  0.1184000E+00
        -11   -1    0    0    0    0  0.00000000000E+00  0.00000000000E+00  0.45593999997E+02  0.45594000000E+02  0.51100000000E-03 0.  1.
         11   -1    0    0    0    0 -0.00000000000E+00 -0.00000000000E+00 -0.45593999997E+02  0.45594000000E+02  0.51100000000E-03 0. -1.
         23    2    1    2    0    0  0.00000000000E+00  0.00000000000E+00 -0.17763568394E-14  0.91188000000E+02  0.91188000000E+02 0.  0.
    9900012    2    3    3    0    0 -0.30568852778E+02  0.16384490428E+02  0.12364183251E+02  0.54367091345E+02  0.40000016339E+02 0.  0.
         12    1    3    3    0    0  0.30568852778E+02 -0.16384490428E+02 -0.12364183251E+02  0.36820908655E+02  0.00000000000E+00 0. -1.
         11    1    4    4    0    0  0.22994861099E+01  0.13750192157E+02  0.31859440769E+01  0.14300547565E+02  0.51100000000E-03 0. -1.
        -11    1    4    4    0    0 -0.86028888071E+01  0.49215264283E+01  0.11962659052E+02  0.15535003382E+02  0.51100000000E-03 0.  1.
        -12    1    4    4    0    0 -0.24265450081E+02 -0.22872281576E+01 -0.27844198779E+01  0.24531540399E+02  0.00000000000E+00 0.  1.
</event>
<event>
 8    1  0.1262344E-006  0.9118800E+02  0.7816164E-02  0.1184000E+00
        -11   -1    0    0    0    0  0.00000000000E+00  0.00000000000E+00  0.45593999997E+02  0.45594000000E+02  0.51100000000E-03 0. -1.
         11   -1    0    0    0    0 -0.00000000000E+00 -0.00000000000E+00 -0.45593999997E+02  0.45594000000E+02  0.51100000000E-03 0.  1.
         23    2    1    2    0    0 -0.35527136788E-14  0.00000000000E+00  0.35527136788E-14  0.91188000000E+02  0.91188000000E+02 0.  0.
    9900012    2    3    3    0    0 -0.25300680917E+02 -0.36109826977E+01  0.26506920340E+02  0.54367075557E+02  0.39999980348E+02 0.  0.
        -12    1    3    3    0    0  0.25300680917E+02  0.36109826977E+01 -0.26506920340E+02  0.36820924443E+02  0.00000000000E+00 0.  1.
         11    1    4    4    0    0  0.51847048068E+00 -0.22544905042E+01 -0.54827053795E+01  0.59507644561E+01  0.51100000000E-03 0. -1.
        -11    1    4    4    0    0 -0.12224549668E+01 -0.15985986081E+01 -0.42007331211E+01  0.46579043219E+01  0.51100000000E-03 0.  1.
         12    1    4    4    0    0 -0.24596696431E+02  0.24210641462E+00  0.36190358840E+02  0.43758406779E+02  0.00000000000E+00 0. -1.
</event>
<event>
 8    1  0.1262344E-006  0.9118800E+02  0.7816164E-02  0.1184000E+00
        -11   -1    0    0    0    0  0.00000000000E+00  0.00000000000E+00  0.45593999997E+02  0.45594000000E+02  0.51100000000E-03 0. -1.
         11   -1    0    0    0    0 -0.00000000000E+00 -0.00000000000E+00 -0.45593999997E+02  0.45594000000E+02  0.51100000000E-03 0.  1.
         23    2    1    2    0    0  0.88817841970E-15  0.35527136788E-14  0.35527136788E-14  0.91188000000E+02  0.91188000000E+02 0.  0.
    9900012    2    3    3    0    0  0.78235224598E+01 -0.25032216960E+02 -0.25844972799E+02  0.54367054757E+02  0.39999932929E+02 0.  0.
         12    1    3    3    0    0 -0.78235224598E+01  0.25032216960E+02  0.25844972799E+02  0.36820945243E+02  0.00000000000E+00 0. -1.
         11    1    4    4    0    0  0.47814300658E+01 -0.93320767813E+01 -0.26858284378E+01  0.10824204598E+02  0.51100000000E-03 0. -1.
        -11    1    4    4    0    0 -0.30154978199E+01 -0.22703476791E+02 -0.25208725038E+02  0.34059079608E+02  0.51100000000E-03 0.  1.
         12    1    4    4    0    0  0.60575902139E+01  0.70033366118E+01  0.20495806763E+01  0.94837705500E+01  0.00000000000E+00 0. -1.
</event>
<event>
 8    1  0.1262344E-006  0.9118800E+02  0.7816164E-02  0.1184000E+00
        -11   -1    0    0    0    0  0.00000000000E+00  0.00000000000E+00  0.45593999997E+02  0.45594000000E+02  0.51100000000E-03 0.  1.
         11   -1    0    0    0    0 -0.00000000000E+00 -0.00000000000E+00 -0.45593999997E+02  0.45594000000E+02  0.51100000000E-03 0. -1.
         23    2    1    2    0    0  0.00000000000E+00 -0.35527136788E-14 -0.35527136788E-14  0.91188000000E+02  0.91188000000E+02 0.  0.
    9900012    2    3    3    0    0  0.17885805039E+02  0.20388573452E+02  0.24903505011E+02  0.54367075092E+02  0.39999979286E+02 0.  0.
         12    1    3    3    0    0 -0.17885805039E+02 -0.20388573452E+02 -0.24903505011E+02  0.36820924908E+02  0.00000000000E+00 0. -1.
         11    1    4    4    0    0  0.16226181750E+02  0.45248829485E+01  0.54620154343E+01  0.17708674506E+02  0.51100000000E-03 0. -1.
        -11    1    4    4    0    0  0.51679986350E+01 -0.17255744896E+00  0.19570764418E+02  0.20242351793E+02  0.51100000000E-03 0.  1.
        -12    1    4    4    0    0 -0.35083753462E+01  0.16036247953E+02 -0.12927484170E+00  0.16416048792E+02  0.00000000000E+00 0.  1.
</event>
<event>
 8    1  0.1262344E-006  0.9118800E+02  0.7816164E-02  0.1184000E+00
        -11   -1    0    0    0    0  0.00000000000E+00  0.00000000000E+00  0.45593999997E+02  0.45594000000E+02  0.51100000000E-03 0.  1.
         11   -1    0    0    0    0 -0.00000000000E+00 -0.00000000000E+00 -0.45593999997E+02  0.45594000000E+02  0.51100000000E-03 0. -1.
         23    2    1    2    0    0  0.35527136788E-14  0.17763568394E-14 -0.35527136788E-14  0.91188000000E+02  0.91188000000E+02 0.  0.
    9900012    2    3    3    0    0 -0.27880389589E+02  0.66227331726E+01  0.23121632083E+02  0.54366992565E+02  0.39999791150E+02 0.  0.
        -12    1    3    3    0    0  0.27880389589E+02 -0.66227331726E+01 -0.23121632083E+02  0.36821007435E+02  0.00000000000E+00 0.  1.
         11    1    4    4    0    0 -0.82745094124E+01  0.15604095089E+01  0.22181689291E+02  0.23726140098E+02  0.51100000000E-03 0. -1.
        -11    1    4    4    0    0 -0.18647942748E+00 -0.63287288985E+01  0.46072735718E+01  0.78303610437E+01  0.51100000000E-03 0.  1.
         12    1    4    4    0    0 -0.19419400750E+02  0.11391052562E+02 -0.36673307797E+01  0.22810491424E+02  0.00000000000E+00 0. -1.
</event>
<event>
 8    1  0.1262344E-006  0.9118800E+02  0.7816164E-02  0.1184000E+00
        -11   -1    0    0    0    0  0.00000000000E+00  0.00000000000E+00  0.45593999997E+02  0.45594000000E+02  0.51100000000E-03 0.  1.
         11   -1    0    0    0    0 -0.00000000000E+00 -0.00000000000E+00 -0.45593999997E+02  0.45594000000E+02  0.51100000000E-03 0. -1.
         23    2    1    2    0    0 -0.17763568394E-14  0.00000000000E+00 -0.71054273576E-14  0.91188000000E+02  0.91188000000E+02 0.  0.
    9900012    2    3    3    0    0 -0.15797906908E+02 -0.84818666123E+01 -0.32159977630E+02  0.54367080877E+02  0.39999992475E+02 0.  0.
        -12    1    3    3    0    0  0.15797906908E+02  0.84818666123E+01  0.32159977630E+02  0.36820919123E+02  0.00000000000E+00 0.  1.
         11    1    4    4    0    0 -0.28229144390E+01  0.21252410800E-01  0.37776860454E+01  0.47159526836E+01  0.51100000000E-03 0. -1.
        -11    1    4    4    0    0  0.51143491377E+01  0.68106422295E+01 -0.29122859043E+01  0.90012679179E+01  0.51100000000E-03 0.  1.
         12    1    4    4    0    0 -0.18089341607E+02 -0.15313761253E+02 -0.33025377771E+02  0.40649860275E+02  0.00000000000E+00 0. -1.
</event>
<event>
 8    1  0.1262344E-006  0.9118800E+02  0.7816164E-02  0.1184000E+00
        -11   -1    0    0    0    0  0.00000000000E+00  0.00000000000E+00  0.45593999997E+02  0.45594000000E+02  0.51100000000E-03 0.  1.
         11   -1    0    0    0    0 -0.00000000000E+00 -0.00000000000E+00 -0.45593999997E+02  0.45594000000E+02  0.51100000000E-03 0. -1.
         23    2    1    2    0    0  0.00000000000E+00  0.00000000000E+00 -0.88817841970E-15  0.91188000000E+02  0.91188000000E+02 0.  0.
    9900012    2    3    3    0    0 -0.15115846481E+02 -0.33412441465E+02  0.33014182577E+01  0.54367089881E+02  0.40000013001E+02 0.  0.
        -12    1    3    3    0    0  0.15115846481E+02  0.33412441465E+02 -0.33014182577E+01  0.36820910119E+02  0.00000000000E+00 0.  1.
         11    1    4    4    0    0  0.30554423311E+01  0.37944822382E+00 -0.33886521106E+01  0.45785010845E+01  0.51100000000E-03 0. -1.
        -11    1    4    4    0    0 -0.13837216862E+02 -0.63763199711E+00  0.85885122211E+01  0.16298395243E+02  0.51100000000E-03 0.  1.
        -12    1    4    4    0    0 -0.43340719502E+01 -0.33154257692E+02 -0.18984418528E+01  0.33490193553E+02  0.00000000000E+00 0.  1.
</event>
<event>
 8    1  0.1262344E-006  0.9118800E+02  0.7816164E-02  0.1184000E+00
        -11   -1    0    0    0    0  0.00000000000E+00  0.00000000000E+00  0.45593999997E+02  0.45594000000E+02  0.51100000000E-03 0.  1.
         11   -1    0    0    0    0 -0.00000000000E+00 -0.00000000000E+00 -0.45593999997E+02  0.45594000000E+02  0.51100000000E-03 0. -1.
         23    2    1    2    0    0  0.00000000000E+00 -0.35527136788E-14  0.88817841970E-15  0.91188000000E+02  0.91188000000E+02 0.  0.
    9900012    2    3    3    0    0  0.23114121441E+02  0.28237947860E+02  0.49128518127E+01  0.54367076298E+02  0.39999982037E+02 0.  0.
        -12    1    3    3    0    0 -0.23114121441E+02 -0.28237947860E+02 -0.49128518127E+01  0.36820923702E+02  0.00000000000E+00 0.  1.
         11    1    4    4    0    0  0.21564142922E+02  0.18632606864E+02  0.12960824257E+01  0.28528339041E+02  0.51100000000E-03 0. -1.
        -11    1    4    4    0    0 -0.30391704598E+01 -0.36058725877E+01  0.95467045525E+01  0.10647931361E+02  0.51100000000E-03 0.  1.
         12    1    4    4    0    0  0.45891489788E+01  0.13211213584E+02 -0.59299351655E+01  0.15190805896E+02  0.00000000000E+00 0. -1.
</event>
<event>
 8    1  0.1262344E-006  0.9118800E+02  0.7816164E-02  0.1184000E+00
        -11   -1    0    0    0    0  0.00000000000E+00  0.00000000000E+00  0.45593999997E+02  0.45594000000E+02  0.51100000000E-03 0.  1.
         11   -1    0    0    0    0 -0.00000000000E+00 -0.00000000000E+00 -0.45593999997E+02  0.45594000000E+02  0.51100000000E-03 0. -1.
         23    2    1    2    0    0  0.00000000000E+00  0.00000000000E+00  0.17763568394E-14  0.91188000000E+02  0.91188000000E+02 0.  0.
    9900012    2    3    3    0    0  0.32912790266E+02 -0.81517527621E+01 -0.14355360319E+02  0.54367092813E+02  0.40000019686E+02 0.  0.
        -12    1    3    3    0    0 -0.32912790266E+02  0.81517527621E+01  0.14355360319E+02  0.36820907187E+02  0.00000000000E+00 0.  1.
         11    1    4    4    0    0 -0.50672875406E+01 -0.41515188820E+01 -0.63395435426E+00  0.65813684315E+01  0.51100000000E-03 0.  1.
        -11    1    4    4    0    0  0.37860628786E+02 -0.75954985922E+00 -0.46507010021E+01  0.38152760688E+02  0.51100000000E-03 0. -1.
         12    1    4    4    0    0  0.11944902054E+00 -0.32406840209E+01 -0.90707049629E+01  0.96329636933E+01  0.00000000000E+00 0. -1.
</event>
<event>
 8    1  0.1262344E-006  0.9118800E+02  0.7816164E-02  0.1184000E+00
        -11   -1    0    0    0    0  0.00000000000E+00  0.00000000000E+00  0.45593999997E+02  0.45594000000E+02  0.51100000000E-03 0. -1.
         11   -1    0    0    0    0 -0.00000000000E+00 -0.00000000000E+00 -0.45593999997E+02  0.45594000000E+02  0.51100000000E-03 0.  1.
         23    2    1    2    0    0  0.00000000000E+00 -0.17763568394E-14  0.00000000000E+00  0.91188000000E+02  0.91188000000E+02 0.  0.
    9900012    2    3    3    0    0  0.40290670600E+01 -0.15693563239E+02 -0.33064467239E+02  0.54367077926E+02  0.39999985749E+02 0.  0.
         12    1    3    3    0    0 -0.40290670600E+01  0.15693563239E+02  0.33064467239E+02  0.36820922074E+02  0.00000000000E+00 0. -1.
         11    1    4    4    0    0  0.16068537821E+01 -0.24053527034E+02 -0.48672743276E+01  0.24593586593E+02  0.51100000000E-03 0. -1.
        -11    1    4    4    0    0  0.31628115624E+01  0.47850312472E+01 -0.19866196015E+02  0.20677660540E+02  0.51100000000E-03 0.  1.
         12    1    4    4    0    0 -0.74059828445E+00  0.35749325479E+01 -0.83309968967E+01  0.90958307940E+01  0.00000000000E+00 0. -1.
</event>
<event>
 8    1  0.1262344E-006  0.9118800E+02  0.7816164E-02  0.1184000E+00
        -11   -1    0    0    0    0  0.00000000000E+00  0.00000000000E+00  0.45593999997E+02  0.45594000000E+02  0.51100000000E-03 0. -1.
         11   -1    0    0    0    0 -0.00000000000E+00 -0.00000000000E+00 -0.45593999997E+02  0.45594000000E+02  0.51100000000E-03 0.  1.
         23    2    1    2    0    0  0.00000000000E+00 -0.35527136788E-14  0.00000000000E+00  0.91188000000E+02  0.91188000000E+02 0.  0.
    9900012    2    3    3    0    0 -0.19425451236E+02 -0.25669654076E+02 -0.17874596033E+02  0.54367075522E+02  0.39999980266E+02 0.  0.
         12    1    3    3    0    0  0.19425451236E+02  0.25669654076E+02  0.17874596033E+02  0.36820924478E+02  0.00000000000E+00 0. -1.
         11    1    4    4    0    0  0.14766621081E+01 -0.34374207159E+01  0.11597091734E+01  0.39167994316E+01  0.51100000000E-03 0. -1.
        -11    1    4    4    0    0 -0.84781026073E+01 -0.28909457273E+02 -0.20239463019E+02  0.36294225535E+02  0.51100000000E-03 0.  1.
        -12    1    4    4    0    0 -0.12424010737E+02  0.66772239127E+01  0.12051578120E+01  0.14156050555E+02  0.00000000000E+00 0.  1.
</event>
<event>
 8    1  0.1262344E-006  0.9118800E+02  0.7816164E-02  0.1184000E+00
        -11   -1    0    0    0    0  0.00000000000E+00  0.00000000000E+00  0.45593999997E+02  0.45594000000E+02  0.51100000000E-03 0.  1.
         11   -1    0    0    0    0 -0.00000000000E+00 -0.00000000000E+00 -0.45593999997E+02  0.45594000000E+02  0.51100000000E-03 0. -1.
         23    2    1    2    0    0  0.00000000000E+00  0.35527136788E-14  0.22204460493E-15  0.91188000000E+02  0.91188000000E+02 0.  0.
    9900012    2    3    3    0    0 -0.29079738662E+02 -0.22509364448E+02 -0.18646878246E+01  0.54367085437E+02  0.40000002872E+02 0.  0.
        -12    1    3    3    0    0  0.29079738662E+02  0.22509364448E+02  0.18646878246E+01  0.36820914563E+02  0.00000000000E+00 0.  1.
         11    1    4    4    0    0 -0.92862145522E+01  0.23186412329E+01  0.54991136727E+01  0.11038574606E+02  0.51100000000E-03 0. -1.
        -11    1    4    4    0    0  0.19397689147E+00 -0.19521097701E+02  0.37080782879E+01  0.19871102821E+02  0.51100000000E-03 0.  1.
         12    1    4    4    0    0 -0.19987501002E+02 -0.53069079804E+01 -0.11071879785E+02  0.23457408011E+02  0.00000000000E+00 0. -1.
</event>
<event>
 8    1  0.1262344E-006  0.9118800E+02  0.7816164E-02  0.1184000E+00
        -11   -1    0    0    0    0  0.00000000000E+00  0.00000000000E+00  0.45593999997E+02  0.45594000000E+02  0.51100000000E-03 0. -1.
         11   -1    0    0    0    0 -0.00000000000E+00 -0.00000000000E+00 -0.45593999997E+02  0.45594000000E+02  0.51100000000E-03 0.  1.
         23    2    1    2    0    0  0.00000000000E+00  0.00000000000E+00  0.00000000000E+00  0.91188000000E+02  0.91188000000E+02 0.  0.
    9900012    2    3    3    0    0  0.20825269154E+02 -0.22350022614E+02  0.20556384615E+02  0.54367078031E+02  0.39999985988E+02 0.  0.
        -12    1    3    3    0    0 -0.20825269154E+02  0.22350022614E+02 -0.20556384615E+02  0.36820921969E+02  0.00000000000E+00 0.  1.
         11    1    4    4    0    0 -0.52834680045E+01 -0.10998916581E+02  0.15874923119E+02  0.20022596844E+02  0.51100000000E-03 0. -1.
        -11    1    4    4    0    0 -0.13185105583E+00  0.37460816438E+01  0.62894212693E+00  0.38008000267E+01  0.51100000000E-03 0.  1.
         12    1    4    4    0    0  0.26240588214E+02 -0.15097187677E+02  0.40525193694E+01  0.30543681160E+02  0.00000000000E+00 0. -1.
</event>
<event>
 8    1  0.1262344E-006  0.9118800E+02  0.7816164E-02  0.1184000E+00
        -11   -1    0    0    0    0  0.00000000000E+00  0.00000000000E+00  0.45593999997E+02  0.45594000000E+02  0.51100000000E-03 0.  1.
         11   -1    0    0    0    0 -0.00000000000E+00 -0.00000000000E+00 -0.45593999997E+02  0.45594000000E+02  0.51100000000E-03 0. -1.
         23    2    1    2    0    0  0.00000000000E+00  0.00000000000E+00  0.00000000000E+00  0.91188000000E+02  0.91188000000E+02 0.  0.
    9900012    2    3    3    0    0 -0.15769791671E+02 -0.28113711704E+02 -0.17796461499E+02  0.54367066321E+02  0.39999959291E+02 0.  0.
        -12    1    3    3    0    0  0.15769791671E+02  0.28113711704E+02  0.17796461499E+02  0.36820933679E+02  0.00000000000E+00 0.  1.
         11    1    4    4    0    0 -0.17386831458E+02  0.10008833723E+01  0.72717553497E+00  0.17430790578E+02  0.51100000000E-03 0.  1.
        -11    1    4    4    0    0  0.15993550080E+01 -0.13040540482E+02 -0.15938770125E+02  0.20655702018E+02  0.51100000000E-03 0. -1.
         12    1    4    4    0    0  0.17684779148E-01 -0.16074054594E+02 -0.25848669097E+01  0.16280573724E+02  0.00000000000E+00 0. -1.
</event>
<event>
 8    1  0.1262344E-006  0.9118800E+02  0.7816164E-02  0.1184000E+00
        -11   -1    0    0    0    0  0.00000000000E+00  0.00000000000E+00  0.45593999997E+02  0.45594000000E+02  0.51100000000E-03 0. -1.
         11   -1    0    0    0    0 -0.00000000000E+00 -0.00000000000E+00 -0.45593999997E+02  0.45594000000E+02  0.51100000000E-03 0.  1.
         23    2    1    2    0    0  0.00000000000E+00  0.00000000000E+00  0.00000000000E+00  0.91188000000E+02  0.91188000000E+02 0.  0.
    9900012    2    3    3    0    0 -0.31177940017E+02 -0.12834404526E+01  0.19546566506E+02  0.54367089836E+02  0.40000012900E+02 0.  0.
        -12    1    3    3    0    0  0.31177940017E+02  0.12834404526E+01 -0.19546566506E+02  0.36820910164E+02  0.00000000000E+00 0.  1.
         11    1    4    4    0    0  0.58545578346E+01 -0.14685769752E+01  0.67340150481E+01  0.90432032323E+01  0.51100000000E-03 0. -1.
        -11    1    4    4    0    0 -0.40790933646E+01  0.25254956251E+01 -0.57030429611E+01  0.74526391370E+01  0.51100000000E-03 0.  1.
         12    1    4    4    0    0 -0.32953404487E+02 -0.23403591024E+01  0.18515594419E+02  0.37871247467E+02  0.00000000000E+00 0. -1.
</event>
<event>
 8    1  0.1262344E-006  0.9118800E+02  0.7816164E-02  0.1184000E+00
        -11   -1    0    0    0    0  0.00000000000E+00  0.00000000000E+00  0.45593999997E+02  0.45594000000E+02  0.51100000000E-03 0. -1.
         11   -1    0    0    0    0 -0.00000000000E+00 -0.00000000000E+00 -0.45593999997E+02  0.45594000000E+02  0.51100000000E-03 0.  1.
         23    2    1    2    0    0  0.17763568394E-14  0.00000000000E+00  0.00000000000E+00  0.91188000000E+02  0.91188000000E+02 0.  0.
    9900012    2    3    3    0    0  0.83889995173E+01  0.54032670649E+01  0.35443059046E+02  0.54367067877E+02  0.39999962838E+02 0.  0.
        -12    1    3    3    0    0 -0.83889995173E+01 -0.54032670649E+01 -0.35443059046E+02  0.36820932123E+02  0.00000000000E+00 0.  1.
         11    1    4    4    0    0  0.11402657703E+02  0.16182457543E+01  0.23089767724E+02  0.25802649008E+02  0.51100000000E-03 0. -1.
        -11    1    4    4    0    0 -0.13506385875E+02 -0.20415456888E+01  0.77849202534E+01  0.15722447386E+02  0.51100000000E-03 0.  1.
        -12    1    4    4    0    0  0.10492727689E+02  0.58265669994E+01  0.45683710693E+01  0.12841971483E+02  0.00000000000E+00 0.  1.
</event>
<event>
 8    1  0.1262344E-006  0.9118800E+02  0.7816164E-02  0.1184000E+00
        -11   -1    0    0    0    0  0.00000000000E+00  0.00000000000E+00  0.45593999997E+02  0.45594000000E+02  0.51100000000E-03 0. -1.
         11   -1    0    0    0    0 -0.00000000000E+00 -0.00000000000E+00 -0.45593999997E+02  0.45594000000E+02  0.51100000000E-03 0.  1.
         23    2    1    2    0    0  0.00000000000E+00  0.00000000000E+00  0.00000000000E+00  0.91188000000E+02  0.91188000000E+02 0.  0.
    9900012    2    3    3    0    0 -0.21462668598E+02 -0.24229738513E+02 -0.17551501636E+02  0.54367060558E+02  0.39999946153E+02 0.  0.
         12    1    3    3    0    0  0.21462668598E+02  0.24229738513E+02  0.17551501636E+02  0.36820939442E+02  0.00000000000E+00 0. -1.
         11    1    4    4    0    0 -0.17214337263E+02 -0.17329955470E+02 -0.62953499243E+01  0.25224832902E+02  0.51100000000E-03 0. -1.
        -11    1    4    4    0    0  0.14402452735E+01 -0.86134636741E+01  0.61951959395E+01  0.10707311329E+02  0.51100000000E-03 0.  1.
        -12    1    4    4    0    0 -0.56885766082E+01  0.17136806306E+01 -0.17451347651E+02  0.18434916327E+02  0.00000000000E+00 0.  1.
</event>
<event>
 8    1  0.1262344E-006  0.9118800E+02  0.7816164E-02  0.1184000E+00
        -11   -1    0    0    0    0  0.00000000000E+00  0.00000000000E+00  0.45593999997E+02  0.45594000000E+02  0.51100000000E-03 0. -1.
         11   -1    0    0    0    0 -0.00000000000E+00 -0.00000000000E+00 -0.45593999997E+02  0.45594000000E+02  0.51100000000E-03 0.  1.
         23    2    1    2    0    0 -0.35527136788E-14  0.00000000000E+00  0.35527136788E-14  0.91188000000E+02  0.91188000000E+02 0.  0.
    9900012    2    3    3    0    0 -0.26560873341E+02 -0.83126736713E+01  0.24108063918E+02  0.54367091781E+02  0.40000017334E+02 0.  0.
        -12    1    3    3    0    0  0.26560873341E+02  0.83126736713E+01 -0.24108063918E+02  0.36820908219E+02  0.00000000000E+00 0.  1.
         11    1    4    4    0    0 -0.66379805544E+00  0.20954685414E+01  0.97642266283E+01  0.10008583225E+02  0.51100000000E-03 0. -1.
        -11    1    4    4    0    0 -0.17185694846E+02 -0.20692165757E+02  0.15123414017E+02  0.30858248215E+02  0.51100000000E-03 0.  1.
         12    1    4    4    0    0 -0.87113804389E+01  0.10284023545E+02 -0.77957672794E+00  0.13500260342E+02  0.00000000000E+00 0. -1.
</event>
<event>
 8    1  0.1262344E-006  0.9118800E+02  0.7816164E-02  0.1184000E+00
        -11   -1    0    0    0    0  0.00000000000E+00  0.00000000000E+00  0.45593999997E+02  0.45594000000E+02  0.51100000000E-03 0. -1.
         11   -1    0    0    0    0 -0.00000000000E+00 -0.00000000000E+00 -0.45593999997E+02  0.45594000000E+02  0.51100000000E-03 0.  1.
         23    2    1    2    0    0  0.00000000000E+00  0.44408920985E-15  0.00000000000E+00  0.91188000000E+02  0.91188000000E+02 0.  0.
    9900012    2    3    3    0    0  0.15893404505E+02 -0.23169397243E+01 -0.33133158666E+02  0.54367153736E+02  0.40000158571E+02 0.  0.
         12    1    3    3    0    0 -0.15893404505E+02  0.23169397243E+01  0.33133158666E+02  0.36820846264E+02  0.00000000000E+00 0. -1.
         11    1    4    4    0    0 -0.77068106834E+01  0.10391829048E+02 -0.19093426189E+02  0.23063910462E+02  0.51100000000E-03 0. -1.
        -11    1    4    4    0    0  0.46886230544E+01 -0.44498548268E+01 -0.69293433089E+01  0.94762963799E+01  0.51100000000E-03 0.  1.
         12    1    4    4    0    0  0.18911592134E+02 -0.82589139459E+01 -0.71103891676E+01  0.21826946894E+02  0.00000000000E+00 0. -1.
</event>
<event>
 8    1  0.1262344E-006  0.9118800E+02  0.7816164E-02  0.1184000E+00
        -11   -1    0    0    0    0  0.00000000000E+00  0.00000000000E+00  0.45593999997E+02  0.45594000000E+02  0.51100000000E-03 0.  1.
         11   -1    0    0    0    0 -0.00000000000E+00 -0.00000000000E+00 -0.45593999997E+02  0.45594000000E+02  0.51100000000E-03 0. -1.
         23    2    1    2    0    0 -0.35527136788E-14  0.00000000000E+00  0.00000000000E+00  0.91188000000E+02  0.91188000000E+02 0.  0.
    9900012    2    3    3    0    0 -0.19312991263E+02 -0.22190546235E+02  0.22144222040E+02  0.54367101810E+02  0.40000040196E+02 0.  0.
         12    1    3    3    0    0  0.19312991263E+02  0.22190546235E+02 -0.22144222040E+02  0.36820898190E+02  0.00000000000E+00 0. -1.
         11    1    4    4    0    0  0.46982949804E+01  0.24289564000E+01  0.53719602661E+01  0.75386843864E+01  0.51100000000E-03 0. -1.
        -11    1    4    4    0    0 -0.37329346924E+01 -0.23083487289E+02  0.91905111606E+01  0.25124642933E+02  0.51100000000E-03 0.  1.
        -12    1    4    4    0    0 -0.20278351551E+02 -0.15360153462E+01  0.75817506138E+01  0.21703774491E+02  0.00000000000E+00 0.  1.
</event>
<event>
 8    1  0.1262344E-006  0.9118800E+02  0.7816164E-02  0.1184000E+00
        -11   -1    0    0    0    0  0.00000000000E+00  0.00000000000E+00  0.45593999997E+02  0.45594000000E+02  0.51100000000E-03 0. -1.
         11   -1    0    0    0    0 -0.00000000000E+00 -0.00000000000E+00 -0.45593999997E+02  0.45594000000E+02  0.51100000000E-03 0.  1.
         23    2    1    2    0    0  0.00000000000E+00  0.00000000000E+00  0.00000000000E+00  0.91188000000E+02  0.91188000000E+02 0.  0.
    9900012    2    3    3    0    0  0.20139817437E+01  0.26378543338E+02 -0.25610447487E+02  0.54367099800E+02  0.40000035613E+02 0.  0.
         12    1    3    3    0    0 -0.20139817437E+01 -0.26378543338E+02  0.25610447487E+02  0.36820900200E+02  0.00000000000E+00 0. -1.
         11    1    4    4    0    0  0.49344579426E+00  0.63889419710E+01 -0.11046248845E+02  0.12770343851E+02  0.51100000000E-03 0. -1.
        -11    1    4    4    0    0 -0.91125700839E+01  0.25200835255E+02 -0.12527616264E+02  0.29581450279E+02  0.51100000000E-03 0.  1.
         12    1    4    4    0    0  0.10633106033E+02 -0.52112338888E+01 -0.20365823784E+01  0.12015305670E+02  0.00000000000E+00 0. -1.
</event>
<event>
 8    1  0.1262344E-006  0.9118800E+02  0.7816164E-02  0.1184000E+00
        -11   -1    0    0    0    0  0.00000000000E+00  0.00000000000E+00  0.45593999997E+02  0.45594000000E+02  0.51100000000E-03 0.  1.
         11   -1    0    0    0    0 -0.00000000000E+00 -0.00000000000E+00 -0.45593999997E+02  0.45594000000E+02  0.51100000000E-03 0. -1.
         23    2    1    2    0    0  0.00000000000E+00  0.00000000000E+00  0.00000000000E+00  0.91188000000E+02  0.91188000000E+02 0.  0.
    9900012    2    3    3    0    0 -0.28515108731E+02  0.99824208897E+01 -0.21048022099E+02  0.54367090356E+02  0.40000014084E+02 0.  0.
        -12    1    3    3    0    0  0.28515108731E+02 -0.99824208897E+01  0.21048022099E+02  0.36820909644E+02  0.00000000000E+00 0.  1.
         11    1    4    4    0    0 -0.26725752067E+01  0.12459945904E+02 -0.13111687069E+02  0.18284125580E+02  0.51100000000E-03 0. -1.
        -11    1    4    4    0    0 -0.14079982461E+01  0.73853742417E+01  0.22263355175E+01  0.78410957046E+01  0.51100000000E-03 0.  1.
         12    1    4    4    0    0 -0.24434535278E+02 -0.98628992556E+01 -0.10162670547E+02  0.28241869071E+02  0.00000000000E+00 0. -1.
</event>
<event>
 8    1  0.1262344E-006  0.9118800E+02  0.7816164E-02  0.1184000E+00
        -11   -1    0    0    0    0  0.00000000000E+00  0.00000000000E+00  0.45593999997E+02  0.45594000000E+02  0.51100000000E-03 0.  1.
         11   -1    0    0    0    0 -0.00000000000E+00 -0.00000000000E+00 -0.45593999997E+02  0.45594000000E+02  0.51100000000E-03 0. -1.
         23    2    1    2    0    0  0.00000000000E+00 -0.35527136788E-14  0.00000000000E+00  0.91188000000E+02  0.91188000000E+02 0.  0.
    9900012    2    3    3    0    0 -0.30314796543E+02 -0.11924593576E+02 -0.17163833149E+02  0.54367082171E+02  0.39999995426E+02 0.  0.
        -12    1    3    3    0    0  0.30314796543E+02  0.11924593576E+02  0.17163833149E+02  0.36820917829E+02  0.00000000000E+00 0.  1.
         11    1    4    4    0    0 -0.15089238642E+02  0.31027161789E+01  0.57724993620E+01  0.16450948898E+02  0.51100000000E-03 0. -1.
        -11    1    4    4    0    0 -0.72846008049E+01 -0.12168792382E+02 -0.77681731338E+00  0.14203815062E+02  0.51100000000E-03 0.  1.
         12    1    4    4    0    0 -0.79409570960E+01 -0.28585173729E+01 -0.22159515197E+02  0.23712318211E+02  0.00000000000E+00 0. -1.
</event>
<event>
 8    1  0.1262344E-006  0.9118800E+02  0.7816164E-02  0.1184000E+00
        -11   -1    0    0    0    0  0.00000000000E+00  0.00000000000E+00  0.45593999997E+02  0.45594000000E+02  0.51100000000E-03 0. -1.
         11   -1    0    0    0    0 -0.00000000000E+00 -0.00000000000E+00 -0.45593999997E+02  0.45594000000E+02  0.51100000000E-03 0.  1.
         23    2    1    2    0    0  0.00000000000E+00  0.35527136788E-14  0.17763568394E-14  0.91188000000E+02  0.91188000000E+02 0.  0.
    9900012    2    3    3    0    0  0.30309430702E+02  0.18168588043E+02 -0.10345072954E+02  0.54367085897E+02  0.40000003919E+02 0.  0.
         12    1    3    3    0    0 -0.30309430702E+02 -0.18168588043E+02  0.10345072954E+02  0.36820914103E+02  0.00000000000E+00 0. -1.
         11    1    4    4    0    0  0.44007957134E+01  0.10443177719E+02 -0.69357620634E+01  0.13286525484E+02  0.51100000000E-03 0. -1.
        -11    1    4    4    0    0  0.22589466849E+02 -0.22134734140E+00  0.10349716843E+02  0.24848534085E+02  0.51100000000E-03 0.  1.
        -12    1    4    4    0    0  0.33191681395E+01  0.79467576655E+01 -0.13759027734E+02  0.16232026328E+02  0.00000000000E+00 0.  1.
</event>
<event>
 8    1  0.1262344E-006  0.9118800E+02  0.7816164E-02  0.1184000E+00
        -11   -1    0    0    0    0  0.00000000000E+00  0.00000000000E+00  0.45593999997E+02  0.45594000000E+02  0.51100000000E-03 0. -1.
         11   -1    0    0    0    0 -0.00000000000E+00 -0.00000000000E+00 -0.45593999997E+02  0.45594000000E+02  0.51100000000E-03 0.  1.
         23    2    1    2    0    0  0.00000000000E+00  0.35527136788E-14 -0.88817841970E-15  0.91188000000E+02  0.91188000000E+02 0.  0.
    9900012    2    3    3    0    0 -0.32501286049E+02 -0.16820473476E+02  0.40634078753E+01  0.54367174285E+02  0.40000205417E+02 0.  0.
         12    1    3    3    0    0  0.32501286049E+02  0.16820473476E+02 -0.40634078753E+01  0.36820825715E+02  0.00000000000E+00 0. -1.
         11    1    4    4    0    0 -0.12038946970E+02 -0.80732851399E+01  0.79570101031E+01  0.16535664097E+02  0.51100000000E-03 0. -1.
        -11    1    4    4    0    0 -0.18120011584E+02 -0.68604337171E+01  0.11241626551E+02  0.22400324515E+02  0.51100000000E-03 0.  1.
         12    1    4    4    0    0 -0.23423274951E+01 -0.18867546190E+01 -0.15135228779E+02  0.15431185673E+02  0.00000000000E+00 0. -1.
</event>
<event>
 8    1  0.1262344E-006  0.9118800E+02  0.7816164E-02  0.1184000E+00
        -11   -1    0    0    0    0  0.00000000000E+00  0.00000000000E+00  0.45593999997E+02  0.45594000000E+02  0.51100000000E-03 0.  1.
         11   -1    0    0    0    0 -0.00000000000E+00 -0.00000000000E+00 -0.45593999997E+02  0.45594000000E+02  0.51100000000E-03 0. -1.
         23    2    1    2    0    0  0.33306690739E-15  0.71054273576E-14  0.88817841970E-15  0.91188000000E+02  0.91188000000E+02 0.  0.
    9900012    2    3    3    0    0  0.76375027055E+00 -0.36368625509E+02 -0.57022744136E+01  0.54367134050E+02  0.40000113693E+02 0.  0.
         12    1    3    3    0    0 -0.76375027055E+00  0.36368625509E+02  0.57022744136E+01  0.36820865950E+02  0.00000000000E+00 0. -1.
         11    1    4    4    0    0 -0.38190838192E+01 -0.15157297667E+02 -0.58754060310E+01  0.16698786485E+02  0.51100000000E-03 0. -1.
        -11    1    4    4    0    0  0.64364736613E+01 -0.18734782501E+02  0.13509682934E+02  0.23977735544E+02  0.51100000000E-03 0.  1.
         12    1    4    4    0    0 -0.18536395716E+01 -0.24765453403E+01 -0.13336551317E+02  0.13690612021E+02  0.00000000000E+00 0. -1.
</event>
<event>
 8    1  0.1262344E-006  0.9118800E+02  0.7816164E-02  0.1184000E+00
        -11   -1    0    0    0    0  0.00000000000E+00  0.00000000000E+00  0.45593999997E+02  0.45594000000E+02  0.51100000000E-03 0. -1.
         11   -1    0    0    0    0 -0.00000000000E+00 -0.00000000000E+00 -0.45593999997E+02  0.45594000000E+02  0.51100000000E-03 0.  1.
         23    2    1    2    0    0  0.00000000000E+00  0.35527136788E-14  0.35527136788E-14  0.91188000000E+02  0.91188000000E+02 0.  0.
    9900012    2    3    3    0    0  0.77318994978E+01  0.27294164884E+02 -0.23473945349E+02  0.54367084520E+02  0.40000000780E+02 0.  0.
         12    1    3    3    0    0 -0.77318994978E+01 -0.27294164884E+02  0.23473945349E+02  0.36820915480E+02  0.00000000000E+00 0. -1.
         11    1    4    4    0    0 -0.86104820753E+00  0.15288132600E+02 -0.71813903809E+01  0.16912739887E+02  0.51100000000E-03 0. -1.
        -11    1    4    4    0    0 -0.32128555907E+01 -0.84982858380E+01 -0.68728279218E+00  0.91112930546E+01  0.51100000000E-03 0.  1.
        -12    1    4    4    0    0  0.11805803296E+02  0.20504318122E+02 -0.15605272175E+02  0.28343051579E+02  0.00000000000E+00 0.  1.
</event>
<event>
 8    1  0.1262344E-006  0.9118800E+02  0.7816164E-02  0.1184000E+00
        -11   -1    0    0    0    0  0.00000000000E+00  0.00000000000E+00  0.45593999997E+02  0.45594000000E+02  0.51100000000E-03 0.  1.
         11   -1    0    0    0    0 -0.00000000000E+00 -0.00000000000E+00 -0.45593999997E+02  0.45594000000E+02  0.51100000000E-03 0. -1.
         23    2    1    2    0    0  0.00000000000E+00 -0.22204460493E-15  0.00000000000E+00  0.91188000000E+02  0.91188000000E+02 0.  0.
    9900012    2    3    3    0    0 -0.69663954192E+01 -0.10812468356E+01  0.36139689564E+02  0.54367123834E+02  0.40000090404E+02 0.  0.
         12    1    3    3    0    0  0.69663954192E+01  0.10812468356E+01 -0.36139689564E+02  0.36820876166E+02  0.00000000000E+00 0. -1.
         11    1    4    4    0    0 -0.12046268898E+02  0.68690885357E+01  0.17609293518E+02  0.22413928485E+02  0.51100000000E-03 0. -1.
        -11    1    4    4    0    0  0.34806366727E+01  0.24024854305E+01  0.20807487031E+02  0.21232952802E+02  0.51100000000E-03 0.  1.
        -12    1    4    4    0    0  0.15992368058E+01 -0.10352820802E+02 -0.22770909845E+01  0.10720242547E+02  0.00000000000E+00 0.  1.
</event>
<event>
 8    1  0.1262344E-006  0.9118800E+02  0.7816164E-02  0.1184000E+00
        -11   -1    0    0    0    0  0.00000000000E+00  0.00000000000E+00  0.45593999997E+02  0.45594000000E+02  0.51100000000E-03 0.  1.
         11   -1    0    0    0    0 -0.00000000000E+00 -0.00000000000E+00 -0.45593999997E+02  0.45594000000E+02  0.51100000000E-03 0. -1.
         23    2    1    2    0    0  0.00000000000E+00  0.00000000000E+00  0.00000000000E+00  0.91188000000E+02  0.91188000000E+02 0.  0.
    9900012    2    3    3    0    0  0.32060187604E+02 -0.13402851473E+02  0.12176914845E+02  0.54367227167E+02  0.40000325972E+02 0.  0.
         12    1    3    3    0    0 -0.32060187604E+02  0.13402851473E+02 -0.12176914845E+02  0.36820772833E+02  0.00000000000E+00 0. -1.
         11    1    4    4    0    0  0.17680184738E+02 -0.98502759596E+01 -0.71174706267E+01  0.21454026597E+02  0.51100000000E-03 0. -1.
        -11    1    4    4    0    0  0.83844496908E+01 -0.79491098956E+01 -0.70641561620E+00  0.11575248077E+02  0.51100000000E-03 0.  1.
        -12    1    4    4    0    0  0.59955531756E+01  0.43965343823E+01  0.20000801088E+02  0.21337952494E+02  0.00000000000E+00 0.  1.
</event>
<event>
 8    1  0.1262344E-006  0.9118800E+02  0.7816164E-02  0.1184000E+00
        -11   -1    0    0    0    0  0.00000000000E+00  0.00000000000E+00  0.45593999997E+02  0.45594000000E+02  0.51100000000E-03 0.  1.
         11   -1    0    0    0    0 -0.00000000000E+00 -0.00000000000E+00 -0.45593999997E+02  0.45594000000E+02  0.51100000000E-03 0. -1.
         23    2    1    2    0    0  0.88817841970E-15 -0.71054273576E-14  0.00000000000E+00  0.91188000000E+02  0.91188000000E+02 0.  0.
    9900012    2    3    3    0    0  0.68463893861E+01 -0.22523342371E+02 -0.28312628920E+02  0.54367096215E+02  0.40000027442E+02 0.  0.
        -12    1    3    3    0    0 -0.68463893861E+01  0.22523342371E+02  0.28312628920E+02  0.36820903785E+02  0.00000000000E+00 0.  1.
         11    1    4    4    0    0  0.42320965428E+01 -0.12500897964E+01  0.26986205244E+01  0.51726123615E+01  0.51100000000E-03 0. -1.
        -11    1    4    4    0    0 -0.59814541618E+01  0.54414850758E+01 -0.10689069372E+01  0.81565995379E+01  0.51100000000E-03 0.  1.
         12    1    4    4    0    0  0.85957470052E+01 -0.26714737651E+02 -0.29942342507E+02  0.41037884316E+02  0.00000000000E+00 0. -1.
</event>
<event>
 8    1  0.1262344E-006  0.9118800E+02  0.7816164E-02  0.1184000E+00
        -11   -1    0    0    0    0  0.00000000000E+00  0.00000000000E+00  0.45593999997E+02  0.45594000000E+02  0.51100000000E-03 0.  1.
         11   -1    0    0    0    0 -0.00000000000E+00 -0.00000000000E+00 -0.45593999997E+02  0.45594000000E+02  0.51100000000E-03 0. -1.
         23    2    1    2    0    0 -0.35527136788E-14  0.00000000000E+00 -0.35527136788E-14  0.91188000000E+02  0.91188000000E+02 0.  0.
    9900012    2    3    3    0    0 -0.23302556016E+02  0.85691354401E+01 -0.27190881799E+02  0.54367037871E+02  0.39999894435E+02 0.  0.
        -12    1    3    3    0    0  0.23302556016E+02 -0.85691354401E+01  0.27190881799E+02  0.36820962129E+02  0.00000000000E+00 0.  1.
         11    1    4    4    0    0  0.48177128409E+01 -0.70456056345E+01  0.59717880092E+00  0.85561404007E+01  0.51100000000E-03 0. -1.
        -11    1    4    4    0    0 -0.11759722309E+02  0.11983066904E+02 -0.49888528080E+01  0.17514954006E+02  0.51100000000E-03 0.  1.
         12    1    4    4    0    0 -0.16360546548E+02  0.36316741702E+01 -0.22799207792E+02  0.28295943465E+02  0.00000000000E+00 0. -1.
</event>
<event>
 8    1  0.1262344E-006  0.9118800E+02  0.7816164E-02  0.1184000E+00
        -11   -1    0    0    0    0  0.00000000000E+00  0.00000000000E+00  0.45593999997E+02  0.45594000000E+02  0.51100000000E-03 0. -1.
         11   -1    0    0    0    0 -0.00000000000E+00 -0.00000000000E+00 -0.45593999997E+02  0.45594000000E+02  0.51100000000E-03 0.  1.
         23    2    1    2    0    0  0.00000000000E+00 -0.88817841970E-15 -0.17763568394E-14  0.91188000000E+02  0.91188000000E+02 0.  0.
    9900012    2    3    3    0    0 -0.35191631889E+02 -0.72939571233E+01 -0.80079728836E+01  0.54367076666E+02  0.39999982874E+02 0.  0.
         12    1    3    3    0    0  0.35191631889E+02  0.72939571233E+01  0.80079728836E+01  0.36820923334E+02  0.00000000000E+00 0. -1.
         11    1    4    4    0    0 -0.33239682366E+01 -0.37033721356E+01 -0.15512580785E+02  0.16291221344E+02  0.51100000000E-03 0. -1.
        -11    1    4    4    0    0 -0.21772942183E+02 -0.10950913658E+02  0.20944387982E+01  0.24461606558E+02  0.51100000000E-03 0.  1.
         12    1    4    4    0    0 -0.10094721469E+02  0.73603286703E+01  0.54101691032E+01  0.13614248763E+02  0.00000000000E+00 0. -1.
</event>
<event>
 8    1  0.1262344E-006  0.9118800E+02  0.7816164E-02  0.1184000E+00
        -11   -1    0    0    0    0  0.00000000000E+00  0.00000000000E+00  0.45593999997E+02  0.45594000000E+02  0.51100000000E-03 0.  1.
         11   -1    0    0    0    0 -0.00000000000E+00 -0.00000000000E+00 -0.45593999997E+02  0.45594000000E+02  0.51100000000E-03 0. -1.
         23    2    1    2    0    0  0.00000000000E+00 -0.88817841970E-15  0.00000000000E+00  0.91188000000E+02  0.91188000000E+02 0.  0.
    9900012    2    3    3    0    0  0.26917700556E+02 -0.59444782937E+01  0.24410434669E+02  0.54367234851E+02  0.40000343489E+02 0.  0.
         12    1    3    3    0    0 -0.26917700556E+02  0.59444782937E+01 -0.24410434669E+02  0.36820765149E+02  0.00000000000E+00 0. -1.
         11    1    4    4    0    0  0.28195296471E+02  0.72603860126E+01  0.59312932760E+01  0.29713097925E+02  0.51100000000E-03 0. -1.
        -11    1    4    4    0    0  0.17294241140E+01 -0.19605393590E+01 -0.22514792501E+00  0.26239882229E+01  0.51100000000E-03 0.  1.
         12    1    4    4    0    0 -0.30070200289E+01 -0.11244324947E+02  0.18704289318E+02  0.22030148703E+02  0.00000000000E+00 0. -1.
</event>
<event>
 8    1  0.1262344E-006  0.9118800E+02  0.7816164E-02  0.1184000E+00
        -11   -1    0    0    0    0  0.00000000000E+00  0.00000000000E+00  0.45593999997E+02  0.45594000000E+02  0.51100000000E-03 0.  1.
         11   -1    0    0    0    0 -0.00000000000E+00 -0.00000000000E+00 -0.45593999997E+02  0.45594000000E+02  0.51100000000E-03 0. -1.
         23    2    1    2    0    0  0.00000000000E+00  0.22204460493E-15  0.00000000000E+00  0.91188000000E+02  0.91188000000E+02 0.  0.
    9900012    2    3    3    0    0 -0.17074389015E+02  0.16324542315E+01 -0.32581897377E+02  0.54367086055E+02  0.40000004279E+02 0.  0.
        -12    1    3    3    0    0  0.17074389015E+02 -0.16324542315E+01  0.32581897377E+02  0.36820913945E+02  0.00000000000E+00 0.  1.
         11    1    4    4    0    0 -0.45110336551E+01 -0.77391774777E+01 -0.15221822986E+02  0.17662055032E+02  0.51100000000E-03 0. -1.
        -11    1    4    4    0    0 -0.61495035009E+01 -0.24660009654E+01 -0.21597087649E+02  0.22590523439E+02  0.51100000000E-03 0.  1.
        -12    1    4    4    0    0 -0.64138518588E+01  0.11837632675E+02  0.42370132573E+01  0.14114507584E+02  0.00000000000E+00 0.  1.
</event>
<event>
 8    1  0.1262344E-006  0.9118800E+02  0.7816164E-02  0.1184000E+00
        -11   -1    0    0    0    0  0.00000000000E+00  0.00000000000E+00  0.45593999997E+02  0.45594000000E+02  0.51100000000E-03 0.  1.
         11   -1    0    0    0    0 -0.00000000000E+00 -0.00000000000E+00 -0.45593999997E+02  0.45594000000E+02  0.51100000000E-03 0. -1.
         23    2    1    2    0    0  0.00000000000E+00  0.00000000000E+00 -0.35527136788E-14  0.91188000000E+02  0.91188000000E+02 0.  0.
    9900012    2    3    3    0    0 -0.28298552651E+02  0.15726163529E+02  0.17540214116E+02  0.54367090007E+02  0.40000013289E+02 0.  0.
         12    1    3    3    0    0  0.28298552651E+02 -0.15726163529E+02 -0.17540214116E+02  0.36820909993E+02  0.00000000000E+00 0. -1.
         11    1    4    4    0    0 -0.12227407856E+02  0.21165954312E+02  0.97794644883E+00  0.24463513736E+02  0.51100000000E-03 0. -1.
        -11    1    4    4    0    0 -0.14167836133E+02  0.25771113082E+01  0.41160127810E+01  0.14977003868E+02  0.51100000000E-03 0.  1.
        -12    1    4    4    0    0 -0.19033086616E+01 -0.80169020908E+01  0.12446254886E+02  0.14926572402E+02  0.00000000000E+00 0.  1.
</event>
<event>
 8    1  0.1262344E-006  0.9118800E+02  0.7816164E-02  0.1184000E+00
        -11   -1    0    0    0    0  0.00000000000E+00  0.00000000000E+00  0.45593999997E+02  0.45594000000E+02  0.51100000000E-03 0. -1.
         11   -1    0    0    0    0 -0.00000000000E+00 -0.00000000000E+00 -0.45593999997E+02  0.45594000000E+02  0.51100000000E-03 0.  1.
         23    2    1    2    0    0  0.35527136788E-14  0.35527136788E-14 -0.88817841970E-15  0.91188000000E+02  0.91188000000E+02 0.  0.
    9900012    2    3    3    0    0 -0.28331595886E+02  0.23031556091E+02 -0.47591340869E+01  0.54367064941E+02  0.39999956145E+02 0.  0.
        -12    1    3    3    0    0  0.28331595886E+02 -0.23031556091E+02  0.47591340869E+01  0.36820935059E+02  0.00000000000E+00 0.  1.
         11    1    4    4    0    0 -0.28113430137E+02  0.64250808945E+01 -0.15521558615E+02  0.32750044285E+02  0.51100000000E-03 0. -1.
        -11    1    4    4    0    0  0.38222080742E+01  0.61176094468E+01  0.23820336977E+01  0.75966113961E+01  0.51100000000E-03 0.  1.
         12    1    4    4    0    0 -0.40403738226E+01  0.10488865749E+02  0.83803908303E+01  0.14020409259E+02  0.00000000000E+00 0. -1.
</event>
<event>
 8    1  0.1262344E-006  0.9118800E+02  0.7816164E-02  0.1184000E+00
        -11   -1    0    0    0    0  0.00000000000E+00  0.00000000000E+00  0.45593999997E+02  0.45594000000E+02  0.51100000000E-03 0.  1.
         11   -1    0    0    0    0 -0.00000000000E+00 -0.00000000000E+00 -0.45593999997E+02  0.45594000000E+02  0.51100000000E-03 0. -1.
         23    2    1    2    0    0 -0.17763568394E-14  0.00000000000E+00  0.00000000000E+00  0.91188000000E+02  0.91188000000E+02 0.  0.
    9900012    2    3    3    0    0  0.97173247220E+01 -0.24850481964E+02  0.25373360888E+02  0.54367078008E+02  0.39999985934E+02 0.  0.
         12    1    3    3    0    0 -0.97173247220E+01  0.24850481964E+02 -0.25373360888E+02  0.36820921992E+02  0.00000000000E+00 0. -1.
         11    1    4    4    0    0  0.76312640144E+01 -0.19888254272E+01  0.10601623815E+02  0.13213101256E+02  0.51100000000E-03 0. -1.
        -11    1    4    4    0    0  0.11194670874E+02 -0.90702744663E+01  0.19236232365E+02  0.24033792267E+02  0.51100000000E-03 0.  1.
        -12    1    4    4    0    0 -0.91086101667E+01 -0.13791382070E+02 -0.44644952914E+01  0.17120184485E+02  0.00000000000E+00 0.  1.
</event>
<event>
 8    1  0.1262344E-006  0.9118800E+02  0.7816164E-02  0.1184000E+00
        -11   -1    0    0    0    0  0.00000000000E+00  0.00000000000E+00  0.45593999997E+02  0.45594000000E+02  0.51100000000E-03 0. -1.
         11   -1    0    0    0    0 -0.00000000000E+00 -0.00000000000E+00 -0.45593999997E+02  0.45594000000E+02  0.51100000000E-03 0.  1.
         23    2    1    2    0    0  0.00000000000E+00  0.00000000000E+00  0.00000000000E+00  0.91188000000E+02  0.91188000000E+02 0.  0.
    9900012    2    3    3    0    0  0.40281191758E+00  0.16673092375E+02  0.32827203336E+02  0.54367088202E+02  0.40000009175E+02 0.  0.
        -12    1    3    3    0    0 -0.40281191758E+00 -0.16673092375E+02 -0.32827203336E+02  0.36820911798E+02  0.00000000000E+00 0.  1.
         11    1    4    4    0    0 -0.68816170915E+01  0.25569404031E+01 -0.13888330095E+01  0.74715095803E+01  0.51100000000E-03 0. -1.
        -11    1    4    4    0    0 -0.19842984406E+00  0.14426026737E+02  0.29251802510E+01  0.14720947714E+02  0.51100000000E-03 0.  1.
        -12    1    4    4    0    0  0.74828588532E+01 -0.30987476573E+00  0.31290856094E+02  0.32174630908E+02  0.00000000000E+00 0.  1.
</event>
<event>
 8    1  0.1262344E-006  0.9118800E+02  0.7816164E-02  0.1184000E+00
        -11   -1    0    0    0    0  0.00000000000E+00  0.00000000000E+00  0.45593999997E+02  0.45594000000E+02  0.51100000000E-03 0. -1.
         11   -1    0    0    0    0 -0.00000000000E+00 -0.00000000000E+00 -0.45593999997E+02  0.45594000000E+02  0.51100000000E-03 0.  1.
         23    2    1    2    0    0  0.00000000000E+00  0.00000000000E+00  0.17763568394E-14  0.91188000000E+02  0.91188000000E+02 0.  0.
    9900012    2    3    3    0    0 -0.23348723287E+02 -0.23598153917E+02 -0.15929364413E+02  0.54367076627E+02  0.39999982787E+02 0.  0.
         12    1    3    3    0    0  0.23348723287E+02  0.23598153917E+02  0.15929364413E+02  0.36820923373E+02  0.00000000000E+00 0. -1.
         11    1    4    4    0    0 -0.57254911918E+01  0.10370795797E+02  0.19533858542E+01  0.12006263841E+02  0.51100000000E-03 0. -1.
        -11    1    4    4    0    0 -0.90359272059E+01 -0.18867791346E+02 -0.11354612463E+02  0.23802704787E+02  0.51100000000E-03 0.  1.
         12    1    4    4    0    0 -0.85873048896E+01 -0.15101158368E+02 -0.65281378040E+01  0.18558108000E+02  0.00000000000E+00 0. -1.
</event>
<event>
 8    1  0.1262344E-006  0.9118800E+02  0.7816164E-02  0.1184000E+00
        -11   -1    0    0    0    0  0.00000000000E+00  0.00000000000E+00  0.45593999997E+02  0.45594000000E+02  0.51100000000E-03 0. -1.
         11   -1    0    0    0    0 -0.00000000000E+00 -0.00000000000E+00 -0.45593999997E+02  0.45594000000E+02  0.51100000000E-03 0.  1.
         23    2    1    2    0    0  0.00000000000E+00 -0.22204460493E-15  0.17763568394E-14  0.91188000000E+02  0.91188000000E+02 0.  0.
    9900012    2    3    3    0    0  0.34213159435E+02  0.64170907810E+00 -0.13595156477E+02  0.54367077297E+02  0.39999984314E+02 0.  0.
         12    1    3    3    0    0 -0.34213159435E+02 -0.64170907810E+00  0.13595156477E+02  0.36820922703E+02  0.00000000000E+00 0. -1.
         11    1    4    4    0    0  0.21391432926E+02 -0.33764481198E+01 -0.55944641998E+01  0.22367204440E+02  0.51100000000E-03 0. -1.
        -11    1    4    4    0    0 -0.91882461743E+00 -0.65410286254E+01 -0.12463228108E+02  0.14105365975E+02  0.51100000000E-03 0.  1.
        -12    1    4    4    0    0  0.13740551127E+02  0.10559185823E+02  0.44625358308E+01  0.17894506882E+02  0.00000000000E+00 0.  1.
</event>
<event>
 8    1  0.1262344E-006  0.9118800E+02  0.7816164E-02  0.1184000E+00
        -11   -1    0    0    0    0  0.00000000000E+00  0.00000000000E+00  0.45593999997E+02  0.45594000000E+02  0.51100000000E-03 0. -1.
         11   -1    0    0    0    0 -0.00000000000E+00 -0.00000000000E+00 -0.45593999997E+02  0.45594000000E+02  0.51100000000E-03 0.  1.
         23    2    1    2    0    0 -0.35527136788E-14 -0.33306690739E-15  0.35527136788E-14  0.91188000000E+02  0.91188000000E+02 0.  0.
    9900012    2    3    3    0    0  0.27282518750E+02 -0.59638833691E+00 -0.24720176502E+02  0.54367100572E+02  0.40000037374E+02 0.  0.
         12    1    3    3    0    0 -0.27282518750E+02  0.59638833691E+00  0.24720176502E+02  0.36820899428E+02  0.00000000000E+00 0. -1.
         11    1    4    4    0    0  0.22992121759E+02 -0.73117061404E+01 -0.32728054508E+01  0.24347689119E+02  0.51100000000E-03 0. -1.
        -11    1    4    4    0    0  0.80232037521E+01  0.75317631295E+01 -0.23303679843E+02  0.25771316396E+02  0.51100000000E-03 0.  1.
        -12    1    4    4    0    0 -0.37328067609E+01 -0.81644532595E+00  0.18563087917E+01  0.42480950572E+01  0.00000000000E+00 0.  1.
</event>
<event>
 8    1  0.1262344E-006  0.9118800E+02  0.7816164E-02  0.1184000E+00
        -11   -1    0    0    0    0  0.00000000000E+00  0.00000000000E+00  0.45593999997E+02  0.45594000000E+02  0.51100000000E-03 0.  1.
         11   -1    0    0    0    0 -0.00000000000E+00 -0.00000000000E+00 -0.45593999997E+02  0.45594000000E+02  0.51100000000E-03 0. -1.
         23    2    1    2    0    0  0.00000000000E+00  0.00000000000E+00 -0.35527136788E-14  0.91188000000E+02  0.91188000000E+02 0.  0.
    9900012    2    3    3    0    0 -0.19965577246E+02 -0.28769224153E+02 -0.11379229080E+02  0.54367090348E+02  0.40000014067E+02 0.  0.
        -12    1    3    3    0    0  0.19965577246E+02  0.28769224153E+02  0.11379229080E+02  0.36820909652E+02  0.00000000000E+00 0.  1.
         11    1    4    4    0    0 -0.93964355604E+01 -0.19547011661E+02 -0.14457219961E+01  0.21736346943E+02  0.51100000000E-03 0. -1.
        -11    1    4    4    0    0 -0.69951922818E+01  0.42695113196E+01  0.69357388394E+01  0.10736196509E+02  0.51100000000E-03 0.  1.
        -12    1    4    4    0    0 -0.35739494034E+01 -0.13491723812E+02 -0.16869245923E+02  0.21894546896E+02  0.00000000000E+00 0.  1.
</event>
<event>
 8    1  0.1262344E-006  0.9118800E+02  0.7816164E-02  0.1184000E+00
        -11   -1    0    0    0    0  0.00000000000E+00  0.00000000000E+00  0.45593999997E+02  0.45594000000E+02  0.51100000000E-03 0.  1.
         11   -1    0    0    0    0 -0.00000000000E+00 -0.00000000000E+00 -0.45593999997E+02  0.45594000000E+02  0.51100000000E-03 0. -1.
         23    2    1    2    0    0 -0.17763568394E-14  0.00000000000E+00  0.00000000000E+00  0.91188000000E+02  0.91188000000E+02 0.  0.
    9900012    2    3    3    0    0 -0.99682277649E+01  0.13077062236E+02  0.32945494630E+02  0.54367072012E+02  0.39999972266E+02 0.  0.
         12    1    3    3    0    0  0.99682277649E+01 -0.13077062236E+02 -0.32945494630E+02  0.36820927988E+02  0.00000000000E+00 0. -1.
         11    1    4    4    0    0 -0.80507481570E+01  0.52262091876E+01 -0.21835744637E+01  0.98435667346E+01  0.51100000000E-03 0. -1.
        -11    1    4    4    0    0 -0.60351163351E+01  0.10587269245E+02  0.37213480633E+02  0.39158090356E+02  0.51100000000E-03 0.  1.
         12    1    4    4    0    0  0.41176367272E+01 -0.27364161957E+01 -0.20844115395E+01  0.53654149214E+01  0.00000000000E+00 0. -1.
</event>
<event>
 8    1  0.1262344E-006  0.9118800E+02  0.7816164E-02  0.1184000E+00
        -11   -1    0    0    0    0  0.00000000000E+00  0.00000000000E+00  0.45593999997E+02  0.45594000000E+02  0.51100000000E-03 0.  1.
         11   -1    0    0    0    0 -0.00000000000E+00 -0.00000000000E+00 -0.45593999997E+02  0.45594000000E+02  0.51100000000E-03 0. -1.
         23    2    1    2    0    0  0.00000000000E+00  0.00000000000E+00 -0.44408920985E-15  0.91188000000E+02  0.91188000000E+02 0.  0.
    9900012    2    3    3    0    0  0.25990656277E+02  0.25840217994E+02 -0.35424410195E+01  0.54367082466E+02  0.39999996097E+02 0.  0.
        -12    1    3    3    0    0 -0.25990656277E+02 -0.25840217994E+02  0.35424410195E+01  0.36820917534E+02  0.00000000000E+00 0.  1.
         11    1    4    4    0    0  0.23049608365E+02  0.14660859422E+02 -0.14237868999E+02  0.30804904783E+02  0.51100000000E-03 0. -1.
        -11    1    4    4    0    0  0.33910261774E+01 -0.11190475878E+01  0.10674056792E+02  0.11255523741E+02  0.51100000000E-03 0.  1.
        -12    1    4    4    0    0 -0.44997826541E+00  0.12298406160E+02  0.21371188214E-01  0.12306653941E+02  0.00000000000E+00 0.  1.
</event>
<event>
 8    1  0.1262344E-006  0.9118800E+02  0.7816164E-02  0.1184000E+00
        -11   -1    0    0    0    0  0.00000000000E+00  0.00000000000E+00  0.45593999997E+02  0.45594000000E+02  0.51100000000E-03 0. -1.
         11   -1    0    0    0    0 -0.00000000000E+00 -0.00000000000E+00 -0.45593999997E+02  0.45594000000E+02  0.51100000000E-03 0.  1.
         23    2    1    2    0    0  0.35527136788E-14  0.00000000000E+00  0.00000000000E+00  0.91188000000E+02  0.91188000000E+02 0.  0.
    9900012    2    3    3    0    0  0.24308373377E+02  0.24945749643E+02  0.11941192939E+02  0.54367088410E+02  0.40000009648E+02 0.  0.
        -12    1    3    3    0    0 -0.24308373377E+02 -0.24945749643E+02 -0.11941192939E+02  0.36820911590E+02  0.00000000000E+00 0.  1.
         11    1    4    4    0    0  0.10442227095E+02  0.32681984984E+01  0.34757995837E+01  0.11480523121E+02  0.51100000000E-03 0. -1.
        -11    1    4    4    0    0  0.12738258880E+02  0.37624010652E+01  0.18149351313E+02  0.22490394714E+02  0.51100000000E-03 0.  1.
        -12    1    4    4    0    0  0.11278874023E+01  0.17915150080E+02 -0.96839579573E+01  0.20396170574E+02  0.00000000000E+00 0.  1.
</event>
<event>
 8    1  0.1262344E-006  0.9118800E+02  0.7816164E-02  0.1184000E+00
        -11   -1    0    0    0    0  0.00000000000E+00  0.00000000000E+00  0.45593999997E+02  0.45594000000E+02  0.51100000000E-03 0. -1.
         11   -1    0    0    0    0 -0.00000000000E+00 -0.00000000000E+00 -0.45593999997E+02  0.45594000000E+02  0.51100000000E-03 0.  1.
         23    2    1    2    0    0  0.00000000000E+00  0.00000000000E+00  0.00000000000E+00  0.91188000000E+02  0.91188000000E+02 0.  0.
    9900012    2    3    3    0    0 -0.24357402584E+02  0.17282588963E+02 -0.21536229748E+02  0.54367080217E+02  0.39999990972E+02 0.  0.
         12    1    3    3    0    0  0.24357402584E+02 -0.17282588963E+02  0.21536229748E+02  0.36820919783E+02  0.00000000000E+00 0. -1.
         11    1    4    4    0    0 -0.51631829408E+01  0.95302504142E+01 -0.43798928030E+01  0.11690491532E+02  0.51100000000E-03 0. -1.
        -11    1    4    4    0    0 -0.22520009832E+02 -0.61508040697E+01 -0.16067351202E+02  0.28339777847E+02  0.51100000000E-03 0.  1.
         12    1    4    4    0    0  0.33257901889E+01  0.13903142619E+02 -0.10889857432E+01  0.14336810838E+02  0.00000000000E+00 0. -1.
</event>
<event>
 8    1  0.1262344E-006  0.9118800E+02  0.7816164E-02  0.1184000E+00
        -11   -1    0    0    0    0  0.00000000000E+00  0.00000000000E+00  0.45593999997E+02  0.45594000000E+02  0.51100000000E-03 0.  1.
         11   -1    0    0    0    0 -0.00000000000E+00 -0.00000000000E+00 -0.45593999997E+02  0.45594000000E+02  0.51100000000E-03 0. -1.
         23    2    1    2    0    0 -0.35527136788E-14  0.00000000000E+00 -0.88817841970E-15  0.91188000000E+02  0.91188000000E+02 0.  0.
    9900012    2    3    3    0    0 -0.28704365240E+02 -0.22439487455E+02  0.53215619861E+01  0.54366943483E+02  0.39999679257E+02 0.  0.
         12    1    3    3    0    0  0.28704365240E+02  0.22439487455E+02 -0.53215619861E+01  0.36821056517E+02  0.00000000000E+00 0. -1.
         11    1    4    4    0    0 -0.74556970873E+01 -0.19977542900E+02  0.45344150110E+01  0.21800242181E+02  0.51100000000E-03 0.  1.
        -11    1    4    4    0    0 -0.19166496249E+02 -0.11800872985E+02  0.31062293415E+01  0.22721440154E+02  0.51100000000E-03 0. -1.
         12    1    4    4    0    0 -0.20821719030E+01  0.93389284300E+01 -0.23190823664E+01  0.98452611482E+01  0.00000000000E+00 0. -1.
</event>
<event>
 8    1  0.1262344E-006  0.9118800E+02  0.7816164E-02  0.1184000E+00
        -11   -1    0    0    0    0  0.00000000000E+00  0.00000000000E+00  0.45593999997E+02  0.45594000000E+02  0.51100000000E-03 0.  1.
         11   -1    0    0    0    0 -0.00000000000E+00 -0.00000000000E+00 -0.45593999997E+02  0.45594000000E+02  0.51100000000E-03 0. -1.
         23    2    1    2    0    0  0.00000000000E+00  0.00000000000E+00  0.00000000000E+00  0.91188000000E+02  0.91188000000E+02 0.  0.
    9900012    2    3    3    0    0  0.74877333735E+01 -0.50165193712E+01 -0.35700816413E+02  0.54367083251E+02  0.39999997887E+02 0.  0.
        -12    1    3    3    0    0 -0.74877333735E+01  0.50165193712E+01  0.35700816413E+02  0.36820916749E+02  0.00000000000E+00 0.  1.
         11    1    4    4    0    0  0.37621878167E+01 -0.87960320396E+01 -0.13537991642E+02  0.16577136507E+02  0.51100000000E-03 0. -1.
        -11    1    4    4    0    0  0.23107617720E+01 -0.91921406604E+01 -0.22835148841E+02  0.24724058986E+02  0.51100000000E-03 0.  1.
        -12    1    4    4    0    0  0.14147837848E+01  0.12971653329E+02  0.67232406963E+00  0.13065887758E+02  0.00000000000E+00 0.  1.
</event>
<event>
 8    1  0.1262344E-006  0.9118800E+02  0.7816164E-02  0.1184000E+00
        -11   -1    0    0    0    0  0.00000000000E+00  0.00000000000E+00  0.45593999997E+02  0.45594000000E+02  0.51100000000E-03 0. -1.
         11   -1    0    0    0    0 -0.00000000000E+00 -0.00000000000E+00 -0.45593999997E+02  0.45594000000E+02  0.51100000000E-03 0.  1.
         23    2    1    2    0    0  0.00000000000E+00 -0.44408920985E-15  0.00000000000E+00  0.91188000000E+02  0.91188000000E+02 0.  0.
    9900012    2    3    3    0    0 -0.99738403356E+01  0.38939457324E+01  0.35229809341E+02  0.54367085147E+02  0.40000002210E+02 0.  0.
        -12    1    3    3    0    0  0.99738403356E+01 -0.38939457324E+01 -0.35229809341E+02  0.36820914853E+02  0.00000000000E+00 0.  1.
         11    1    4    4    0    0  0.19854337893E+01  0.17071887394E+01  0.18144583455E+02  0.18332548915E+02  0.51100000000E-03 0. -1.
        -11    1    4    4    0    0 -0.29881897370E+01  0.15411796052E+02  0.74844368986E+01  0.17391651198E+02  0.51100000000E-03 0.  1.
        -12    1    4    4    0    0 -0.89710843878E+01 -0.13225039059E+02  0.96007889876E+01  0.18642885034E+02  0.00000000000E+00 0.  1.
</event>
<event>
 8    1  0.1262344E-006  0.9118800E+02  0.7816164E-02  0.1184000E+00
        -11   -1    0    0    0    0  0.00000000000E+00  0.00000000000E+00  0.45593999997E+02  0.45594000000E+02  0.51100000000E-03 0. -1.
         11   -1    0    0    0    0 -0.00000000000E+00 -0.00000000000E+00 -0.45593999997E+02  0.45594000000E+02  0.51100000000E-03 0.  1.
         23    2    1    2    0    0  0.22204460493E-15  0.35527136788E-14  0.00000000000E+00  0.91188000000E+02  0.91188000000E+02 0.  0.
    9900012    2    3    3    0    0  0.63896767901E+00  0.11057394653E+02  0.35115594697E+02  0.54367092255E+02  0.40000018414E+02 0.  0.
        -12    1    3    3    0    0 -0.63896767901E+00 -0.11057394653E+02 -0.35115594697E+02  0.36820907745E+02  0.00000000000E+00 0.  1.
         11    1    4    4    0    0  0.63093607685E+01  0.93355159272E+01  0.81553290985E+01  0.13909323632E+02  0.51100000000E-03 0.  1.
        -11    1    4    4    0    0 -0.41830115647E+01  0.15601707690E+02  0.13254576781E+02  0.20894848037E+02  0.51100000000E-03 0. -1.
         12    1    4    4    0    0 -0.14873815248E+01 -0.13879828964E+02  0.13705688818E+02  0.19562920586E+02  0.00000000000E+00 0. -1.
</event>
<event>
 8    1  0.1262344E-006  0.9118800E+02  0.7816164E-02  0.1184000E+00
        -11   -1    0    0    0    0  0.00000000000E+00  0.00000000000E+00  0.45593999997E+02  0.45594000000E+02  0.51100000000E-03 0. -1.
         11   -1    0    0    0    0 -0.00000000000E+00 -0.00000000000E+00 -0.45593999997E+02  0.45594000000E+02  0.51100000000E-03 0.  1.
         23    2    1    2    0    0  0.35527136788E-14  0.17763568394E-14  0.00000000000E+00  0.91188000000E+02  0.91188000000E+02 0.  0.
    9900012    2    3    3    0    0 -0.99130349941E+01 -0.10101934157E+02  0.33992098941E+02  0.54367080308E+02  0.39999991178E+02 0.  0.
        -12    1    3    3    0    0  0.99130349941E+01  0.10101934157E+02 -0.33992098941E+02  0.36820919692E+02  0.00000000000E+00 0.  1.
         11    1    4    4    0    0 -0.18016611489E+02 -0.15848310111E+02  0.22672324551E+02  0.33012142065E+02  0.51100000000E-03 0. -1.
        -11    1    4    4    0    0  0.34485433625E+01  0.97124286129E+01  0.11224764742E+02  0.15238735664E+02  0.51100000000E-03 0.  1.
        -12    1    4    4    0    0  0.46550331321E+01 -0.39660526589E+01  0.95009648984E-01  0.61162025790E+01  0.00000000000E+00 0.  1.
</event>
<event>
 8    1  0.1262344E-006  0.9118800E+02  0.7816164E-02  0.1184000E+00
        -11   -1    0    0    0    0  0.00000000000E+00  0.00000000000E+00  0.45593999997E+02  0.45594000000E+02  0.51100000000E-03 0. -1.
         11   -1    0    0    0    0 -0.00000000000E+00 -0.00000000000E+00 -0.45593999997E+02  0.45594000000E+02  0.51100000000E-03 0.  1.
         23    2    1    2    0    0  0.35527136788E-14  0.00000000000E+00 -0.88817841970E-15  0.91188000000E+02  0.91188000000E+02 0.  0.
    9900012    2    3    3    0    0  0.27146797106E+02 -0.24143103798E+02 -0.59952314285E+01  0.54367070436E+02  0.39999968673E+02 0.  0.
         12    1    3    3    0    0 -0.27146797106E+02  0.24143103798E+02  0.59952314285E+01  0.36820929564E+02  0.00000000000E+00 0. -1.
         11    1    4    4    0    0 -0.42618932289E+01 -0.10350491029E+00  0.93401348708E+01  0.10267062230E+02  0.51100000000E-03 0. -1.
        -11    1    4    4    0    0  0.69454759917E+01 -0.10440346262E+02 -0.80846238856E+00  0.12565591053E+02  0.51100000000E-03 0.  1.
        -12    1    4    4    0    0  0.24463214343E+02 -0.13599252626E+02 -0.14526903911E+02  0.31534417153E+02  0.00000000000E+00 0.  1.
</event>
<event>
 8    1  0.1262344E-006  0.9118800E+02  0.7816164E-02  0.1184000E+00
        -11   -1    0    0    0    0  0.00000000000E+00  0.00000000000E+00  0.45593999997E+02  0.45594000000E+02  0.51100000000E-03 0.  1.
         11   -1    0    0    0    0 -0.00000000000E+00 -0.00000000000E+00 -0.45593999997E+02  0.45594000000E+02  0.51100000000E-03 0. -1.
         23    2    1    2    0    0  0.88817841970E-15  0.00000000000E+00  0.00000000000E+00  0.91188000000E+02  0.91188000000E+02 0.  0.
    9900012    2    3    3    0    0 -0.77992373099E+01 -0.16250255027E+02 -0.32107414100E+02  0.54367015070E+02  0.39999842454E+02 0.  0.
        -12    1    3    3    0    0  0.77992373099E+01  0.16250255027E+02  0.32107414100E+02  0.36820984930E+02  0.00000000000E+00 0.  1.
         11    1    4    4    0    0  0.13295448686E+01  0.57887280692E+01  0.10388592706E+00  0.59403581343E+01  0.51100000000E-03 0. -1.
        -11    1    4    4    0    0  0.10948818389E+01  0.54354609059E+01 -0.10749262320E+02  0.12095025514E+02  0.51100000000E-03 0.  1.
         12    1    4    4    0    0 -0.10223664018E+02 -0.27474444003E+02 -0.21462037707E+02  0.36331631421E+02  0.00000000000E+00 0. -1.
</event>
<event>
 8    1  0.1262344E-006  0.9118800E+02  0.7816164E-02  0.1184000E+00
        -11   -1    0    0    0    0  0.00000000000E+00  0.00000000000E+00  0.45593999997E+02  0.45594000000E+02  0.51100000000E-03 0. -1.
         11   -1    0    0    0    0 -0.00000000000E+00 -0.00000000000E+00 -0.45593999997E+02  0.45594000000E+02  0.51100000000E-03 0.  1.
         23    2    1    2    0    0  0.00000000000E+00  0.00000000000E+00  0.71054273576E-14  0.91188000000E+02  0.91188000000E+02 0.  0.
    9900012    2    3    3    0    0 -0.15483152129E+02  0.17032957495E+02 -0.28738997856E+02  0.54367086939E+02  0.40000006296E+02 0.  0.
         12    1    3    3    0    0  0.15483152129E+02 -0.17032957495E+02  0.28738997856E+02  0.36820913061E+02  0.00000000000E+00 0. -1.
         11    1    4    4    0    0 -0.93772672399E+01  0.12220001144E+02 -0.26459312300E+02  0.30616282865E+02  0.51100000000E-03 0. -1.
        -11    1    4    4    0    0 -0.10552567240E+01 -0.21841094062E+01 -0.11129103849E+02  0.11390384251E+02  0.51100000000E-03 0.  1.
         12    1    4    4    0    0 -0.50506281653E+01  0.69970657575E+01  0.88494182929E+01  0.12360419823E+02  0.00000000000E+00 0. -1.
</event>
<event>
 8    1  0.1262344E-006  0.9118800E+02  0.7816164E-02  0.1184000E+00
        -11   -1    0    0    0    0  0.00000000000E+00  0.00000000000E+00  0.45593999997E+02  0.45594000000E+02  0.51100000000E-03 0. -1.
         11   -1    0    0    0    0 -0.00000000000E+00 -0.00000000000E+00 -0.45593999997E+02  0.45594000000E+02  0.51100000000E-03 0.  1.
         23    2    1    2    0    0 -0.71054273576E-14 -0.71054273576E-14  0.44408920985E-15  0.91188000000E+02  0.91188000000E+02 0.  0.
    9900012    2    3    3    0    0 -0.26238240283E+02 -0.25634049133E+02  0.31987104436E+01  0.54367061981E+02  0.39999949398E+02 0.  0.
        -12    1    3    3    0    0  0.26238240283E+02  0.25634049133E+02 -0.31987104436E+01  0.36820938019E+02  0.00000000000E+00 0.  1.
         11    1    4    4    0    0 -0.10064040518E+02 -0.11224088735E+01  0.22803784179E+01  0.10380021157E+02  0.51100000000E-03 0. -1.
        -11    1    4    4    0    0 -0.20566647304E+02 -0.16382258451E+01  0.15222307204E+01  0.20687869679E+02  0.51100000000E-03 0.  1.
         12    1    4    4    0    0  0.43924475398E+01 -0.22873414415E+02 -0.60389869468E+00  0.23299171144E+02  0.00000000000E+00 0. -1.
</event>
<event>
 8    1  0.1262344E-006  0.9118800E+02  0.7816164E-02  0.1184000E+00
        -11   -1    0    0    0    0  0.00000000000E+00  0.00000000000E+00  0.45593999997E+02  0.45594000000E+02  0.51100000000E-03 0. -1.
         11   -1    0    0    0    0 -0.00000000000E+00 -0.00000000000E+00 -0.45593999997E+02  0.45594000000E+02  0.51100000000E-03 0.  1.
         23    2    1    2    0    0  0.35527136788E-14 -0.71054273576E-14  0.00000000000E+00  0.91188000000E+02  0.91188000000E+02 0.  0.
    9900012    2    3    3    0    0  0.14637360398E+02 -0.32497149079E+02 -0.92445701383E+01  0.54367094326E+02  0.40000023134E+02 0.  0.
         12    1    3    3    0    0 -0.14637360398E+02  0.32497149079E+02  0.92445701383E+01  0.36820905674E+02  0.00000000000E+00 0. -1.
         11    1    4    4    0    0 -0.82548281577E+01 -0.45982012362E+01 -0.19958183147E+01  0.96575842491E+01  0.51100000000E-03 0. -1.
        -11    1    4    4    0    0 -0.24047752646E+01 -0.10076004565E+02  0.49072251332E+01  0.11462533352E+02  0.51100000000E-03 0.  1.
        -12    1    4    4    0    0  0.25296963820E+02 -0.17822943277E+02 -0.12155976957E+02  0.33246976725E+02  0.00000000000E+00 0.  1.
</event>
<event>
 8    1  0.1262344E-006  0.9118800E+02  0.7816164E-02  0.1184000E+00
        -11   -1    0    0    0    0  0.00000000000E+00  0.00000000000E+00  0.45593999997E+02  0.45594000000E+02  0.51100000000E-03 0. -1.
         11   -1    0    0    0    0 -0.00000000000E+00 -0.00000000000E+00 -0.45593999997E+02  0.45594000000E+02  0.51100000000E-03 0.  1.
         23    2    1    2    0    0  0.00000000000E+00 -0.88817841970E-15  0.00000000000E+00  0.91188000000E+02  0.91188000000E+02 0.  0.
    9900012    2    3    3    0    0  0.10317676286E+02  0.75741893400E+01 -0.34524722098E+02  0.54367092569E+02  0.40000019130E+02 0.  0.
         12    1    3    3    0    0 -0.10317676286E+02 -0.75741893400E+01  0.34524722098E+02  0.36820907431E+02  0.00000000000E+00 0. -1.
         11    1    4    4    0    0 -0.49602497911E+00 -0.25130927117E+01  0.31578680022E+01  0.40661783455E+01  0.51100000000E-03 0. -1.
        -11    1    4    4    0    0  0.10260421547E+02 -0.91218896303E+01 -0.12068275247E+02  0.18279179097E+02  0.51100000000E-03 0.  1.
        -12    1    4    4    0    0  0.55327971773E+00  0.19209171682E+02 -0.25614314853E+02  0.32021735127E+02  0.00000000000E+00 0.  1.
</event>
<event>
 8    1  0.1262344E-006  0.9118800E+02  0.7816164E-02  0.1184000E+00
        -11   -1    0    0    0    0  0.00000000000E+00  0.00000000000E+00  0.45593999997E+02  0.45594000000E+02  0.51100000000E-03 0. -1.
         11   -1    0    0    0    0 -0.00000000000E+00 -0.00000000000E+00 -0.45593999997E+02  0.45594000000E+02  0.51100000000E-03 0.  1.
         23    2    1    2    0    0  0.00000000000E+00  0.00000000000E+00  0.00000000000E+00  0.91188000000E+02  0.91188000000E+02 0.  0.
    9900012    2    3    3    0    0 -0.50149970373E+01 -0.34585592019E+02  0.11595967757E+02  0.54367084221E+02  0.40000000098E+02 0.  0.
        -12    1    3    3    0    0  0.50149970373E+01  0.34585592019E+02 -0.11595967757E+02  0.36820915779E+02  0.00000000000E+00 0.  1.
         11    1    4    4    0    0 -0.57173396678E+01 -0.25798388484E+02  0.19500994791E+02  0.32841035601E+02  0.51100000000E-03 0. -1.
        -11    1    4    4    0    0  0.28010568704E+01  0.27515737270E+01 -0.89281642981E+01  0.97534196855E+01  0.51100000000E-03 0.  1.
         12    1    4    4    0    0 -0.20987142400E+01 -0.11538777262E+02  0.10231372642E+01  0.11772628935E+02  0.00000000000E+00 0. -1.
</event>
<event>
 8    1  0.1262344E-006  0.9118800E+02  0.7816164E-02  0.1184000E+00
        -11   -1    0    0    0    0  0.00000000000E+00  0.00000000000E+00  0.45593999997E+02  0.45594000000E+02  0.51100000000E-03 0.  1.
         11   -1    0    0    0    0 -0.00000000000E+00 -0.00000000000E+00 -0.45593999997E+02  0.45594000000E+02  0.51100000000E-03 0. -1.
         23    2    1    2    0    0  0.17763568394E-14  0.00000000000E+00  0.71054273576E-14  0.91188000000E+02  0.91188000000E+02 0.  0.
    9900012    2    3    3    0    0  0.12418850376E+02 -0.11511341474E+02  0.32696193111E+02  0.54367083782E+02  0.39999999098E+02 0.  0.
         12    1    3    3    0    0 -0.12418850376E+02  0.11511341474E+02 -0.32696193111E+02  0.36820916218E+02  0.00000000000E+00 0. -1.
         11    1    4    4    0    0  0.10134065953E+02  0.49636578965E-01 -0.48602304542E+01  0.11239377067E+02  0.51100000000E-03 0. -1.
        -11    1    4    4    0    0  0.73686141488E+01 -0.13801930873E+02  0.27789373271E+02  0.31891049486E+02  0.51100000000E-03 0.  1.
        -12    1    4    4    0    0 -0.50838297262E+01  0.22409528199E+01  0.97670502942E+01  0.11236657229E+02  0.00000000000E+00 0.  1.
</event>
<event>
 8    1  0.1262344E-006  0.9118800E+02  0.7816164E-02  0.1184000E+00
        -11   -1    0    0    0    0  0.00000000000E+00  0.00000000000E+00  0.45593999997E+02  0.45594000000E+02  0.51100000000E-03 0.  1.
         11   -1    0    0    0    0 -0.00000000000E+00 -0.00000000000E+00 -0.45593999997E+02  0.45594000000E+02  0.51100000000E-03 0. -1.
         23    2    1    2    0    0 -0.71054273576E-14 -0.44408920985E-15  0.88817841970E-15  0.91188000000E+02  0.91188000000E+02 0.  0.
    9900012    2    3    3    0    0  0.36503130175E+02  0.16040626053E+01  0.45534105374E+01  0.54367013091E+02  0.39999837943E+02 0.  0.
        -12    1    3    3    0    0 -0.36503130175E+02 -0.16040626053E+01 -0.45534105374E+01  0.36820986909E+02  0.00000000000E+00 0.  1.
         11    1    4    4    0    0  0.20842717472E+02 -0.18442471196E+01 -0.47548787975E+01  0.21457609180E+02  0.51100000000E-03 0. -1.
        -11    1    4    4    0    0 -0.69464745897E+01  0.45056504034E+01  0.55501916254E+01  0.99678995843E+01  0.51100000000E-03 0.  1.
        -12    1    4    4    0    0  0.22606887293E+02 -0.10573406785E+01  0.37580977095E+01  0.22941504327E+02  0.00000000000E+00 0.  1.
</event>
<event>
 8    1  0.1262344E-006  0.9118800E+02  0.7816164E-02  0.1184000E+00
        -11   -1    0    0    0    0  0.00000000000E+00  0.00000000000E+00  0.45593999997E+02  0.45594000000E+02  0.51100000000E-03 0.  1.
         11   -1    0    0    0    0 -0.00000000000E+00 -0.00000000000E+00 -0.45593999997E+02  0.45594000000E+02  0.51100000000E-03 0. -1.
         23    2    1    2    0    0  0.00000000000E+00  0.00000000000E+00  0.00000000000E+00  0.91188000000E+02  0.91188000000E+02 0.  0.
    9900012    2    3    3    0    0 -0.32442484244E+02  0.46345309191E+01 -0.16786480696E+02  0.54367087533E+02  0.40000007648E+02 0.  0.
        -12    1    3    3    0    0  0.32442484244E+02 -0.46345309191E+01  0.16786480696E+02  0.36820912467E+02  0.00000000000E+00 0.  1.
         11    1    4    4    0    0 -0.35905044812E+01  0.18393973347E+01 -0.15958815257E+02  0.16460828948E+02  0.51100000000E-03 0. -1.
        -11    1    4    4    0    0 -0.28678629940E+02 -0.29408762628E+01 -0.68037550958E+01  0.29621000187E+02  0.51100000000E-03 0.  1.
        -12    1    4    4    0    0 -0.17334982321E+00  0.57360098472E+01  0.59760896569E+01  0.82852583977E+01  0.00000000000E+00 0.  1.
</event>
<event>
 8    1  0.1262344E-006  0.9118800E+02  0.7816164E-02  0.1184000E+00
        -11   -1    0    0    0    0  0.00000000000E+00  0.00000000000E+00  0.45593999997E+02  0.45594000000E+02  0.51100000000E-03 0. -1.
         11   -1    0    0    0    0 -0.00000000000E+00 -0.00000000000E+00 -0.45593999997E+02  0.45594000000E+02  0.51100000000E-03 0.  1.
         23    2    1    2    0    0 -0.35527136788E-14 -0.35527136788E-14  0.00000000000E+00  0.91188000000E+02  0.91188000000E+02 0.  0.
    9900012    2    3    3    0    0 -0.24056359234E+02 -0.19818223628E+02  0.19603819906E+02  0.54367079828E+02  0.39999990085E+02 0.  0.
        -12    1    3    3    0    0  0.24056359234E+02  0.19818223628E+02 -0.19603819906E+02  0.36820920172E+02  0.00000000000E+00 0.  1.
         11    1    4    4    0    0 -0.51729864552E+01  0.36605970150E+01  0.22892881953E+00  0.63413064930E+01  0.51100000000E-03 0. -1.
        -11    1    4    4    0    0 -0.15347863179E+01 -0.20389701345E+02  0.22197282676E+02  0.30179709217E+02  0.51100000000E-03 0.  1.
         12    1    4    4    0    0 -0.17348586461E+02 -0.30891192974E+01 -0.28223915887E+01  0.17846064118E+02  0.00000000000E+00 0. -1.
</event>
<event>
 8    1  0.1262344E-006  0.9118800E+02  0.7816164E-02  0.1184000E+00
        -11   -1    0    0    0    0  0.00000000000E+00  0.00000000000E+00  0.45593999997E+02  0.45594000000E+02  0.51100000000E-03 0.  1.
         11   -1    0    0    0    0 -0.00000000000E+00 -0.00000000000E+00 -0.45593999997E+02  0.45594000000E+02  0.51100000000E-03 0. -1.
         23    2    1    2    0    0  0.00000000000E+00 -0.35527136788E-14 -0.17763568394E-14  0.91188000000E+02  0.91188000000E+02 0.  0.
    9900012    2    3    3    0    0 -0.28810474470E+02 -0.21366564363E+02 -0.83190898918E+01  0.54367071597E+02  0.39999971319E+02 0.  0.
         12    1    3    3    0    0  0.28810474470E+02  0.21366564363E+02  0.83190898918E+01  0.36820928403E+02  0.00000000000E+00 0. -1.
         11    1    4    4    0    0 -0.13567972480E+02 -0.66634457879E+01 -0.32978205034E+01  0.15471490145E+02  0.51100000000E-03 0. -1.
        -11    1    4    4    0    0 -0.24773520295E+02 -0.14116857352E+02 -0.99021158742E+00  0.28530571122E+02  0.51100000000E-03 0.  1.
         12    1    4    4    0    0  0.95310183046E+01 -0.58626122313E+00 -0.40310578010E+01  0.10365010330E+02  0.00000000000E+00 0. -1.
</event>
<event>
 8    1  0.1262344E-006  0.9118800E+02  0.7816164E-02  0.1184000E+00
        -11   -1    0    0    0    0  0.00000000000E+00  0.00000000000E+00  0.45593999997E+02  0.45594000000E+02  0.51100000000E-03 0. -1.
         11   -1    0    0    0    0 -0.00000000000E+00 -0.00000000000E+00 -0.45593999997E+02  0.45594000000E+02  0.51100000000E-03 0.  1.
         23    2    1    2    0    0 -0.53290705182E-14  0.88817841970E-15 -0.71054273576E-14  0.91188000000E+02  0.91188000000E+02 0.  0.
    9900012    2    3    3    0    0 -0.11359636279E+02 -0.33198436860E+01  0.34867218125E+02  0.54367006012E+02  0.39999821804E+02 0.  0.
        -12    1    3    3    0    0  0.11359636279E+02  0.33198436860E+01 -0.34867218125E+02  0.36820993988E+02  0.00000000000E+00 0.  1.
         11    1    4    4    0    0  0.69026490665E+01  0.20652005579E+01  0.19118937931E+02  0.20431480743E+02  0.51100000000E-03 0. -1.
        -11    1    4    4    0    0  0.25069892010E+01  0.37326794558E+01 -0.22047825384E+01  0.50078894832E+01  0.51100000000E-03 0.  1.
         12    1    4    4    0    0 -0.20769274547E+02 -0.91177236997E+01  0.17953062733E+02  0.28927635786E+02  0.00000000000E+00 0. -1.
</event>
<event>
 8    1  0.1262344E-006  0.9118800E+02  0.7816164E-02  0.1184000E+00
        -11   -1    0    0    0    0  0.00000000000E+00  0.00000000000E+00  0.45593999997E+02  0.45594000000E+02  0.51100000000E-03 0.  1.
         11   -1    0    0    0    0 -0.00000000000E+00 -0.00000000000E+00 -0.45593999997E+02  0.45594000000E+02  0.51100000000E-03 0. -1.
         23    2    1    2    0    0  0.38857805862E-15  0.17763568394E-14  0.00000000000E+00  0.91188000000E+02  0.91188000000E+02 0.  0.
    9900012    2    3    3    0    0 -0.31101170930E+00 -0.14911756195E+02 -0.33664905160E+02  0.54367040744E+02  0.39999900983E+02 0.  0.
        -12    1    3    3    0    0  0.31101170930E+00  0.14911756195E+02  0.33664905160E+02  0.36820959256E+02  0.00000000000E+00 0.  1.
         11    1    4    4    0    0 -0.57108434730E+01  0.32116542304E+01 -0.18464402206E+02  0.19592411928E+02  0.51100000000E-03 0. -1.
        -11    1    4    4    0    0 -0.61428251756E+01  0.12136299006E+01 -0.97777793906E+01  0.11610864255E+02  0.51100000000E-03 0.  1.
        -12    1    4    4    0    0  0.11542656939E+02 -0.19337040326E+02 -0.54227235639E+01  0.23163764561E+02  0.00000000000E+00 0.  1.
</event>
<event>
 8    1  0.1262344E-006  0.9118800E+02  0.7816164E-02  0.1184000E+00
        -11   -1    0    0    0    0  0.00000000000E+00  0.00000000000E+00  0.45593999997E+02  0.45594000000E+02  0.51100000000E-03 0.  1.
         11   -1    0    0    0    0 -0.00000000000E+00 -0.00000000000E+00 -0.45593999997E+02  0.45594000000E+02  0.51100000000E-03 0. -1.
         23    2    1    2    0    0 -0.17763568394E-14  0.71054273576E-14  0.00000000000E+00  0.91188000000E+02  0.91188000000E+02 0.  0.
    9900012    2    3    3    0    0  0.52382046862E+01 -0.34108450838E+02 -0.12843453170E+02  0.54367088873E+02  0.40000010704E+02 0.  0.
        -12    1    3    3    0    0 -0.52382046862E+01  0.34108450838E+02  0.12843453170E+02  0.36820911127E+02  0.00000000000E+00 0.  1.
         11    1    4    4    0    0  0.15030379077E+01 -0.25979468270E+02 -0.12730641315E+02  0.28970003850E+02  0.51100000000E-03 0. -1.
        -11    1    4    4    0    0 -0.82945885732E+01  0.27421457662E+01  0.22258591914E+01  0.90152100587E+01  0.51100000000E-03 0.  1.
        -12    1    4    4    0    0  0.12029755352E+02 -0.10871128334E+02 -0.23386710464E+01  0.16381874964E+02  0.00000000000E+00 0.  1.
</event>
<event>
 8    1  0.1262344E-006  0.9118800E+02  0.7816164E-02  0.1184000E+00
        -11   -1    0    0    0    0  0.00000000000E+00  0.00000000000E+00  0.45593999997E+02  0.45594000000E+02  0.51100000000E-03 0.  1.
         11   -1    0    0    0    0 -0.00000000000E+00 -0.00000000000E+00 -0.45593999997E+02  0.45594000000E+02  0.51100000000E-03 0. -1.
         23    2    1    2    0    0  0.00000000000E+00  0.00000000000E+00  0.00000000000E+00  0.91188000000E+02  0.91188000000E+02 0.  0.
    9900012    2    3    3    0    0  0.83062187236E+01  0.33191572922E+02  0.13605372917E+02  0.54367082647E+02  0.39999996510E+02 0.  0.
         12    1    3    3    0    0 -0.83062187236E+01 -0.33191572922E+02 -0.13605372917E+02  0.36820917353E+02  0.00000000000E+00 0. -1.
         11    1    4    4    0    0  0.14882414738E+02  0.12537948712E+02 -0.36253751832E+00  0.19463243821E+02  0.51100000000E-03 0. -1.
        -11    1    4    4    0    0 -0.14412908096E+02  0.17247618323E+02  0.61038122608E+01  0.23290959232E+02  0.51100000000E-03 0.  1.
         12    1    4    4    0    0  0.78367120815E+01  0.34060058874E+01  0.78640981747E+01  0.11612879594E+02  0.00000000000E+00 0. -1.
</event>
<event>
 8    1  0.1262344E-006  0.9118800E+02  0.7816164E-02  0.1184000E+00
        -11   -1    0    0    0    0  0.00000000000E+00  0.00000000000E+00  0.45593999997E+02  0.45594000000E+02  0.51100000000E-03 0.  1.
         11   -1    0    0    0    0 -0.00000000000E+00 -0.00000000000E+00 -0.45593999997E+02  0.45594000000E+02  0.51100000000E-03 0. -1.
         23    2    1    2    0    0  0.00000000000E+00  0.00000000000E+00 -0.66613381478E-15  0.91188000000E+02  0.91188000000E+02 0.  0.
    9900012    2    3    3    0    0 -0.26559521393E+02 -0.25451770481E+02 -0.16067206869E+01  0.54367050140E+02  0.39999922405E+02 0.  0.
        -12    1    3    3    0    0  0.26559521393E+02  0.25451770481E+02  0.16067206869E+01  0.36820949860E+02  0.00000000000E+00 0.  1.
         11    1    4    4    0    0 -0.15743562405E+02 -0.36483245331E+01  0.13403721398E+02  0.20995946673E+02  0.51100000000E-03 0. -1.
        -11    1    4    4    0    0  0.39186229244E+01 -0.43801556422E+01  0.31212130538E+00  0.58854727120E+01  0.51100000000E-03 0.  1.
         12    1    4    4    0    0 -0.14734581912E+02 -0.17423290305E+02 -0.15322563390E+02  0.27485630756E+02  0.00000000000E+00 0. -1.
</event>
<event>
 8    1  0.1262344E-006  0.9118800E+02  0.7816164E-02  0.1184000E+00
        -11   -1    0    0    0    0  0.00000000000E+00  0.00000000000E+00  0.45593999997E+02  0.45594000000E+02  0.51100000000E-03 0.  1.
         11   -1    0    0    0    0 -0.00000000000E+00 -0.00000000000E+00 -0.45593999997E+02  0.45594000000E+02  0.51100000000E-03 0. -1.
         23    2    1    2    0    0 -0.31086244690E-14 -0.88817841970E-15  0.00000000000E+00  0.91188000000E+02  0.91188000000E+02 0.  0.
    9900012    2    3    3    0    0 -0.17773331665E+01 -0.42851662992E+01 -0.36527482413E+02  0.54367101928E+02  0.40000040464E+02 0.  0.
        -12    1    3    3    0    0  0.17773331665E+01  0.42851662992E+01  0.36527482413E+02  0.36820898072E+02  0.00000000000E+00 0.  1.
         11    1    4    4    0    0  0.17806966844E+02 -0.56707645406E+01 -0.10568142122E+02  0.21469309882E+02  0.51100000000E-03 0. -1.
        -11    1    4    4    0    0 -0.10647443229E+02 -0.14245309007E+01 -0.12245547528E+02  0.16289590852E+02  0.51100000000E-03 0.  1.
         12    1    4    4    0    0 -0.89368567811E+01  0.28101291421E+01 -0.13713792764E+02  0.16608201194E+02  0.00000000000E+00 0. -1.
</event>
<event>
 8    1  0.1262344E-006  0.9118800E+02  0.7816164E-02  0.1184000E+00
        -11   -1    0    0    0    0  0.00000000000E+00  0.00000000000E+00  0.45593999997E+02  0.45594000000E+02  0.51100000000E-03 0. -1.
         11   -1    0    0    0    0 -0.00000000000E+00 -0.00000000000E+00 -0.45593999997E+02  0.45594000000E+02  0.51100000000E-03 0.  1.
         23    2    1    2    0    0  0.00000000000E+00 -0.35527136788E-14  0.66613381478E-15  0.91188000000E+02  0.91188000000E+02 0.  0.
    9900012    2    3    3    0    0  0.24779641058E+02 -0.27218695340E+02  0.94456327274E+00  0.54367079496E+02  0.39999989327E+02 0.  0.
        -12    1    3    3    0    0 -0.24779641058E+02  0.27218695340E+02 -0.94456327274E+00  0.36820920504E+02  0.00000000000E+00 0.  1.
         11    1    4    4    0    0 -0.16127398351E+01  0.22723311373E+01  0.40584149515E+00  0.28158704078E+01  0.51100000000E-03 0.  1.
        -11    1    4    4    0    0  0.28041388173E+02 -0.10951002348E+02 -0.78867632255E+01  0.31119847968E+02  0.51100000000E-03 0. -1.
         12    1    4    4    0    0 -0.16490072794E+01 -0.18540024129E+02  0.84254850030E+01  0.20431361120E+02  0.00000000000E+00 0. -1.
</event>
<event>
 8    1  0.1262344E-006  0.9118800E+02  0.7816164E-02  0.1184000E+00
        -11   -1    0    0    0    0  0.00000000000E+00  0.00000000000E+00  0.45593999997E+02  0.45594000000E+02  0.51100000000E-03 0.  1.
         11   -1    0    0    0    0 -0.00000000000E+00 -0.00000000000E+00 -0.45593999997E+02  0.45594000000E+02  0.51100000000E-03 0. -1.
         23    2    1    2    0    0  0.35527136788E-14 -0.71054273576E-14  0.00000000000E+00  0.91188000000E+02  0.91188000000E+02 0.  0.
    9900012    2    3    3    0    0 -0.97319912978E+01  0.32798015938E+02 -0.13614727317E+02  0.54367050746E+02  0.39999923785E+02 0.  0.
        -12    1    3    3    0    0  0.97319912978E+01 -0.32798015938E+02  0.13614727317E+02  0.36820949254E+02  0.00000000000E+00 0.  1.
         11    1    4    4    0    0  0.64802575180E+01  0.16906886508E+02 -0.85007708292E+01  0.20002491191E+02  0.51100000000E-03 0. -1.
        -11    1    4    4    0    0 -0.21831147036E+01 -0.68753898207E+01 -0.16419760169E+01  0.73981795394E+01  0.51100000000E-03 0.  1.
         12    1    4    4    0    0 -0.14029134112E+02  0.22766519251E+02 -0.34719804704E+01  0.26966380015E+02  0.00000000000E+00 0. -1.
</event>
<event>
 8    1  0.1262344E-006  0.9118800E+02  0.7816164E-02  0.1184000E+00
        -11   -1    0    0    0    0  0.00000000000E+00  0.00000000000E+00  0.45593999997E+02  0.45594000000E+02  0.51100000000E-03 0. -1.
         11   -1    0    0    0    0 -0.00000000000E+00 -0.00000000000E+00 -0.45593999997E+02  0.45594000000E+02  0.51100000000E-03 0.  1.
         23    2    1    2    0    0 -0.35527136788E-14 -0.35527136788E-14 -0.17763568394E-14  0.91188000000E+02  0.91188000000E+02 0.  0.
    9900012    2    3    3    0    0 -0.28983611432E+02  0.18008863573E+02 -0.13835139260E+02  0.54367082342E+02  0.39999995815E+02 0.  0.
        -12    1    3    3    0    0  0.28983611432E+02 -0.18008863573E+02  0.13835139260E+02  0.36820917658E+02  0.00000000000E+00 0.  1.
         11    1    4    4    0    0 -0.45276968248E+01 -0.10886483342E+01 -0.15306544624E+01  0.49018462927E+01  0.51100000000E-03 0. -1.
        -11    1    4    4    0    0 -0.88237812533E+01 -0.43615306642E+01 -0.18176007366E+02  0.20670009902E+02  0.51100000000E-03 0.  1.
         12    1    4    4    0    0 -0.15632133354E+02  0.23459042571E+02  0.58715225684E+01  0.28795226147E+02  0.00000000000E+00 0. -1.
</event>
<event>
 8    1  0.1262344E-006  0.9118800E+02  0.7816164E-02  0.1184000E+00
        -11   -1    0    0    0    0  0.00000000000E+00  0.00000000000E+00  0.45593999997E+02  0.45594000000E+02  0.51100000000E-03 0.  1.
         11   -1    0    0    0    0 -0.00000000000E+00 -0.00000000000E+00 -0.45593999997E+02  0.45594000000E+02  0.51100000000E-03 0. -1.
         23    2    1    2    0    0  0.00000000000E+00  0.00000000000E+00  0.00000000000E+00  0.91188000000E+02  0.91188000000E+02 0.  0.
    9900012    2    3    3    0    0  0.26440968704E+02 -0.19138931196E+02 -0.17039802270E+02  0.54367104102E+02  0.40000045421E+02 0.  0.
         12    1    3    3    0    0 -0.26440968704E+02  0.19138931196E+02  0.17039802270E+02  0.36820895898E+02  0.00000000000E+00 0. -1.
         11    1    4    4    0    0 -0.71363290505E+01 -0.19826550519E+01 -0.10076716175E+01  0.74748589098E+01  0.51100000000E-03 0. -1.
        -11    1    4    4    0    0  0.23871964657E+02 -0.22515732324E+02 -0.13715178751E+02  0.35565925084E+02  0.51100000000E-03 0.  1.
        -12    1    4    4    0    0  0.97053330975E+01  0.53594561796E+01 -0.23169519013E+01  0.11326320108E+02  0.00000000000E+00 0.  1.
</event>
<event>
 8    1  0.1262344E-006  0.9118800E+02  0.7816164E-02  0.1184000E+00
        -11   -1    0    0    0    0  0.00000000000E+00  0.00000000000E+00  0.45593999997E+02  0.45594000000E+02  0.51100000000E-03 0. -1.
         11   -1    0    0    0    0 -0.00000000000E+00 -0.00000000000E+00 -0.45593999997E+02  0.45594000000E+02  0.51100000000E-03 0.  1.
         23    2    1    2    0    0 -0.33306690739E-15  0.00000000000E+00 -0.35527136788E-14  0.91188000000E+02  0.91188000000E+02 0.  0.
    9900012    2    3    3    0    0  0.38098904819E+00  0.27818190636E+02  0.24120150765E+02  0.54367101643E+02  0.40000039815E+02 0.  0.
        -12    1    3    3    0    0 -0.38098904819E+00 -0.27818190636E+02 -0.24120150765E+02  0.36820898357E+02  0.00000000000E+00 0.  1.
         11    1    4    4    0    0 -0.56196208804E+00  0.20214689857E+02  0.29365377522E+01  0.20434596684E+02  0.51100000000E-03 0. -1.
        -11    1    4    4    0    0 -0.54407418407E+01 -0.69944900591E+00 -0.39130395541E+01  0.67381584652E+01  0.51100000000E-03 0.  1.
         12    1    4    4    0    0  0.63836929769E+01  0.83029497845E+01  0.25096652567E+02  0.27194346494E+02  0.00000000000E+00 0. -1.
</event>
<event>
 8    1  0.1262344E-006  0.9118800E+02  0.7816164E-02  0.1184000E+00
        -11   -1    0    0    0    0  0.00000000000E+00  0.00000000000E+00  0.45593999997E+02  0.45594000000E+02  0.51100000000E-03 0.  1.
         11   -1    0    0    0    0 -0.00000000000E+00 -0.00000000000E+00 -0.45593999997E+02  0.45594000000E+02  0.51100000000E-03 0. -1.
         23    2    1    2    0    0  0.00000000000E+00 -0.35527136788E-14  0.35527136788E-14  0.91188000000E+02  0.91188000000E+02 0.  0.
    9900012    2    3    3    0    0  0.18038264495E+02  0.18056955238E+02 -0.26539529159E+02  0.54367092536E+02  0.40000019055E+02 0.  0.
        -12    1    3    3    0    0 -0.18038264495E+02 -0.18056955238E+02  0.26539529159E+02  0.36820907464E+02  0.00000000000E+00 0.  1.
         11    1    4    4    0    0  0.16496727978E+02 -0.16057521721E+00 -0.18522942017E+02  0.24804580215E+02  0.51100000000E-03 0. -1.
        -11    1    4    4    0    0  0.10222442806E+02  0.69873187530E+01 -0.90405308267E+01  0.15331410834E+02  0.51100000000E-03 0.  1.
        -12    1    4    4    0    0 -0.86809062891E+01  0.11230211702E+02  0.10239436849E+01  0.14231101488E+02  0.00000000000E+00 0.  1.
</event>
<event>
 8    1  0.1262344E-006  0.9118800E+02  0.7816164E-02  0.1184000E+00
        -11   -1    0    0    0    0  0.00000000000E+00  0.00000000000E+00  0.45593999997E+02  0.45594000000E+02  0.51100000000E-03 0. -1.
         11   -1    0    0    0    0 -0.00000000000E+00 -0.00000000000E+00 -0.45593999997E+02  0.45594000000E+02  0.51100000000E-03 0.  1.
         23    2    1    2    0    0  0.00000000000E+00  0.00000000000E+00  0.00000000000E+00  0.91188000000E+02  0.91188000000E+02 0.  0.
    9900012    2    3    3    0    0 -0.20573297037E+02  0.22046008580E+02 -0.21130326853E+02  0.54367112474E+02  0.40000064507E+02 0.  0.
         12    1    3    3    0    0  0.20573297037E+02 -0.22046008580E+02  0.21130326853E+02  0.36820887526E+02  0.00000000000E+00 0. -1.
         11    1    4    4    0    0  0.57045850176E+00  0.47507185171E+00  0.25155049753E+01  0.26227622287E+01  0.51100000000E-03 0. -1.
        -11    1    4    4    0    0 -0.52898940387E+01 -0.48038352156E+01  0.57618681715E+01  0.91792666813E+01  0.51100000000E-03 0.  1.
        -12    1    4    4    0    0 -0.15853861500E+02  0.26374771944E+02 -0.29407699999E+02  0.42565083564E+02  0.00000000000E+00 0.  1.
</event>
<event>
 8    1  0.1262344E-006  0.9118800E+02  0.7816164E-02  0.1184000E+00
        -11   -1    0    0    0    0  0.00000000000E+00  0.00000000000E+00  0.45593999997E+02  0.45594000000E+02  0.51100000000E-03 0.  1.
         11   -1    0    0    0    0 -0.00000000000E+00 -0.00000000000E+00 -0.45593999997E+02  0.45594000000E+02  0.51100000000E-03 0. -1.
         23    2    1    2    0    0  0.00000000000E+00  0.00000000000E+00 -0.88817841970E-15  0.91188000000E+02  0.91188000000E+02 0.  0.
    9900012    2    3    3    0    0 -0.21954479808E+02  0.29041681379E+02  0.55099371014E+01  0.54367111257E+02  0.40000061733E+02 0.  0.
         12    1    3    3    0    0  0.21954479808E+02 -0.29041681379E+02 -0.55099371014E+01  0.36820888743E+02  0.00000000000E+00 0. -1.
         11    1    4    4    0    0 -0.11930075032E+02 -0.19242943658E+01 -0.43101634114E+01  0.12829930162E+02  0.51100000000E-03 0. -1.
        -11    1    4    4    0    0 -0.12123179005E+02  0.46862804304E+01 -0.10086623784E+01  0.13036490844E+02  0.51100000000E-03 0.  1.
        -12    1    4    4    0    0  0.20987742291E+01  0.26279695314E+02  0.10828762891E+02  0.28500690252E+02  0.00000000000E+00 0.  1.
</event>
<event>
 8    1  0.1262344E-006  0.9118800E+02  0.7816164E-02  0.1184000E+00
        -11   -1    0    0    0    0  0.00000000000E+00  0.00000000000E+00  0.45593999997E+02  0.45594000000E+02  0.51100000000E-03 0.  1.
         11   -1    0    0    0    0 -0.00000000000E+00 -0.00000000000E+00 -0.45593999997E+02  0.45594000000E+02  0.51100000000E-03 0. -1.
         23    2    1    2    0    0  0.00000000000E+00  0.00000000000E+00 -0.17763568394E-14  0.91188000000E+02  0.91188000000E+02 0.  0.
    9900012    2    3    3    0    0 -0.32291926855E+02 -0.14438498710E+02 -0.10224502441E+02  0.54367092418E+02  0.40000018785E+02 0.  0.
        -12    1    3    3    0    0  0.32291926855E+02  0.14438498710E+02  0.10224502441E+02  0.36820907582E+02  0.00000000000E+00 0.  1.
         11    1    4    4    0    0 -0.28922637916E+02 -0.14162913512E+02 -0.20912087415E+02  0.38398209639E+02  0.51100000000E-03 0. -1.
        -11    1    4    4    0    0 -0.26313739228E+01  0.25917615430E+01 -0.10691571509E+01  0.38450557723E+01  0.51100000000E-03 0.  1.
        -12    1    4    4    0    0 -0.73791501595E+00 -0.28673467417E+01  0.11756742125E+02  0.12123827007E+02  0.00000000000E+00 0.  1.
</event>
<event>
 8    1  0.1262344E-006  0.9118800E+02  0.7816164E-02  0.1184000E+00
        -11   -1    0    0    0    0  0.00000000000E+00  0.00000000000E+00  0.45593999997E+02  0.45594000000E+02  0.51100000000E-03 0.  1.
         11   -1    0    0    0    0 -0.00000000000E+00 -0.00000000000E+00 -0.45593999997E+02  0.45594000000E+02  0.51100000000E-03 0. -1.
         23    2    1    2    0    0  0.00000000000E+00  0.00000000000E+00  0.17763568394E-14  0.91188000000E+02  0.91188000000E+02 0.  0.
    9900012    2    3    3    0    0  0.14848755473E+02 -0.32103152901E+02  0.10231303623E+02  0.54367115450E+02  0.40000071290E+02 0.  0.
         12    1    3    3    0    0 -0.14848755473E+02  0.32103152901E+02 -0.10231303623E+02  0.36820884550E+02  0.00000000000E+00 0. -1.
         11    1    4    4    0    0 -0.36956699775E+01 -0.17724380110E+01  0.70588912593E+00  0.41590615293E+01  0.51100000000E-03 0. -1.
        -11    1    4    4    0    0  0.40341261710E+01  0.73652051785E+00 -0.99587850751E+01  0.10770052779E+02  0.51100000000E-03 0.  1.
        -12    1    4    4    0    0  0.14510299280E+02 -0.31067235407E+02  0.19484199572E+02  0.39438001141E+02  0.00000000000E+00 0.  1.
</event>
<event>
 8    1  0.1262344E-006  0.9118800E+02  0.7816164E-02  0.1184000E+00
        -11   -1    0    0    0    0  0.00000000000E+00  0.00000000000E+00  0.45593999997E+02  0.45594000000E+02  0.51100000000E-03 0. -1.
         11   -1    0    0    0    0 -0.00000000000E+00 -0.00000000000E+00 -0.45593999997E+02  0.45594000000E+02  0.51100000000E-03 0.  1.
         23    2    1    2    0    0  0.00000000000E+00  0.00000000000E+00  0.00000000000E+00  0.91188000000E+02  0.91188000000E+02 0.  0.
    9900012    2    3    3    0    0  0.16618278133E+02  0.15553654039E+02 -0.28942969629E+02  0.54367098150E+02  0.40000031854E+02 0.  0.
         12    1    3    3    0    0 -0.16618278133E+02 -0.15553654039E+02  0.28942969629E+02  0.36820901850E+02  0.00000000000E+00 0. -1.
         11    1    4    4    0    0  0.14821367726E+02  0.10863773726E+02 -0.37019228463E+02  0.41329381765E+02  0.51100000000E-03 0. -1.
        -11    1    4    4    0    0  0.50347791206E+00  0.68823761618E+01  0.33531675318E+01  0.76723089352E+01  0.51100000000E-03 0.  1.
         12    1    4    4    0    0  0.12934324949E+01 -0.21924958488E+01  0.47230913017E+01  0.53654074505E+01  0.00000000000E+00 0. -1.
</event>
<event>
 8    1  0.1262344E-006  0.9118800E+02  0.7816164E-02  0.1184000E+00
        -11   -1    0    0    0    0  0.00000000000E+00  0.00000000000E+00  0.45593999997E+02  0.45594000000E+02  0.51100000000E-03 0.  1.
         11   -1    0    0    0    0 -0.00000000000E+00 -0.00000000000E+00 -0.45593999997E+02  0.45594000000E+02  0.51100000000E-03 0. -1.
         23    2    1    2    0    0  0.00000000000E+00 -0.88817841970E-15  0.00000000000E+00  0.91188000000E+02  0.91188000000E+02 0.  0.
    9900012    2    3    3    0    0 -0.28906404506E+02  0.52688226916E+01 -0.22190995194E+02  0.54367068701E+02  0.39999964718E+02 0.  0.
        -12    1    3    3    0    0  0.28906404506E+02 -0.52688226916E+01  0.22190995194E+02  0.36820931299E+02  0.00000000000E+00 0.  1.
         11    1    4    4    0    0 -0.15384707339E+02  0.11756709365E+01  0.14421109323E+01  0.15496809551E+02  0.51100000000E-03 0. -1.
        -11    1    4    4    0    0 -0.15893356938E+02 -0.14724033624E+01 -0.16228471315E+01  0.16043702799E+02  0.51100000000E-03 0.  1.
         12    1    4    4    0    0  0.23716597716E+01  0.55655551174E+01 -0.22010258995E+02  0.22826556351E+02  0.00000000000E+00 0. -1.
</event>
<event>
 8    1  0.1262344E-006  0.9118800E+02  0.7816164E-02  0.1184000E+00
        -11   -1    0    0    0    0  0.00000000000E+00  0.00000000000E+00  0.45593999997E+02  0.45594000000E+02  0.51100000000E-03 0.  1.
         11   -1    0    0    0    0 -0.00000000000E+00 -0.00000000000E+00 -0.45593999997E+02  0.45594000000E+02  0.51100000000E-03 0. -1.
         23    2    1    2    0    0 -0.17763568394E-14  0.13322676296E-14  0.00000000000E+00  0.91188000000E+02  0.91188000000E+02 0.  0.
    9900012    2    3    3    0    0  0.15950304477E+02  0.92193863510E+00  0.33174049126E+02  0.54367085846E+02  0.40000003803E+02 0.  0.
         12    1    3    3    0    0 -0.15950304477E+02 -0.92193863510E+00 -0.33174049126E+02  0.36820914154E+02  0.00000000000E+00 0. -1.
         11    1    4    4    0    0  0.84188952184E+01 -0.12459258915E+02  0.25134994288E+02  0.29289569262E+02  0.51100000000E-03 0. -1.
        -11    1    4    4    0    0  0.30456034605E+01 -0.34151020895E+01  0.60405129741E+01  0.75780221675E+01  0.51100000000E-03 0.  1.
         12    1    4    4    0    0  0.44858057976E+01  0.16796299640E+02  0.19985418635E+01  0.17499494416E+02  0.00000000000E+00 0. -1.
</event>
<event>
 8    1  0.1262344E-006  0.9118800E+02  0.7816164E-02  0.1184000E+00
        -11   -1    0    0    0    0  0.00000000000E+00  0.00000000000E+00  0.45593999997E+02  0.45594000000E+02  0.51100000000E-03 0.  1.
         11   -1    0    0    0    0 -0.00000000000E+00 -0.00000000000E+00 -0.45593999997E+02  0.45594000000E+02  0.51100000000E-03 0. -1.
         23    2    1    2    0    0  0.00000000000E+00 -0.71054273576E-14 -0.35527136788E-14  0.91188000000E+02  0.91188000000E+02 0.  0.
    9900012    2    3    3    0    0  0.90522567311E+01  0.19096501306E+02  0.30152284226E+02  0.54367082601E+02  0.39999996406E+02 0.  0.
         12    1    3    3    0    0 -0.90522567311E+01 -0.19096501306E+02 -0.30152284226E+02  0.36820917399E+02  0.00000000000E+00 0. -1.
         11    1    4    4    0    0 -0.12045984947E+01 -0.27967746583E+01 -0.28765618421E+01  0.41889872661E+01  0.51100000000E-03 0. -1.
        -11    1    4    4    0    0 -0.98467413522E+01  0.40153545285E+01  0.11983246619E+02  0.16021223019E+02  0.51100000000E-03 0.  1.
         12    1    4    4    0    0  0.20103596578E+02  0.17877921436E+02  0.21045599449E+02  0.34156872316E+02  0.00000000000E+00 0. -1.
</event>
<event>
 8    1  0.1262344E-006  0.9118800E+02  0.7816164E-02  0.1184000E+00
        -11   -1    0    0    0    0  0.00000000000E+00  0.00000000000E+00  0.45593999997E+02  0.45594000000E+02  0.51100000000E-03 0.  1.
         11   -1    0    0    0    0 -0.00000000000E+00 -0.00000000000E+00 -0.45593999997E+02  0.45594000000E+02  0.51100000000E-03 0. -1.
         23    2    1    2    0    0  0.44408920985E-15 -0.71054273576E-14  0.17763568394E-14  0.91188000000E+02  0.91188000000E+02 0.  0.
    9900012    2    3    3    0    0 -0.30255335407E+01  0.36542911604E+02 -0.33529056369E+01  0.54367079073E+02  0.39999988362E+02 0.  0.
        -12    1    3    3    0    0  0.30255335407E+01 -0.36542911604E+02  0.33529056369E+01  0.36820920927E+02  0.00000000000E+00 0.  1.
         11    1    4    4    0    0  0.96171602477E+01  0.10860725426E+02  0.27471709400E+01  0.14764554732E+02  0.51100000000E-03 0. -1.
        -11    1    4    4    0    0  0.25159857426E+01 -0.36604492433E+01  0.29816903262E+01  0.53497243277E+01  0.51100000000E-03 0.  1.
         12    1    4    4    0    0 -0.15158679531E+02  0.29342635422E+02 -0.90817669031E+01  0.34252800012E+02  0.00000000000E+00 0. -1.
</event>
<event>
 8    1  0.1262344E-006  0.9118800E+02  0.7816164E-02  0.1184000E+00
        -11   -1    0    0    0    0  0.00000000000E+00  0.00000000000E+00  0.45593999997E+02  0.45594000000E+02  0.51100000000E-03 0. -1.
         11   -1    0    0    0    0 -0.00000000000E+00 -0.00000000000E+00 -0.45593999997E+02  0.45594000000E+02  0.51100000000E-03 0.  1.
         23    2    1    2    0    0 -0.88817841970E-15  0.00000000000E+00  0.35527136788E-14  0.91188000000E+02  0.91188000000E+02 0.  0.
    9900012    2    3    3    0    0  0.77052204243E+01 -0.21773017433E+02  0.28676549766E+02  0.54367092673E+02  0.40000019366E+02 0.  0.
        -12    1    3    3    0    0 -0.77052204243E+01  0.21773017433E+02 -0.28676549766E+02  0.36820907327E+02  0.00000000000E+00 0.  1.
         11    1    4    4    0    0  0.63626302052E+01 -0.10463104376E+02  0.11257061950E+02  0.16633732603E+02  0.51100000000E-03 0. -1.
        -11    1    4    4    0    0  0.16396350614E+01 -0.19495962599E+02  0.12467676760E+01  0.19604473742E+02  0.51100000000E-03 0.  1.
        -12    1    4    4    0    0 -0.29704484228E+00  0.81860495420E+01  0.16172720140E+02  0.18128886327E+02  0.00000000000E+00 0.  1.
</event>
<event>
 8    1  0.1262344E-006  0.9118800E+02  0.7816164E-02  0.1184000E+00
        -11   -1    0    0    0    0  0.00000000000E+00  0.00000000000E+00  0.45593999997E+02  0.45594000000E+02  0.51100000000E-03 0. -1.
         11   -1    0    0    0    0 -0.00000000000E+00 -0.00000000000E+00 -0.45593999997E+02  0.45594000000E+02  0.51100000000E-03 0.  1.
         23    2    1    2    0    0  0.35527136788E-14  0.00000000000E+00  0.88817841970E-15  0.91188000000E+02  0.91188000000E+02 0.  0.
    9900012    2    3    3    0    0 -0.25562826355E+02  0.25906664330E+02 -0.55826829695E+01  0.54367086145E+02  0.40000004486E+02 0.  0.
         12    1    3    3    0    0  0.25562826355E+02 -0.25906664330E+02  0.55826829695E+01  0.36820913855E+02  0.00000000000E+00 0. -1.
         11    1    4    4    0    0 -0.79116995341E+01 -0.41429246316E+00 -0.30550743783E+01  0.84911782151E+01  0.51100000000E-03 0. -1.
        -11    1    4    4    0    0 -0.18502180636E+02  0.25210627477E+02 -0.14040103737E+02  0.34278724295E+02  0.51100000000E-03 0.  1.
         12    1    4    4    0    0  0.85105381548E+00  0.11103293164E+01  0.11512495146E+02  0.11597183635E+02  0.00000000000E+00 0. -1.
</event>
<event>
 8    1  0.1262344E-006  0.9118800E+02  0.7816164E-02  0.1184000E+00
        -11   -1    0    0    0    0  0.00000000000E+00  0.00000000000E+00  0.45593999997E+02  0.45594000000E+02  0.51100000000E-03 0.  1.
         11   -1    0    0    0    0 -0.00000000000E+00 -0.00000000000E+00 -0.45593999997E+02  0.45594000000E+02  0.51100000000E-03 0. -1.
         23    2    1    2    0    0 -0.17763568394E-14  0.00000000000E+00  0.00000000000E+00  0.91188000000E+02  0.91188000000E+02 0.  0.
    9900012    2    3    3    0    0 -0.84666001768E+01 -0.34716279350E+02 -0.88813958517E+01  0.54367047232E+02  0.39999915775E+02 0.  0.
        -12    1    3    3    0    0  0.84666001768E+01  0.34716279350E+02  0.88813958517E+01  0.36820952768E+02  0.00000000000E+00 0.  1.
         11    1    4    4    0    0  0.70319271370E+00 -0.17193046954E+02 -0.15754540424E+02  0.23330256917E+02  0.51100000000E-03 0. -1.
        -11    1    4    4    0    0  0.20774855503E+01 -0.11432552697E+02 -0.58383420629E+01  0.13004054971E+02  0.51100000000E-03 0.  1.
        -12    1    4    4    0    0 -0.11247278441E+02 -0.60906796991E+01  0.12711486636E+02  0.18032735345E+02  0.00000000000E+00 0.  1.
</event>
<event>
 8    1  0.1262344E-006  0.9118800E+02  0.7816164E-02  0.1184000E+00
        -11   -1    0    0    0    0  0.00000000000E+00  0.00000000000E+00  0.45593999997E+02  0.45594000000E+02  0.51100000000E-03 0. -1.
         11   -1    0    0    0    0 -0.00000000000E+00 -0.00000000000E+00 -0.45593999997E+02  0.45594000000E+02  0.51100000000E-03 0.  1.
         23    2    1    2    0    0 -0.35527136788E-14 -0.35527136788E-14  0.00000000000E+00  0.91188000000E+02  0.91188000000E+02 0.  0.
    9900012    2    3    3    0    0 -0.18301105003E+02  0.25873782823E+02  0.18745594080E+02  0.54367076882E+02  0.39999983367E+02 0.  0.
        -12    1    3    3    0    0  0.18301105003E+02 -0.25873782823E+02 -0.18745594080E+02  0.36820923118E+02  0.00000000000E+00 0.  1.
         11    1    4    4    0    0 -0.47208702533E+01  0.12207821862E+01  0.84691567103E+01  0.97725913012E+01  0.51100000000E-03 0. -1.
        -11    1    4    4    0    0 -0.16766688155E+02 -0.12220389783E+01  0.73931809126E+01  0.18365030227E+02  0.51100000000E-03 0.  1.
        -12    1    4    4    0    0  0.31864534057E+01  0.25875039615E+02  0.28832564567E+01  0.26229455354E+02  0.00000000000E+00 0.  1.
</event>
<event>
 8    1  0.1262344E-006  0.9118800E+02  0.7816164E-02  0.1184000E+00
        -11   -1    0    0    0    0  0.00000000000E+00  0.00000000000E+00  0.45593999997E+02  0.45594000000E+02  0.51100000000E-03 0. -1.
         11   -1    0    0    0    0 -0.00000000000E+00 -0.00000000000E+00 -0.45593999997E+02  0.45594000000E+02  0.51100000000E-03 0.  1.
         23    2    1    2    0    0  0.35527136788E-14  0.35527136788E-14  0.00000000000E+00  0.91188000000E+02  0.91188000000E+02 0.  0.
    9900012    2    3    3    0    0  0.26243911100E+02 -0.21498154468E+02 -0.14313170651E+02  0.54367077015E+02  0.39999983672E+02 0.  0.
         12    1    3    3    0    0 -0.26243911100E+02  0.21498154468E+02  0.14313170651E+02  0.36820922985E+02  0.00000000000E+00 0. -1.
         11    1    4    4    0    0  0.96911362934E+01  0.11738121608E+01  0.29800816197E+01  0.10206705853E+02  0.51100000000E-03 0. -1.
        -11    1    4    4    0    0  0.15447027017E+01  0.28556105849E+01  0.57737173812E+01  0.66239286612E+01  0.51100000000E-03 0.  1.
        -12    1    4    4    0    0  0.15008072105E+02 -0.25527577214E+02 -0.23066969652E+02  0.37536442501E+02  0.00000000000E+00 0.  1.
</event>
<event>
 8    1  0.1262344E-006  0.9118800E+02  0.7816164E-02  0.1184000E+00
        -11   -1    0    0    0    0  0.00000000000E+00  0.00000000000E+00  0.45593999997E+02  0.45594000000E+02  0.51100000000E-03 0. -1.
         11   -1    0    0    0    0 -0.00000000000E+00 -0.00000000000E+00 -0.45593999997E+02  0.45594000000E+02  0.51100000000E-03 0.  1.
         23    2    1    2    0    0 -0.35527136788E-14  0.00000000000E+00  0.00000000000E+00  0.91188000000E+02  0.91188000000E+02 0.  0.
    9900012    2    3    3    0    0  0.25941557140E+02  0.17585942783E+02  0.19327405555E+02  0.54367104086E+02  0.40000045385E+02 0.  0.
        -12    1    3    3    0    0 -0.25941557140E+02 -0.17585942783E+02 -0.19327405555E+02  0.36820895914E+02  0.00000000000E+00 0.  1.
         11    1    4    4    0    0  0.19131733531E+02 -0.30296086567E+01 -0.16563266755E+01  0.19440812093E+02  0.51100000000E-03 0. -1.
        -11    1    4    4    0    0 -0.59918641855E+01  0.61793131807E+01  0.59002012168E+01  0.10435455067E+02  0.51100000000E-03 0.  1.
         12    1    4    4    0    0  0.12801687794E+02  0.14436238259E+02  0.15083531014E+02  0.24490836925E+02  0.00000000000E+00 0. -1.
</event>
<event>
 8    1  0.1262344E-006  0.9118800E+02  0.7816164E-02  0.1184000E+00
        -11   -1    0    0    0    0  0.00000000000E+00  0.00000000000E+00  0.45593999997E+02  0.45594000000E+02  0.51100000000E-03 0.  1.
         11   -1    0    0    0    0 -0.00000000000E+00 -0.00000000000E+00 -0.45593999997E+02  0.45594000000E+02  0.51100000000E-03 0. -1.
         23    2    1    2    0    0  0.00000000000E+00  0.00000000000E+00  0.35527136788E-14  0.91188000000E+02  0.91188000000E+02 0.  0.
    9900012    2    3    3    0    0 -0.28101920412E+02  0.60905968051E+01 -0.22999422245E+02  0.54366990726E+02  0.39999786958E+02 0.  0.
        -12    1    3    3    0    0  0.28101920412E+02 -0.60905968051E+01  0.22999422245E+02  0.36821009274E+02  0.00000000000E+00 0.  1.
         11    1    4    4    0    0  0.96092868163E+00 -0.17254133454E+01 -0.15367700509E+02  0.15494084495E+02  0.51100000000E-03 0. -1.
        -11    1    4    4    0    0 -0.25576739039E+01  0.78228389814E+01  0.48743668458E+01  0.95654564939E+01  0.51100000000E-03 0.  1.
        -12    1    4    4    0    0 -0.26505175190E+02 -0.68288309210E-02 -0.12506088582E+02  0.29307449737E+02  0.00000000000E+00 0.  1.
</event>
<event>
 8    1  0.1262344E-006  0.9118800E+02  0.7816164E-02  0.1184000E+00
        -11   -1    0    0    0    0  0.00000000000E+00  0.00000000000E+00  0.45593999997E+02  0.45594000000E+02  0.51100000000E-03 0.  1.
         11   -1    0    0    0    0 -0.00000000000E+00 -0.00000000000E+00 -0.45593999997E+02  0.45594000000E+02  0.51100000000E-03 0. -1.
         23    2    1    2    0    0  0.00000000000E+00  0.17763568394E-14  0.00000000000E+00  0.91188000000E+02  0.91188000000E+02 0.  0.
    9900012    2    3    3    0    0 -0.13249361856E+02 -0.10102798775E+02 -0.32835465655E+02  0.54367082882E+02  0.39999997045E+02 0.  0.
        -12    1    3    3    0    0  0.13249361856E+02  0.10102798775E+02  0.32835465655E+02  0.36820917118E+02  0.00000000000E+00 0.  1.
         11    1    4    4    0    0  0.42392290461E+01 -0.18478179316E+02 -0.64868771589E+01  0.20037308933E+02  0.51100000000E-03 0. -1.
        -11    1    4    4    0    0 -0.45491493228E+01  0.65454123977E+00 -0.79458438523E+00  0.46641771409E+01  0.51100000000E-03 0.  1.
         12    1    4    4    0    0 -0.12939441580E+02  0.77208393009E+01 -0.25554004110E+02  0.29665596808E+02  0.00000000000E+00 0. -1.
</event>
<event>
 8    1  0.1262344E-006  0.9118800E+02  0.7816164E-02  0.1184000E+00
        -11   -1    0    0    0    0  0.00000000000E+00  0.00000000000E+00  0.45593999997E+02  0.45594000000E+02  0.51100000000E-03 0. -1.
         11   -1    0    0    0    0 -0.00000000000E+00 -0.00000000000E+00 -0.45593999997E+02  0.45594000000E+02  0.51100000000E-03 0.  1.
         23    2    1    2    0    0 -0.11102230246E-14  0.55511151231E-15  0.00000000000E+00  0.91188000000E+02  0.91188000000E+02 0.  0.
    9900012    2    3    3    0    0  0.15020582118E+01  0.71381756453E+00  0.36783340081E+02  0.54367084450E+02  0.40000000621E+02 0.  0.
        -12    1    3    3    0    0 -0.15020582118E+01 -0.71381756453E+00 -0.36783340081E+02  0.36820915550E+02  0.00000000000E+00 0.  1.
         11    1    4    4    0    0 -0.63652841752E+00  0.18307419447E+01  0.11216648692E+01  0.22394009989E+01  0.51100000000E-03 0. -1.
        -11    1    4    4    0    0 -0.12532178626E+02  0.77140125786E+01  0.26691349329E+01  0.14956128267E+02  0.51100000000E-03 0.  1.
         12    1    4    4    0    0  0.14670765256E+02 -0.88309369587E+01  0.32992540279E+02  0.37171555184E+02  0.00000000000E+00 0. -1.
</event>
<event>
 8    1  0.1262344E-006  0.9118800E+02  0.7816164E-02  0.1184000E+00
        -11   -1    0    0    0    0  0.00000000000E+00  0.00000000000E+00  0.45593999997E+02  0.45594000000E+02  0.51100000000E-03 0.  1.
         11   -1    0    0    0    0 -0.00000000000E+00 -0.00000000000E+00 -0.45593999997E+02  0.45594000000E+02  0.51100000000E-03 0. -1.
         23    2    1    2    0    0  0.00000000000E+00  0.00000000000E+00 -0.17763568394E-14  0.91188000000E+02  0.91188000000E+02 0.  0.
    9900012    2    3    3    0    0  0.29853807770E+02 -0.15798471580E+02 -0.14660786620E+02  0.54367079222E+02  0.39999988703E+02 0.  0.
         12    1    3    3    0    0 -0.29853807770E+02  0.15798471580E+02  0.14660786620E+02  0.36820920778E+02  0.00000000000E+00 0. -1.
         11    1    4    4    0    0  0.22590823629E+01  0.13395862626E+01 -0.18990120439E+01  0.32410170443E+01  0.51100000000E-03 0. -1.
        -11    1    4    4    0    0  0.15868657877E+02 -0.14648969833E+02  0.11203839224E+02  0.24329665711E+02  0.51100000000E-03 0.  1.
        -12    1    4    4    0    0  0.11726067530E+02 -0.24890880092E+01 -0.23965613799E+02  0.26796396467E+02  0.00000000000E+00 0.  1.
</event>
<event>
 8    1  0.1262344E-006  0.9118800E+02  0.7816164E-02  0.1184000E+00
        -11   -1    0    0    0    0  0.00000000000E+00  0.00000000000E+00  0.45593999997E+02  0.45594000000E+02  0.51100000000E-03 0. -1.
         11   -1    0    0    0    0 -0.00000000000E+00 -0.00000000000E+00 -0.45593999997E+02  0.45594000000E+02  0.51100000000E-03 0.  1.
         23    2    1    2    0    0  0.55511151231E-15  0.00000000000E+00 -0.88817841970E-15  0.91188000000E+02  0.91188000000E+02 0.  0.
    9900012    2    3    3    0    0  0.74396842266E+00 -0.36394354802E+02 -0.55387143537E+01  0.54367083292E+02  0.39999997982E+02 0.  0.
        -12    1    3    3    0    0 -0.74396842266E+00  0.36394354802E+02  0.55387143537E+01  0.36820916708E+02  0.00000000000E+00 0.  1.
         11    1    4    4    0    0 -0.89846320029E+01 -0.18998040790E+02 -0.14689709343E+02  0.25640528991E+02  0.51100000000E-03 0. -1.
        -11    1    4    4    0    0  0.13812412405E+02 -0.65815817271E+01  0.28593281622E+01  0.15565208392E+02  0.51100000000E-03 0.  1.
        -12    1    4    4    0    0 -0.40838119798E+01 -0.10814732285E+02  0.62916668270E+01  0.13161345910E+02  0.00000000000E+00 0.  1.
</event>
<event>
 8    1  0.1262344E-006  0.9118800E+02  0.7816164E-02  0.1184000E+00
        -11   -1    0    0    0    0  0.00000000000E+00  0.00000000000E+00  0.45593999997E+02  0.45594000000E+02  0.51100000000E-03 0. -1.
         11   -1    0    0    0    0 -0.00000000000E+00 -0.00000000000E+00 -0.45593999997E+02  0.45594000000E+02  0.51100000000E-03 0.  1.
         23    2    1    2    0    0  0.35527136788E-14  0.35527136788E-14  0.00000000000E+00  0.91188000000E+02  0.91188000000E+02 0.  0.
    9900012    2    3    3    0    0 -0.11972452016E+02  0.27802664463E+02 -0.20963109450E+02  0.54367085884E+02  0.40000003890E+02 0.  0.
         12    1    3    3    0    0  0.11972452016E+02 -0.27802664463E+02  0.20963109450E+02  0.36820914116E+02  0.00000000000E+00 0. -1.
         11    1    4    4    0    0  0.12439253733E+02  0.50036148507E+01  0.44298365928E+00  0.13415193990E+02  0.51100000000E-03 0. -1.
        -11    1    4    4    0    0 -0.94405408009E+01  0.48920278701E+01 -0.11303272067E+02  0.15518366763E+02  0.51100000000E-03 0.  1.
         12    1    4    4    0    0 -0.14971164948E+02  0.17907021743E+02 -0.10102821042E+02  0.25433525131E+02  0.00000000000E+00 0. -1.
</event>
<event>
 8    1  0.1262344E-006  0.9118800E+02  0.7816164E-02  0.1184000E+00
        -11   -1    0    0    0    0  0.00000000000E+00  0.00000000000E+00  0.45593999997E+02  0.45594000000E+02  0.51100000000E-03 0. -1.
         11   -1    0    0    0    0 -0.00000000000E+00 -0.00000000000E+00 -0.45593999997E+02  0.45594000000E+02  0.51100000000E-03 0.  1.
         23    2    1    2    0    0  0.00000000000E+00  0.00000000000E+00  0.00000000000E+00  0.91188000000E+02  0.91188000000E+02 0.  0.
    9900012    2    3    3    0    0  0.20499342779E+02  0.25447017282E+02  0.16970759225E+02  0.54367076443E+02  0.39999982367E+02 0.  0.
        -12    1    3    3    0    0 -0.20499342779E+02 -0.25447017282E+02 -0.16970759225E+02  0.36820923557E+02  0.00000000000E+00 0.  1.
         11    1    4    4    0    0 -0.60129362672E+01  0.83940585694E+01  0.80215285292E+01  0.13075188030E+02  0.51100000000E-03 0. -1.
        -11    1    4    4    0    0  0.21969730945E+02  0.17702402792E+02  0.16331242712E+02  0.32599902319E+02  0.51100000000E-03 0.  1.
        -12    1    4    4    0    0  0.45425481007E+01 -0.64944407980E+00 -0.73820120154E+01  0.86919860938E+01  0.00000000000E+00 0.  1.
</event>
<event>
 8    1  0.1262344E-006  0.9118800E+02  0.7816164E-02  0.1184000E+00
        -11   -1    0    0    0    0  0.00000000000E+00  0.00000000000E+00  0.45593999997E+02  0.45594000000E+02  0.51100000000E-03 0.  1.
         11   -1    0    0    0    0 -0.00000000000E+00 -0.00000000000E+00 -0.45593999997E+02  0.45594000000E+02  0.51100000000E-03 0. -1.
         23    2    1    2    0    0  0.00000000000E+00 -0.71054273576E-14  0.35527136788E-14  0.91188000000E+02  0.91188000000E+02 0.  0.
    9900012    2    3    3    0    0 -0.79099504337E+01 -0.30971397258E+02  0.18275252314E+02  0.54367087313E+02  0.40000007147E+02 0.  0.
         12    1    3    3    0    0  0.79099504337E+01  0.30971397258E+02 -0.18275252314E+02  0.36820912687E+02  0.00000000000E+00 0. -1.
         11    1    4    4    0    0 -0.31623811019E+01 -0.67911227805E+01  0.82757902634E+00  0.75369018939E+01  0.51100000000E-03 0.  1.
        -11    1    4    4    0    0 -0.20045744633E+01 -0.79734376681E+01  0.26721161934E+02  0.27957369733E+02  0.51100000000E-03 0. -1.
         12    1    4    4    0    0 -0.27429948685E+01 -0.16206836809E+02 -0.92734886466E+01  0.18872815685E+02  0.00000000000E+00 0. -1.
</event>
<event>
 8    1  0.1262344E-006  0.9118800E+02  0.7816164E-02  0.1184000E+00
        -11   -1    0    0    0    0  0.00000000000E+00  0.00000000000E+00  0.45593999997E+02  0.45594000000E+02  0.51100000000E-03 0.  1.
         11   -1    0    0    0    0 -0.00000000000E+00 -0.00000000000E+00 -0.45593999997E+02  0.45594000000E+02  0.51100000000E-03 0. -1.
         23    2    1    2    0    0  0.17763568394E-14  0.71054273576E-14 -0.44408920985E-15  0.91188000000E+02  0.91188000000E+02 0.  0.
    9900012    2    3    3    0    0  0.85116891167E+01  0.35738226347E+02  0.24723655016E+01  0.54367051272E+02  0.39999924985E+02 0.  0.
         12    1    3    3    0    0 -0.85116891167E+01 -0.35738226347E+02 -0.24723655016E+01  0.36820948728E+02  0.00000000000E+00 0. -1.
         11    1    4    4    0    0  0.11059874893E+02  0.10936427172E+02 -0.56828193148E+01  0.16559610732E+02  0.51100000000E-03 0. -1.
        -11    1    4    4    0    0  0.58425320079E+01  0.41891210469E+01  0.13160858623E+02  0.14996403414E+02  0.51100000000E-03 0.  1.
         12    1    4    4    0    0 -0.83907177845E+01  0.20612678128E+02 -0.50056738065E+01  0.22811037127E+02  0.00000000000E+00 0. -1.
</event>
<event>
 8    1  0.1262344E-006  0.9118800E+02  0.7816164E-02  0.1184000E+00
        -11   -1    0    0    0    0  0.00000000000E+00  0.00000000000E+00  0.45593999997E+02  0.45594000000E+02  0.51100000000E-03 0.  1.
         11   -1    0    0    0    0 -0.00000000000E+00 -0.00000000000E+00 -0.45593999997E+02  0.45594000000E+02  0.51100000000E-03 0. -1.
         23    2    1    2    0    0  0.00000000000E+00  0.35527136788E-14  0.00000000000E+00  0.91188000000E+02  0.91188000000E+02 0.  0.
    9900012    2    3    3    0    0  0.16592667081E+02  0.22169519481E+02  0.24268805940E+02  0.54367093756E+02  0.40000021836E+02 0.  0.
         12    1    3    3    0    0 -0.16592667081E+02 -0.22169519481E+02 -0.24268805940E+02  0.36820906244E+02  0.00000000000E+00 0. -1.
         11    1    4    4    0    0  0.15618408902E+01 -0.85876983406E+01  0.34090159583E+01  0.93706616533E+01  0.51100000000E-03 0. -1.
        -11    1    4    4    0    0 -0.10616418005E+01  0.19182365422E+02  0.14852085223E+02  0.24283217708E+02  0.51100000000E-03 0.  1.
         12    1    4    4    0    0  0.16092467991E+02  0.11574852399E+02  0.60077047578E+01  0.20713214395E+02  0.00000000000E+00 0. -1.
</event>
<event>
 8    1  0.1262344E-006  0.9118800E+02  0.7816164E-02  0.1184000E+00
        -11   -1    0    0    0    0  0.00000000000E+00  0.00000000000E+00  0.45593999997E+02  0.45594000000E+02  0.51100000000E-03 0.  1.
         11   -1    0    0    0    0 -0.00000000000E+00 -0.00000000000E+00 -0.45593999997E+02  0.45594000000E+02  0.51100000000E-03 0. -1.
         23    2    1    2    0    0  0.11102230246E-14  0.00000000000E+00  0.00000000000E+00  0.91188000000E+02  0.91188000000E+02 0.  0.
    9900012    2    3    3    0    0  0.13085186947E+01 -0.21760457824E+02 -0.29674044963E+02  0.54367099816E+02  0.40000035649E+02 0.  0.
        -12    1    3    3    0    0 -0.13085186947E+01  0.21760457824E+02  0.29674044963E+02  0.36820900184E+02  0.00000000000E+00 0.  1.
         11    1    4    4    0    0 -0.15895053795E+02 -0.38515759236E+01 -0.23387636914E+02  0.28538902097E+02  0.51100000000E-03 0. -1.
        -11    1    4    4    0    0  0.10625095965E+02 -0.11471364124E+02 -0.55608058343E+01  0.16595403608E+02  0.51100000000E-03 0.  1.
         12    1    4    4    0    0  0.65784765241E+01 -0.64375177773E+01 -0.72560221541E+00  0.92327941105E+01  0.00000000000E+00 0. -1.
</event>
<event>
 8    1  0.1262344E-006  0.9118800E+02  0.7816164E-02  0.1184000E+00
        -11   -1    0    0    0    0  0.00000000000E+00  0.00000000000E+00  0.45593999997E+02  0.45594000000E+02  0.51100000000E-03 0. -1.
         11   -1    0    0    0    0 -0.00000000000E+00 -0.00000000000E+00 -0.45593999997E+02  0.45594000000E+02  0.51100000000E-03 0.  1.
         23    2    1    2    0    0  0.00000000000E+00  0.00000000000E+00  0.00000000000E+00  0.91188000000E+02  0.91188000000E+02 0.  0.
    9900012    2    3    3    0    0  0.28447786114E+02 -0.10961604604E+02 -0.20647898147E+02  0.54367231293E+02  0.40000335377E+02 0.  0.
         12    1    3    3    0    0 -0.28447786114E+02  0.10961604604E+02  0.20647898147E+02  0.36820768707E+02  0.00000000000E+00 0. -1.
         11    1    4    4    0    0  0.27293422502E+02  0.37407346986E+01 -0.17652801860E+02  0.32719190420E+02  0.51100000000E-03 0. -1.
        -11    1    4    4    0    0  0.33776321028E+01 -0.88406759888E+01 -0.89324007136E+01  0.13013598016E+02  0.51100000000E-03 0.  1.
         12    1    4    4    0    0 -0.22232684911E+01 -0.58616633142E+01  0.59373044265E+01  0.86344428567E+01  0.00000000000E+00 0. -1.
</event>
<event>
 8    1  0.1262344E-006  0.9118800E+02  0.7816164E-02  0.1184000E+00
        -11   -1    0    0    0    0  0.00000000000E+00  0.00000000000E+00  0.45593999997E+02  0.45594000000E+02  0.51100000000E-03 0. -1.
         11   -1    0    0    0    0 -0.00000000000E+00 -0.00000000000E+00 -0.45593999997E+02  0.45594000000E+02  0.51100000000E-03 0.  1.
         23    2    1    2    0    0  0.35527136788E-14 -0.35527136788E-14  0.17763568394E-14  0.91188000000E+02  0.91188000000E+02 0.  0.
    9900012    2    3    3    0    0 -0.27240427307E+02  0.23241036206E+02 -0.85784404643E+01  0.54367132484E+02  0.40000110124E+02 0.  0.
         12    1    3    3    0    0  0.27240427307E+02 -0.23241036206E+02  0.85784404643E+01  0.36820867516E+02  0.00000000000E+00 0. -1.
         11    1    4    4    0    0 -0.20563740535E+01  0.28454478392E+01 -0.92669469947E+01  0.99096697482E+01  0.51100000000E-03 0. -1.
        -11    1    4    4    0    0 -0.28433950348E+02  0.25634139520E+02  0.38085561044E+00  0.38285032226E+02  0.51100000000E-03 0.  1.
         12    1    4    4    0    0  0.32498970942E+01 -0.52385511533E+01  0.30765092002E+00  0.61724305097E+01  0.00000000000E+00 0. -1.
</event>
<event>
 8    1  0.1262344E-006  0.9118800E+02  0.7816164E-02  0.1184000E+00
        -11   -1    0    0    0    0  0.00000000000E+00  0.00000000000E+00  0.45593999997E+02  0.45594000000E+02  0.51100000000E-03 0.  1.
         11   -1    0    0    0    0 -0.00000000000E+00 -0.00000000000E+00 -0.45593999997E+02  0.45594000000E+02  0.51100000000E-03 0. -1.
         23    2    1    2    0    0 -0.17763568394E-14  0.00000000000E+00 -0.13322676296E-14  0.91188000000E+02  0.91188000000E+02 0.  0.
    9900012    2    3    3    0    0  0.45388182957E+01  0.36361017894E+02 -0.36131767497E+01  0.54367088278E+02  0.40000009346E+02 0.  0.
        -12    1    3    3    0    0 -0.45388182957E+01 -0.36361017894E+02  0.36131767497E+01  0.36820911722E+02  0.00000000000E+00 0.  1.
         11    1    4    4    0    0 -0.12188676789E+02  0.19731704378E+02 -0.12070943607E+02  0.26145968702E+02  0.51100000000E-03 0. -1.
        -11    1    4    4    0    0  0.82091151116E+01  0.65633743458E+00  0.54374201863E+01  0.98684288662E+01  0.51100000000E-03 0.  1.
         12    1    4    4    0    0  0.85183799728E+01  0.15972976082E+02  0.30203466710E+01  0.18352690709E+02  0.00000000000E+00 0. -1.
</event>
<event>
 8    1  0.1262344E-006  0.9118800E+02  0.7816164E-02  0.1184000E+00
        -11   -1    0    0    0    0  0.00000000000E+00  0.00000000000E+00  0.45593999997E+02  0.45594000000E+02  0.51100000000E-03 0.  1.
         11   -1    0    0    0    0 -0.00000000000E+00 -0.00000000000E+00 -0.45593999997E+02  0.45594000000E+02  0.51100000000E-03 0. -1.
         23    2    1    2    0    0  0.00000000000E+00  0.00000000000E+00  0.00000000000E+00  0.91188000000E+02  0.91188000000E+02 0.  0.
    9900012    2    3    3    0    0  0.31368014221E+02  0.97933007702E+01 -0.16610945166E+02  0.54367020173E+02  0.39999854088E+02 0.  0.
         12    1    3    3    0    0 -0.31368014221E+02 -0.97933007702E+01  0.16610945166E+02  0.36820979827E+02  0.00000000000E+00 0. -1.
         11    1    4    4    0    0  0.20151336825E+02 -0.45247638625E+01 -0.10689536228E+02  0.23255452025E+02  0.51100000000E-03 0. -1.
        -11    1    4    4    0    0  0.43152687729E+01  0.73586018716E+01  0.95447662509E+01  0.12801294041E+02  0.51100000000E-03 0.  1.
        -12    1    4    4    0    0  0.69014086233E+01  0.69594627611E+01 -0.15466175188E+02  0.18310274107E+02  0.00000000000E+00 0.  1.
</event>
<event>
 8    1  0.1262344E-006  0.9118800E+02  0.7816164E-02  0.1184000E+00
        -11   -1    0    0    0    0  0.00000000000E+00  0.00000000000E+00  0.45593999997E+02  0.45594000000E+02  0.51100000000E-03 0.  1.
         11   -1    0    0    0    0 -0.00000000000E+00 -0.00000000000E+00 -0.45593999997E+02  0.45594000000E+02  0.51100000000E-03 0. -1.
         23    2    1    2    0    0  0.35527136788E-14  0.00000000000E+00 -0.17763568394E-14  0.91188000000E+02  0.91188000000E+02 0.  0.
    9900012    2    3    3    0    0 -0.31095014415E+02 -0.16560321964E+02  0.10706724650E+02  0.54367107320E+02  0.40000052758E+02 0.  0.
        -12    1    3    3    0    0  0.31095014415E+02  0.16560321964E+02 -0.10706724650E+02  0.36820892680E+02  0.00000000000E+00 0.  1.
         11    1    4    4    0    0 -0.26192642711E+02 -0.60346946956E+01  0.10256262751E+02  0.28769132732E+02  0.51100000000E-03 0. -1.
        -11    1    4    4    0    0  0.11503357263E+01  0.11586008269E+01  0.94925232083E+01  0.96319066275E+01  0.51100000000E-03 0.  1.
         12    1    4    4    0    0 -0.60527074294E+01 -0.11684228096E+02 -0.90420613094E+01  0.15966067961E+02  0.00000000000E+00 0. -1.
</event>
<event>
 8    1  0.1262344E-006  0.9118800E+02  0.7816164E-02  0.1184000E+00
        -11   -1    0    0    0    0  0.00000000000E+00  0.00000000000E+00  0.45593999997E+02  0.45594000000E+02  0.51100000000E-03 0. -1.
         11   -1    0    0    0    0 -0.00000000000E+00 -0.00000000000E+00 -0.45593999997E+02  0.45594000000E+02  0.51100000000E-03 0.  1.
         23    2    1    2    0    0  0.00000000000E+00 -0.35527136788E-14  0.00000000000E+00  0.91188000000E+02  0.91188000000E+02 0.  0.
    9900012    2    3    3    0    0 -0.23890561166E+02 -0.21923205502E+02 -0.17446902718E+02  0.54367078409E+02  0.39999986850E+02 0.  0.
         12    1    3    3    0    0  0.23890561166E+02  0.21923205502E+02  0.17446902718E+02  0.36820921591E+02  0.00000000000E+00 0. -1.
         11    1    4    4    0    0 -0.55973559877E+01 -0.29034398372E+02 -0.13826900407E+02  0.32642148489E+02  0.51100000000E-03 0. -1.
        -11    1    4    4    0    0 -0.18193792240E+02  0.58751299229E+01 -0.51065293161E+01  0.19789084607E+02  0.51100000000E-03 0.  1.
         12    1    4    4    0    0 -0.99412938643E-01  0.12360629468E+01  0.14865270044E+01  0.19358453130E+01  0.00000000000E+00 0. -1.
</event>
<event>
 8    1  0.1262344E-006  0.9118800E+02  0.7816164E-02  0.1184000E+00
        -11   -1    0    0    0    0  0.00000000000E+00  0.00000000000E+00  0.45593999997E+02  0.45594000000E+02  0.51100000000E-03 0.  1.
         11   -1    0    0    0    0 -0.00000000000E+00 -0.00000000000E+00 -0.45593999997E+02  0.45594000000E+02  0.51100000000E-03 0. -1.
         23    2    1    2    0    0  0.00000000000E+00  0.66613381478E-15  0.00000000000E+00  0.91188000000E+02  0.91188000000E+02 0.  0.
    9900012    2    3    3    0    0 -0.21721023698E+01 -0.16620065845E+01 -0.36719192839E+02  0.54367089944E+02  0.40000013145E+02 0.  0.
        -12    1    3    3    0    0  0.21721023698E+01  0.16620065845E+01  0.36719192839E+02  0.36820910056E+02  0.00000000000E+00 0.  1.
         11    1    4    4    0    0 -0.28885820507E+01  0.56655935644E+01 -0.19057025997E+02  0.20090124360E+02  0.51100000000E-03 0. -1.
        -11    1    4    4    0    0 -0.65563680245E+01 -0.18307621567E+01  0.59028082718E+01  0.90100387070E+01  0.51100000000E-03 0.  1.
         12    1    4    4    0    0  0.72728477054E+01 -0.54968379922E+01 -0.23564975114E+02  0.25266926877E+02  0.00000000000E+00 0. -1.
</event>
<event>
 8    1  0.1262344E-006  0.9118800E+02  0.7816164E-02  0.1184000E+00
        -11   -1    0    0    0    0  0.00000000000E+00  0.00000000000E+00  0.45593999997E+02  0.45594000000E+02  0.51100000000E-03 0. -1.
         11   -1    0    0    0    0 -0.00000000000E+00 -0.00000000000E+00 -0.45593999997E+02  0.45594000000E+02  0.51100000000E-03 0.  1.
         23    2    1    2    0    0  0.00000000000E+00  0.00000000000E+00  0.00000000000E+00  0.91188000000E+02  0.91188000000E+02 0.  0.
    9900012    2    3    3    0    0  0.16788841917E+02  0.19738369105E+02 -0.26159365289E+02  0.54367070895E+02  0.39999969720E+02 0.  0.
         12    1    3    3    0    0 -0.16788841917E+02 -0.19738369105E+02  0.26159365289E+02  0.36820929105E+02  0.00000000000E+00 0. -1.
         11    1    4    4    0    0  0.25894005296E+01 -0.21991999635E+01  0.60957720006E+01  0.69785322329E+01  0.51100000000E-03 0. -1.
        -11    1    4    4    0    0  0.10548176359E+02  0.19073233124E+02 -0.88436434183E+01  0.23521527916E+02  0.51100000000E-03 0.  1.
        -12    1    4    4    0    0  0.36512650279E+01  0.28643359446E+01 -0.23411493871E+02  0.23867010747E+02  0.00000000000E+00 0.  1.
</event>
<event>
 8    1  0.1262344E-006  0.9118800E+02  0.7816164E-02  0.1184000E+00
        -11   -1    0    0    0    0  0.00000000000E+00  0.00000000000E+00  0.45593999997E+02  0.45594000000E+02  0.51100000000E-03 0. -1.
         11   -1    0    0    0    0 -0.00000000000E+00 -0.00000000000E+00 -0.45593999997E+02  0.45594000000E+02  0.51100000000E-03 0.  1.
         23    2    1    2    0    0  0.00000000000E+00  0.00000000000E+00  0.44408920985E-15  0.91188000000E+02  0.91188000000E+02 0.  0.
    9900012    2    3    3    0    0 -0.26674488498E+02  0.25365806190E+02 -0.90998493589E+00  0.54367074796E+02  0.39999978613E+02 0.  0.
        -12    1    3    3    0    0  0.26674488498E+02 -0.25365806190E+02  0.90998493589E+00  0.36820925204E+02  0.00000000000E+00 0.  1.
         11    1    4    4    0    0  0.94495477072E+00  0.12604226798E+01  0.73233389947E+01  0.74908543666E+01  0.51100000000E-03 0. -1.
        -11    1    4    4    0    0 -0.32241348372E+02  0.14525319482E+02 -0.47287064311E+01  0.35677025040E+02  0.51100000000E-03 0.  1.
        -12    1    4    4    0    0  0.46219051033E+01  0.95800640280E+01 -0.35046174995E+01  0.11199195390E+02  0.00000000000E+00 0.  1.
</event>
<event>
 8    1  0.1262344E-006  0.9118800E+02  0.7816164E-02  0.1184000E+00
        -11   -1    0    0    0    0  0.00000000000E+00  0.00000000000E+00  0.45593999997E+02  0.45594000000E+02  0.51100000000E-03 0.  1.
         11   -1    0    0    0    0 -0.00000000000E+00 -0.00000000000E+00 -0.45593999997E+02  0.45594000000E+02  0.51100000000E-03 0. -1.
         23    2    1    2    0    0  0.00000000000E+00  0.00000000000E+00  0.00000000000E+00  0.91188000000E+02  0.91188000000E+02 0.  0.
    9900012    2    3    3    0    0  0.34953585741E+01  0.14362167724E+02 -0.33723709817E+02  0.54367109230E+02  0.40000057112E+02 0.  0.
        -12    1    3    3    0    0 -0.34953585741E+01 -0.14362167724E+02  0.33723709817E+02  0.36820890770E+02  0.00000000000E+00 0.  1.
         11    1    4    4    0    0 -0.12345448382E+01  0.19073724048E+02 -0.39272684996E+02  0.43676937130E+02  0.51100000000E-03 0. -1.
        -11    1    4    4    0    0  0.40299527852E+01 -0.41476510557E+00  0.47859244946E+01  0.62703766293E+01  0.51100000000E-03 0.  1.
         12    1    4    4    0    0  0.69995062705E+00 -0.42967912184E+01  0.76305068464E+00  0.44197954707E+01  0.00000000000E+00 0. -1.
</event>
<event>
 8    1  0.1262344E-006  0.9118800E+02  0.7816164E-02  0.1184000E+00
        -11   -1    0    0    0    0  0.00000000000E+00  0.00000000000E+00  0.45593999997E+02  0.45594000000E+02  0.51100000000E-03 0. -1.
         11   -1    0    0    0    0 -0.00000000000E+00 -0.00000000000E+00 -0.45593999997E+02  0.45594000000E+02  0.51100000000E-03 0.  1.
         23    2    1    2    0    0 -0.88817841970E-15  0.00000000000E+00  0.00000000000E+00  0.91188000000E+02  0.91188000000E+02 0.  0.
    9900012    2    3    3    0    0  0.44283964761E+01  0.81779702416E+01 -0.35627087479E+02  0.54367092150E+02  0.40000018175E+02 0.  0.
         12    1    3    3    0    0 -0.44283964761E+01 -0.81779702416E+01  0.35627087479E+02  0.36820907850E+02  0.00000000000E+00 0. -1.
         11    1    4    4    0    0 -0.17272761651E+01  0.12649500733E+01 -0.70932315725E+01  0.74092857983E+01  0.51100000000E-03 0. -1.
        -11    1    4    4    0    0  0.12064841265E+02 -0.64978289047E+01 -0.29233715395E+02  0.32286100589E+02  0.51100000000E-03 0.  1.
         12    1    4    4    0    0 -0.59091686240E+01  0.13410849073E+02  0.69985948778E+00  0.14671705763E+02  0.00000000000E+00 0. -1.
</event>
<event>
 8    1  0.1262344E-006  0.9118800E+02  0.7816164E-02  0.1184000E+00
        -11   -1    0    0    0    0  0.00000000000E+00  0.00000000000E+00  0.45593999997E+02  0.45594000000E+02  0.51100000000E-03 0.  1.
         11   -1    0    0    0    0 -0.00000000000E+00 -0.00000000000E+00 -0.45593999997E+02  0.45594000000E+02  0.51100000000E-03 0. -1.
         23    2    1    2    0    0  0.00000000000E+00 -0.35527136788E-14  0.00000000000E+00  0.91188000000E+02  0.91188000000E+02 0.  0.
    9900012    2    3    3    0    0 -0.21349071973E+02 -0.23033245815E+02 -0.19221499440E+02  0.54367091163E+02  0.40000015924E+02 0.  0.
        -12    1    3    3    0    0  0.21349071973E+02  0.23033245815E+02  0.19221499440E+02  0.36820908837E+02  0.00000000000E+00 0.  1.
         11    1    4    4    0    0 -0.13050543008E+02  0.85430933105E+00  0.66249620269E+01  0.14660717560E+02  0.51100000000E-03 0. -1.
        -11    1    4    4    0    0  0.28726624636E+01 -0.35988665022E-01 -0.62472938227E+01  0.68762028171E+01  0.51100000000E-03 0.  1.
        -12    1    4    4    0    0 -0.11171191429E+02 -0.23851566481E+02 -0.19599167644E+02  0.32830170786E+02  0.00000000000E+00 0.  1.
</event>
<event>
 8    1  0.1262344E-006  0.9118800E+02  0.7816164E-02  0.1184000E+00
        -11   -1    0    0    0    0  0.00000000000E+00  0.00000000000E+00  0.45593999997E+02  0.45594000000E+02  0.51100000000E-03 0.  1.
         11   -1    0    0    0    0 -0.00000000000E+00 -0.00000000000E+00 -0.45593999997E+02  0.45594000000E+02  0.51100000000E-03 0. -1.
         23    2    1    2    0    0  0.88817841970E-15  0.00000000000E+00  0.35527136788E-14  0.91188000000E+02  0.91188000000E+02 0.  0.
    9900012    2    3    3    0    0  0.51999501618E+01 -0.25325223297E+02  0.26217801524E+02  0.54367088367E+02  0.40000009550E+02 0.  0.
         12    1    3    3    0    0 -0.51999501618E+01  0.25325223297E+02 -0.26217801524E+02  0.36820911633E+02  0.00000000000E+00 0. -1.
         11    1    4    4    0    0 -0.60463644589E+01 -0.14982583293E+02 -0.99193398001E+00  0.16187039834E+02  0.51100000000E-03 0. -1.
        -11    1    4    4    0    0  0.17828404445E+02 -0.92000211825E+01  0.19481982768E+02  0.27964978950E+02  0.51100000000E-03 0.  1.
        -12    1    4    4    0    0 -0.65820898248E+01 -0.11426188217E+01  0.77277527367E+01  0.10215069583E+02  0.00000000000E+00 0.  1.
</event>
<event>
 8    1  0.1262344E-006  0.9118800E+02  0.7816164E-02  0.1184000E+00
        -11   -1    0    0    0    0  0.00000000000E+00  0.00000000000E+00  0.45593999997E+02  0.45594000000E+02  0.51100000000E-03 0. -1.
         11   -1    0    0    0    0 -0.00000000000E+00 -0.00000000000E+00 -0.45593999997E+02  0.45594000000E+02  0.51100000000E-03 0.  1.
         23    2    1    2    0    0  0.00000000000E+00  0.17763568394E-14  0.00000000000E+00  0.91188000000E+02  0.91188000000E+02 0.  0.
    9900012    2    3    3    0    0 -0.33045570586E+02 -0.14478992965E+02 -0.73572059478E+01  0.54367089474E+02  0.40000012073E+02 0.  0.
        -12    1    3    3    0    0  0.33045570586E+02  0.14478992965E+02  0.73572059478E+01  0.36820910526E+02  0.00000000000E+00 0.  1.
         11    1    4    4    0    0 -0.73849990702E+01  0.26953087754E+01  0.54868104741E+01  0.95868654993E+01  0.51100000000E-03 0. -1.
        -11    1    4    4    0    0 -0.16936173309E+02  0.45376359105E+01  0.10533951395E+01  0.17565128738E+02  0.51100000000E-03 0.  1.
        -12    1    4    4    0    0 -0.87243982073E+01 -0.21711937651E+02 -0.13897411561E+02  0.27215095237E+02  0.00000000000E+00 0.  1.
</event>
<event>
 8    1  0.1262344E-006  0.9118800E+02  0.7816164E-02  0.1184000E+00
        -11   -1    0    0    0    0  0.00000000000E+00  0.00000000000E+00  0.45593999997E+02  0.45594000000E+02  0.51100000000E-03 0.  1.
         11   -1    0    0    0    0 -0.00000000000E+00 -0.00000000000E+00 -0.45593999997E+02  0.45594000000E+02  0.51100000000E-03 0. -1.
         23    2    1    2    0    0  0.00000000000E+00  0.00000000000E+00  0.00000000000E+00  0.91188000000E+02  0.91188000000E+02 0.  0.
    9900012    2    3    3    0    0 -0.29993333434E+02 -0.17627114985E+02  0.12060917315E+02  0.54367069001E+02  0.39999965400E+02 0.  0.
         12    1    3    3    0    0  0.29993333434E+02  0.17627114985E+02 -0.12060917315E+02  0.36820930999E+02  0.00000000000E+00 0. -1.
         11    1    4    4    0    0  0.48006367941E+01 -0.39400171518E+01 -0.85672838151E+00  0.62692768774E+01  0.51100000000E-03 0. -1.
        -11    1    4    4    0    0 -0.17699926708E+02 -0.80995497049E+01 -0.75262819483E+01  0.20869476062E+02  0.51100000000E-03 0.  1.
        -12    1    4    4    0    0 -0.17094043520E+02 -0.55875481282E+01  0.20443927645E+02  0.27228316061E+02  0.00000000000E+00 0.  1.
</event>
<event>
 8    1  0.1262344E-006  0.9118800E+02  0.7816164E-02  0.1184000E+00
        -11   -1    0    0    0    0  0.00000000000E+00  0.00000000000E+00  0.45593999997E+02  0.45594000000E+02  0.51100000000E-03 0. -1.
         11   -1    0    0    0    0 -0.00000000000E+00 -0.00000000000E+00 -0.45593999997E+02  0.45594000000E+02  0.51100000000E-03 0.  1.
         23    2    1    2    0    0 -0.88817841970E-15  0.00000000000E+00  0.35527136788E-14  0.91188000000E+02  0.91188000000E+02 0.  0.
    9900012    2    3    3    0    0  0.32884136092E+01  0.26655910124E+02 -0.25187879513E+02  0.54367075474E+02  0.39999980158E+02 0.  0.
         12    1    3    3    0    0 -0.32884136092E+01 -0.26655910124E+02  0.25187879513E+02  0.36820924526E+02  0.00000000000E+00 0. -1.
         11    1    4    4    0    0 -0.63961555496E+01 -0.29808860707E+01 -0.30813910269E+00  0.70633871158E+01  0.51100000000E-03 0. -1.
        -11    1    4    4    0    0  0.13789242512E+02  0.10849753099E+02 -0.23814524108E+01  0.17706825441E+02  0.51100000000E-03 0.  1.
        -12    1    4    4    0    0 -0.41046733533E+01  0.18787043096E+02 -0.22498287999E+02  0.29596862917E+02  0.00000000000E+00 0.  1.
</event>
<event>
 8    1  0.1262344E-006  0.9118800E+02  0.7816164E-02  0.1184000E+00
        -11   -1    0    0    0    0  0.00000000000E+00  0.00000000000E+00  0.45593999997E+02  0.45594000000E+02  0.51100000000E-03 0.  1.
         11   -1    0    0    0    0 -0.00000000000E+00 -0.00000000000E+00 -0.45593999997E+02  0.45594000000E+02  0.51100000000E-03 0. -1.
         23    2    1    2    0    0 -0.17763568394E-14  0.00000000000E+00  0.00000000000E+00  0.91188000000E+02  0.91188000000E+02 0.  0.
    9900012    2    3    3    0    0  0.88203027930E+01  0.25050108973E+02  0.25504396627E+02  0.54367082736E+02  0.39999996713E+02 0.  0.
         12    1    3    3    0    0 -0.88203027930E+01 -0.25050108973E+02 -0.25504396627E+02  0.36820917264E+02  0.00000000000E+00 0. -1.
         11    1    4    4    0    0  0.99932429578E+01  0.72586355914E+01  0.10682484422E+02  0.16329977623E+02  0.51100000000E-03 0. -1.
        -11    1    4    4    0    0  0.80687294862E+01  0.22441870907E+02  0.63874565996E+01  0.24688895629E+02  0.51100000000E-03 0.  1.
         12    1    4    4    0    0 -0.92416696510E+01 -0.46503975253E+01  0.84344556046E+01  0.13348209484E+02  0.00000000000E+00 0. -1.
</event>
<event>
 8    1  0.1262344E-006  0.9118800E+02  0.7816164E-02  0.1184000E+00
        -11   -1    0    0    0    0  0.00000000000E+00  0.00000000000E+00  0.45593999997E+02  0.45594000000E+02  0.51100000000E-03 0.  1.
         11   -1    0    0    0    0 -0.00000000000E+00 -0.00000000000E+00 -0.45593999997E+02  0.45594000000E+02  0.51100000000E-03 0. -1.
         23    2    1    2    0    0  0.35527136788E-14  0.71054273576E-14  0.35527136788E-14  0.91188000000E+02  0.91188000000E+02 0.  0.
    9900012    2    3    3    0    0  0.18886911081E+02  0.24325964649E+02  0.20181960597E+02  0.54367088824E+02  0.40000010593E+02 0.  0.
         12    1    3    3    0    0 -0.18886911081E+02 -0.24325964649E+02 -0.20181960597E+02  0.36820911176E+02  0.00000000000E+00 0. -1.
         11    1    4    4    0    0  0.82940840337E+01  0.19330625246E+01  0.20738048009E+01  0.87652283082E+01  0.51100000000E-03 0. -1.
        -11    1    4    4    0    0  0.18482278920E+02  0.74037320267E+01 -0.11637359907E+01  0.19944025765E+02  0.51100000000E-03 0.  1.
        -12    1    4    4    0    0 -0.78894518729E+01  0.14989170097E+02  0.19271891787E+02  0.25657834751E+02  0.00000000000E+00 0.  1.
</event>
<event>
 8    1  0.1262344E-006  0.9118800E+02  0.7816164E-02  0.1184000E+00
        -11   -1    0    0    0    0  0.00000000000E+00  0.00000000000E+00  0.45593999997E+02  0.45594000000E+02  0.51100000000E-03 0. -1.
         11   -1    0    0    0    0 -0.00000000000E+00 -0.00000000000E+00 -0.45593999997E+02  0.45594000000E+02  0.51100000000E-03 0.  1.
         23    2    1    2    0    0  0.00000000000E+00  0.00000000000E+00 -0.17763568394E-14  0.91188000000E+02  0.91188000000E+02 0.  0.
    9900012    2    3    3    0    0  0.29175111498E+02  0.19281953449E+02 -0.11523818797E+02  0.54367092089E+02  0.40000018035E+02 0.  0.
         12    1    3    3    0    0 -0.29175111498E+02 -0.19281953449E+02  0.11523818797E+02  0.36820907911E+02  0.00000000000E+00 0. -1.
         11    1    4    4    0    0  0.52686774936E+01  0.13226224441E+02  0.35115080895E+01  0.14663651142E+02  0.51100000000E-03 0. -1.
        -11    1    4    4    0    0  0.29344689665E+02  0.43859179498E+01 -0.81452988581E+01  0.30768376323E+02  0.51100000000E-03 0.  1.
        -12    1    4    4    0    0 -0.54382556604E+01  0.16698110582E+01 -0.68900280285E+01  0.89350646238E+01  0.00000000000E+00 0.  1.
</event>
<event>
 8    1  0.1262344E-006  0.9118800E+02  0.7816164E-02  0.1184000E+00
        -11   -1    0    0    0    0  0.00000000000E+00  0.00000000000E+00  0.45593999997E+02  0.45594000000E+02  0.51100000000E-03 0.  1.
         11   -1    0    0    0    0 -0.00000000000E+00 -0.00000000000E+00 -0.45593999997E+02  0.45594000000E+02  0.51100000000E-03 0. -1.
         23    2    1    2    0    0  0.00000000000E+00  0.00000000000E+00  0.00000000000E+00  0.91188000000E+02  0.91188000000E+02 0.  0.
    9900012    2    3    3    0    0 -0.18947579512E+02 -0.10114529433E+02 -0.29907639707E+02  0.54367063186E+02  0.39999952145E+02 0.  0.
        -12    1    3    3    0    0  0.18947579512E+02  0.10114529433E+02  0.29907639707E+02  0.36820936814E+02  0.00000000000E+00 0.  1.
         11    1    4    4    0    0 -0.49147235344E+01 -0.50766884635E+01 -0.22561510087E+01  0.74173776236E+01  0.51100000000E-03 0. -1.
        -11    1    4    4    0    0  0.10483149048E+02 -0.26136772797E+01 -0.13098407307E+01  0.10883170764E+02  0.51100000000E-03 0.  1.
        -12    1    4    4    0    0 -0.24516005026E+02 -0.24241636900E+01 -0.26341647968E+02  0.36066514798E+02  0.00000000000E+00 0.  1.
</event>
<event>
 8    1  0.1262344E-006  0.9118800E+02  0.7816164E-02  0.1184000E+00
        -11   -1    0    0    0    0  0.00000000000E+00  0.00000000000E+00  0.45593999997E+02  0.45594000000E+02  0.51100000000E-03 0. -1.
         11   -1    0    0    0    0 -0.00000000000E+00 -0.00000000000E+00 -0.45593999997E+02  0.45594000000E+02  0.51100000000E-03 0.  1.
         23    2    1    2    0    0 -0.26645352591E-14 -0.17763568394E-14  0.00000000000E+00  0.91188000000E+02  0.91188000000E+02 0.  0.
    9900012    2    3    3    0    0  0.49878424748E+01  0.43051051120E+01  0.36226614071E+02  0.54367081087E+02  0.39999992954E+02 0.  0.
        -12    1    3    3    0    0 -0.49878424748E+01 -0.43051051120E+01 -0.36226614071E+02  0.36820918913E+02  0.00000000000E+00 0.  1.
         11    1    4    4    0    0 -0.11466393895E+02  0.59926831335E+01  0.17383930484E+02  0.21670059516E+02  0.51100000000E-03 0. -1.
        -11    1    4    4    0    0  0.12703577325E+02 -0.10102174852E+02  0.69566209227E+01  0.17658691586E+02  0.51100000000E-03 0.  1.
        -12    1    4    4    0    0  0.37506590442E+01  0.84145968309E+01  0.11886062664E+02  0.15038329985E+02  0.00000000000E+00 0.  1.
</event>
<event>
 8    1  0.1262344E-006  0.9118800E+02  0.7816164E-02  0.1184000E+00
        -11   -1    0    0    0    0  0.00000000000E+00  0.00000000000E+00  0.45593999997E+02  0.45594000000E+02  0.51100000000E-03 0. -1.
         11   -1    0    0    0    0 -0.00000000000E+00 -0.00000000000E+00 -0.45593999997E+02  0.45594000000E+02  0.51100000000E-03 0.  1.
         23    2    1    2    0    0  0.35527136788E-14  0.35527136788E-14 -0.35527136788E-14  0.91188000000E+02  0.91188000000E+02 0.  0.
    9900012    2    3    3    0    0 -0.21829391614E+02 -0.16438869410E+02  0.24678355689E+02  0.54367081961E+02  0.39999994947E+02 0.  0.
        -12    1    3    3    0    0  0.21829391614E+02  0.16438869410E+02 -0.24678355689E+02  0.36820918039E+02  0.00000000000E+00 0.  1.
         11    1    4    4    0    0 -0.17988306723E+02 -0.69002810724E+01  0.42496974631E+01  0.19729495341E+02  0.51100000000E-03 0. -1.
        -11    1    4    4    0    0 -0.12139167743E+02 -0.30251079041E+01  0.20583716877E+02  0.24087342569E+02  0.51100000000E-03 0.  1.
        -12    1    4    4    0    0  0.82980828508E+01 -0.65134804334E+01 -0.15505865090E+00  0.10550244051E+02  0.00000000000E+00 0.  1.
</event>
<event>
 8    1  0.1262344E-006  0.9118800E+02  0.7816164E-02  0.1184000E+00
        -11   -1    0    0    0    0  0.00000000000E+00  0.00000000000E+00  0.45593999997E+02  0.45594000000E+02  0.51100000000E-03 0.  1.
         11   -1    0    0    0    0 -0.00000000000E+00 -0.00000000000E+00 -0.45593999997E+02  0.45594000000E+02  0.51100000000E-03 0. -1.
         23    2    1    2    0    0  0.00000000000E+00 -0.35527136788E-14  0.00000000000E+00  0.91188000000E+02  0.91188000000E+02 0.  0.
    9900012    2    3    3    0    0  0.14616590020E+02 -0.21466404176E+02  0.26102218149E+02  0.54367122711E+02  0.40000087844E+02 0.  0.
         12    1    3    3    0    0 -0.14616590020E+02  0.21466404176E+02 -0.26102218149E+02  0.36820877289E+02  0.00000000000E+00 0. -1.
         11    1    4    4    0    0  0.82139549306E+01 -0.36063055171E+00 -0.40051349784E+01  0.91455025260E+01  0.51100000000E-03 0. -1.
        -11    1    4    4    0    0  0.71776270346E+01 -0.94662862737E+01 -0.10753980522E+01  0.11928343845E+02  0.51100000000E-03 0.  1.
        -12    1    4    4    0    0 -0.77499194561E+00 -0.11639487351E+02  0.31182751179E+02  0.33293276339E+02  0.00000000000E+00 0.  1.
</event>
<event>
 8    1  0.1262344E-006  0.9118800E+02  0.7816164E-02  0.1184000E+00
        -11   -1    0    0    0    0  0.00000000000E+00  0.00000000000E+00  0.45593999997E+02  0.45594000000E+02  0.51100000000E-03 0.  1.
         11   -1    0    0    0    0 -0.00000000000E+00 -0.00000000000E+00 -0.45593999997E+02  0.45594000000E+02  0.51100000000E-03 0. -1.
         23    2    1    2    0    0  0.00000000000E+00  0.00000000000E+00  0.00000000000E+00  0.91188000000E+02  0.91188000000E+02 0.  0.
    9900012    2    3    3    0    0 -0.51413195862E+01  0.34936885683E+02  0.10428901835E+02  0.54367066527E+02  0.39999959761E+02 0.  0.
         12    1    3    3    0    0  0.51413195862E+01 -0.34936885683E+02 -0.10428901835E+02  0.36820933473E+02  0.00000000000E+00 0. -1.
         11    1    4    4    0    0  0.50872299078E+01  0.20068033348E+02 -0.37297236751E+01  0.21036081136E+02  0.51100000000E-03 0. -1.
        -11    1    4    4    0    0  0.16540249377E+00 -0.64963974580E+00 -0.58912371469E+01  0.59292550263E+01  0.51100000000E-03 0.  1.
        -12    1    4    4    0    0 -0.10393951988E+02  0.15518492081E+02  0.20049862657E+02  0.27401730365E+02  0.00000000000E+00 0.  1.
</event>
<event>
 8    1  0.1262344E-006  0.9118800E+02  0.7816164E-02  0.1184000E+00
        -11   -1    0    0    0    0  0.00000000000E+00  0.00000000000E+00  0.45593999997E+02  0.45594000000E+02  0.51100000000E-03 0. -1.
         11   -1    0    0    0    0 -0.00000000000E+00 -0.00000000000E+00 -0.45593999997E+02  0.45594000000E+02  0.51100000000E-03 0.  1.
         23    2    1    2    0    0 -0.22204460493E-14  0.00000000000E+00  0.00000000000E+00  0.91188000000E+02  0.91188000000E+02 0.  0.
    9900012    2    3    3    0    0 -0.36637474410E+01 -0.35419925649E+02 -0.93692735601E+01  0.54367116451E+02  0.40000073574E+02 0.  0.
        -12    1    3    3    0    0  0.36637474410E+01  0.35419925649E+02  0.93692735601E+01  0.36820883549E+02  0.00000000000E+00 0.  1.
         11    1    4    4    0    0 -0.57281006367E+01 -0.57048173103E+01 -0.25366728411E+00  0.80882893618E+01  0.51100000000E-03 0. -1.
        -11    1    4    4    0    0  0.76979531930E+01 -0.29520357091E+02  0.51506560298E+01  0.30939282860E+02  0.51100000000E-03 0.  1.
        -12    1    4    4    0    0 -0.56335999974E+01 -0.19475124756E+00 -0.14266262306E+02  0.15339544229E+02  0.00000000000E+00 0.  1.
</event>
<event>
 8    1  0.1262344E-006  0.9118800E+02  0.7816164E-02  0.1184000E+00
        -11   -1    0    0    0    0  0.00000000000E+00  0.00000000000E+00  0.45593999997E+02  0.45594000000E+02  0.51100000000E-03 0.  1.
         11   -1    0    0    0    0 -0.00000000000E+00 -0.00000000000E+00 -0.45593999997E+02  0.45594000000E+02  0.51100000000E-03 0. -1.
         23    2    1    2    0    0 -0.35527136788E-14  0.00000000000E+00  0.00000000000E+00  0.91188000000E+02  0.91188000000E+02 0.  0.
    9900012    2    3    3    0    0  0.15109945168E+02 -0.91879535943E+01  0.32296297759E+02  0.54367084977E+02  0.40000001821E+02 0.  0.
         12    1    3    3    0    0 -0.15109945168E+02  0.91879535943E+01 -0.32296297759E+02  0.36820915023E+02  0.00000000000E+00 0. -1.
         11    1    4    4    0    0 -0.56260990209E+01 -0.37999438463E+01  0.12312707884E+02  0.14060417459E+02  0.51100000000E-03 0. -1.
        -11    1    4    4    0    0 -0.18721985989E+01  0.36345260637E+01  0.14885072582E+02  0.15436330306E+02  0.51100000000E-03 0.  1.
        -12    1    4    4    0    0  0.22608242788E+02 -0.90225358117E+01  0.50985172934E+01  0.24870337211E+02  0.00000000000E+00 0.  1.
</event>
<event>
 8    1  0.1262344E-006  0.9118800E+02  0.7816164E-02  0.1184000E+00
        -11   -1    0    0    0    0  0.00000000000E+00  0.00000000000E+00  0.45593999997E+02  0.45594000000E+02  0.51100000000E-03 0. -1.
         11   -1    0    0    0    0 -0.00000000000E+00 -0.00000000000E+00 -0.45593999997E+02  0.45594000000E+02  0.51100000000E-03 0.  1.
         23    2    1    2    0    0  0.00000000000E+00  0.35527136788E-14 -0.35527136788E-14  0.91188000000E+02  0.91188000000E+02 0.  0.
    9900012    2    3    3    0    0  0.10603854525E+02  0.30892719306E+02  0.16999357308E+02  0.54367082225E+02  0.39999995548E+02 0.  0.
         12    1    3    3    0    0 -0.10603854525E+02 -0.30892719306E+02 -0.16999357308E+02  0.36820917775E+02  0.00000000000E+00 0. -1.
         11    1    4    4    0    0 -0.42457734633E+01 -0.21175431245E+01  0.27235473394E+01  0.54706756034E+01  0.51100000000E-03 0. -1.
        -11    1    4    4    0    0  0.11703754049E+02  0.53812421224E+01  0.16577207723E+02  0.20993795316E+02  0.51100000000E-03 0.  1.
         12    1    4    4    0    0  0.31458739394E+01  0.27629020308E+02 -0.23013977545E+01  0.27902611306E+02  0.00000000000E+00 0. -1.
</event>
<event>
 8    1  0.1262344E-006  0.9118800E+02  0.7816164E-02  0.1184000E+00
        -11   -1    0    0    0    0  0.00000000000E+00  0.00000000000E+00  0.45593999997E+02  0.45594000000E+02  0.51100000000E-03 0.  1.
         11   -1    0    0    0    0 -0.00000000000E+00 -0.00000000000E+00 -0.45593999997E+02  0.45594000000E+02  0.51100000000E-03 0. -1.
         23    2    1    2    0    0  0.35527136788E-14 -0.17763568394E-14  0.00000000000E+00  0.91188000000E+02  0.91188000000E+02 0.  0.
    9900012    2    3    3    0    0  0.30160932645E+02 -0.72352746868E+01 -0.19843116205E+02  0.54367077707E+02  0.39999985248E+02 0.  0.
        -12    1    3    3    0    0 -0.30160932645E+02  0.72352746868E+01  0.19843116205E+02  0.36820922293E+02  0.00000000000E+00 0.  1.
         11    1    4    4    0    0  0.61213954104E+01 -0.12532627160E+02 -0.98889772986E+01  0.17097663512E+02  0.51100000000E-03 0. -1.
        -11    1    4    4    0    0  0.36394458603E+01 -0.96412093416E+01 -0.64540335110E+00  0.10325455413E+02  0.51100000000E-03 0.  1.
         12    1    4    4    0    0  0.20400091374E+02  0.14938561815E+02 -0.93087355555E+01  0.26943958781E+02  0.00000000000E+00 0. -1.
</event>
<event>
 8    1  0.1262344E-006  0.9118800E+02  0.7816164E-02  0.1184000E+00
        -11   -1    0    0    0    0  0.00000000000E+00  0.00000000000E+00  0.45593999997E+02  0.45594000000E+02  0.51100000000E-03 0.  1.
         11   -1    0    0    0    0 -0.00000000000E+00 -0.00000000000E+00 -0.45593999997E+02  0.45594000000E+02  0.51100000000E-03 0. -1.
         23    2    1    2    0    0 -0.35527136788E-14  0.35527136788E-14  0.00000000000E+00  0.91188000000E+02  0.91188000000E+02 0.  0.
    9900012    2    3    3    0    0 -0.23301704168E+02  0.24383943923E+02 -0.14772792989E+02  0.54367060970E+02  0.39999947092E+02 0.  0.
        -12    1    3    3    0    0  0.23301704168E+02 -0.24383943923E+02  0.14772792989E+02  0.36820939030E+02  0.00000000000E+00 0.  1.
         11    1    4    4    0    0 -0.23813581383E+02  0.23617167924E+02 -0.43711620816E+01  0.33822541850E+02  0.51100000000E-03 0. -1.
        -11    1    4    4    0    0  0.50482041156E+01 -0.62688172475E+01 -0.12560803828E+01  0.81461753397E+01  0.51100000000E-03 0.  1.
        -12    1    4    4    0    0 -0.45363269014E+01  0.70355932469E+01 -0.91455505244E+01  0.12398343780E+02  0.00000000000E+00 0.  1.
</event>
<event>
 8    1  0.1262344E-006  0.9118800E+02  0.7816164E-02  0.1184000E+00
        -11   -1    0    0    0    0  0.00000000000E+00  0.00000000000E+00  0.45593999997E+02  0.45594000000E+02  0.51100000000E-03 0.  1.
         11   -1    0    0    0    0 -0.00000000000E+00 -0.00000000000E+00 -0.45593999997E+02  0.45594000000E+02  0.51100000000E-03 0. -1.
         23    2    1    2    0    0  0.71054273576E-14  0.00000000000E+00  0.17763568394E-14  0.91188000000E+02  0.91188000000E+02 0.  0.
    9900012    2    3    3    0    0 -0.34108120190E+02  0.88424070780E+01 -0.10687816106E+02  0.54367062492E+02  0.39999950564E+02 0.  0.
        -12    1    3    3    0    0  0.34108120190E+02 -0.88424070780E+01  0.10687816106E+02  0.36820937508E+02  0.00000000000E+00 0.  1.
         11    1    4    4    0    0 -0.24875204995E+02  0.56518654272E+01 -0.20832393063E+02  0.32934905608E+02  0.51100000000E-03 0. -1.
        -11    1    4    4    0    0 -0.89980932261E+01  0.36299211515E+01 -0.14643370672E+01  0.98125579019E+01  0.51100000000E-03 0.  1.
        -12    1    4    4    0    0 -0.23482196831E+00 -0.43937950070E+00  0.11608914024E+02  0.11619598983E+02  0.00000000000E+00 0.  1.
</event>
<event>
 8    1  0.1262344E-006  0.9118800E+02  0.7816164E-02  0.1184000E+00
        -11   -1    0    0    0    0  0.00000000000E+00  0.00000000000E+00  0.45593999997E+02  0.45594000000E+02  0.51100000000E-03 0. -1.
         11   -1    0    0    0    0 -0.00000000000E+00 -0.00000000000E+00 -0.45593999997E+02  0.45594000000E+02  0.51100000000E-03 0.  1.
         23    2    1    2    0    0  0.00000000000E+00  0.00000000000E+00 -0.35527136788E-14  0.91188000000E+02  0.91188000000E+02 0.  0.
    9900012    2    3    3    0    0  0.19523446304E+02 -0.11899579187E+02  0.28862013497E+02  0.54367071664E+02  0.39999971473E+02 0.  0.
         12    1    3    3    0    0 -0.19523446304E+02  0.11899579187E+02 -0.28862013497E+02  0.36820928336E+02  0.00000000000E+00 0. -1.
         11    1    4    4    0    0  0.85640692691E+01  0.26763957971E+01  0.31425339698E+02  0.32681162041E+02  0.51100000000E-03 0. -1.
        -11    1    4    4    0    0  0.91906397914E+01 -0.53947725184E+01  0.26488539174E+01  0.10981250277E+02  0.51100000000E-03 0.  1.
         12    1    4    4    0    0  0.17687372430E+01 -0.91812024655E+01 -0.52121801184E+01  0.10704659347E+02  0.00000000000E+00 0. -1.
</event>
<event>
 8    1  0.1262344E-006  0.9118800E+02  0.7816164E-02  0.1184000E+00
        -11   -1    0    0    0    0  0.00000000000E+00  0.00000000000E+00  0.45593999997E+02  0.45594000000E+02  0.51100000000E-03 0.  1.
         11   -1    0    0    0    0 -0.00000000000E+00 -0.00000000000E+00 -0.45593999997E+02  0.45594000000E+02  0.51100000000E-03 0. -1.
         23    2    1    2    0    0  0.00000000000E+00  0.00000000000E+00  0.00000000000E+00  0.91188000000E+02  0.91188000000E+02 0.  0.
    9900012    2    3    3    0    0 -0.28429182073E+02  0.87473147242E+01  0.21703209157E+02  0.54367310219E+02  0.40000515303E+02 0.  0.
         12    1    3    3    0    0  0.28429182073E+02 -0.87473147242E+01 -0.21703209157E+02  0.36820689781E+02  0.00000000000E+00 0. -1.
         11    1    4    4    0    0 -0.27180832439E+02  0.67176647213E+01  0.30677287828E+01  0.28166214362E+02  0.51100000000E-03 0. -1.
        -11    1    4    4    0    0 -0.68274179179E+01 -0.12642139382E+01  0.18456921188E+02  0.19719782258E+02  0.51100000000E-03 0.  1.
         12    1    4    4    0    0  0.55790682838E+01  0.32938639411E+01  0.17855918618E+00  0.64813135984E+01  0.00000000000E+00 0. -1.
</event>
<event>
 8    1  0.1262344E-006  0.9118800E+02  0.7816164E-02  0.1184000E+00
        -11   -1    0    0    0    0  0.00000000000E+00  0.00000000000E+00  0.45593999997E+02  0.45594000000E+02  0.51100000000E-03 0.  1.
         11   -1    0    0    0    0 -0.00000000000E+00 -0.00000000000E+00 -0.45593999997E+02  0.45594000000E+02  0.51100000000E-03 0. -1.
         23    2    1    2    0    0 -0.17763568394E-14 -0.35527136788E-14  0.35527136788E-14  0.91188000000E+02  0.91188000000E+02 0.  0.
    9900012    2    3    3    0    0  0.11396672547E+02  0.19552178848E+02  0.29044959776E+02  0.54367061240E+02  0.39999947708E+02 0.  0.
         12    1    3    3    0    0 -0.11396672547E+02 -0.19552178848E+02 -0.29044959776E+02  0.36820938760E+02  0.00000000000E+00 0. -1.
         11    1    4    4    0    0 -0.13639022128E+01 -0.38353486650E+00  0.25113986029E+02  0.25153918637E+02  0.51100000000E-03 0. -1.
        -11    1    4    4    0    0  0.14426546637E+02  0.91604272370E+01  0.60065926819E+01  0.18114023047E+02  0.51100000000E-03 0.  1.
        -12    1    4    4    0    0 -0.16659718774E+01  0.10775286477E+02 -0.20756189354E+01  0.11099119556E+02  0.00000000000E+00 0.  1.
</event>
<event>
 8    1  0.1262344E-006  0.9118800E+02  0.7816164E-02  0.1184000E+00
        -11   -1    0    0    0    0  0.00000000000E+00  0.00000000000E+00  0.45593999997E+02  0.45594000000E+02  0.51100000000E-03 0.  1.
         11   -1    0    0    0    0 -0.00000000000E+00 -0.00000000000E+00 -0.45593999997E+02  0.45594000000E+02  0.51100000000E-03 0. -1.
         23    2    1    2    0    0  0.00000000000E+00  0.00000000000E+00  0.00000000000E+00  0.91188000000E+02  0.91188000000E+02 0.  0.
    9900012    2    3    3    0    0  0.26698701994E+02  0.15647423364E+02  0.19952843446E+02  0.54367102297E+02  0.40000041306E+02 0.  0.
         12    1    3    3    0    0 -0.26698701994E+02 -0.15647423364E+02 -0.19952843446E+02  0.36820897703E+02  0.00000000000E+00 0. -1.
         11    1    4    4    0    0  0.65724027819E+01 -0.29347618373E+01 -0.33974439187E+01  0.79593926157E+01  0.51100000000E-03 0. -1.
        -11    1    4    4    0    0  0.14798047621E+02  0.12841261957E+02 -0.21698582439E+01  0.19712648404E+02  0.51100000000E-03 0.  1.
        -12    1    4    4    0    0  0.53282515909E+01  0.57409232445E+01  0.25520145609E+02  0.26695061277E+02  0.00000000000E+00 0.  1.
</event>
<event>
 8    1  0.1262344E-006  0.9118800E+02  0.7816164E-02  0.1184000E+00
        -11   -1    0    0    0    0  0.00000000000E+00  0.00000000000E+00  0.45593999997E+02  0.45594000000E+02  0.51100000000E-03 0. -1.
         11   -1    0    0    0    0 -0.00000000000E+00 -0.00000000000E+00 -0.45593999997E+02  0.45594000000E+02  0.51100000000E-03 0.  1.
         23    2    1    2    0    0  0.17763568394E-14  0.00000000000E+00  0.00000000000E+00  0.91188000000E+02  0.91188000000E+02 0.  0.
    9900012    2    3    3    0    0  0.47369728329E+01  0.11265551285E+02 -0.34733666615E+02  0.54367093522E+02  0.40000021301E+02 0.  0.
         12    1    3    3    0    0 -0.47369728329E+01 -0.11265551285E+02  0.34733666615E+02  0.36820906478E+02  0.00000000000E+00 0. -1.
         11    1    4    4    0    0  0.60882442131E+01  0.60308988053E+01  0.79422845658E+00  0.86063498128E+01  0.51100000000E-03 0. -1.
        -11    1    4    4    0    0 -0.12960005363E+02  0.15583649062E+01 -0.29316199162E+02  0.32090960935E+02  0.51100000000E-03 0.  1.
        -12    1    4    4    0    0  0.11608733983E+02  0.36762875739E+01 -0.62116959097E+01  0.13669782774E+02  0.00000000000E+00 0.  1.
</event>
<event>
 8    1  0.1262344E-006  0.9118800E+02  0.7816164E-02  0.1184000E+00
        -11   -1    0    0    0    0  0.00000000000E+00  0.00000000000E+00  0.45593999997E+02  0.45594000000E+02  0.51100000000E-03 0. -1.
         11   -1    0    0    0    0 -0.00000000000E+00 -0.00000000000E+00 -0.45593999997E+02  0.45594000000E+02  0.51100000000E-03 0.  1.
         23    2    1    2    0    0  0.00000000000E+00  0.00000000000E+00 -0.35527136788E-14  0.91188000000E+02  0.91188000000E+02 0.  0.
    9900012    2    3    3    0    0  0.22034824951E+02  0.19406054791E+02 -0.22218277344E+02  0.54367077669E+02  0.39999985162E+02 0.  0.
         12    1    3    3    0    0 -0.22034824951E+02 -0.19406054791E+02  0.22218277344E+02  0.36820922331E+02  0.00000000000E+00 0. -1.
         11    1    4    4    0    0 -0.45321617242E+01 -0.23857639137E+00 -0.98923182625E+01  0.10883720387E+02  0.51100000000E-03 0. -1.
        -11    1    4    4    0    0  0.98759007298E+01  0.35427316784E+01 -0.16854549626E+02  0.19853468370E+02  0.51100000000E-03 0.  1.
         12    1    4    4    0    0  0.16691085946E+02  0.16101899504E+02  0.45285905443E+01  0.23629888912E+02  0.00000000000E+00 0. -1.
</event>
<event>
 8    1  0.1262344E-006  0.9118800E+02  0.7816164E-02  0.1184000E+00
        -11   -1    0    0    0    0  0.00000000000E+00  0.00000000000E+00  0.45593999997E+02  0.45594000000E+02  0.51100000000E-03 0.  1.
         11   -1    0    0    0    0 -0.00000000000E+00 -0.00000000000E+00 -0.45593999997E+02  0.45594000000E+02  0.51100000000E-03 0. -1.
         23    2    1    2    0    0  0.00000000000E+00 -0.17763568394E-14  0.88817841970E-15  0.91188000000E+02  0.91188000000E+02 0.  0.
    9900012    2    3    3    0    0  0.35621634737E+02 -0.80238046923E+01  0.47429941538E+01  0.54367105163E+02  0.40000047840E+02 0.  0.
         12    1    3    3    0    0 -0.35621634737E+02  0.80238046923E+01 -0.47429941538E+01  0.36820894837E+02  0.00000000000E+00 0. -1.
         11    1    4    4    0    0  0.91356697607E+01  0.90316492650E+01 -0.72213133549E+01  0.14736977887E+02  0.51100000000E-03 0. -1.
        -11    1    4    4    0    0  0.18950495655E+02 -0.14786077946E+02 -0.14474179881E+01  0.24079958589E+02  0.51100000000E-03 0.  1.
        -12    1    4    4    0    0  0.75354693212E+01 -0.22693760115E+01  0.13411725497E+02  0.15550168686E+02  0.00000000000E+00 0.  1.
</event>
<event>
 8    1  0.1262344E-006  0.9118800E+02  0.7816164E-02  0.1184000E+00
        -11   -1    0    0    0    0  0.00000000000E+00  0.00000000000E+00  0.45593999997E+02  0.45594000000E+02  0.51100000000E-03 0. -1.
         11   -1    0    0    0    0 -0.00000000000E+00 -0.00000000000E+00 -0.45593999997E+02  0.45594000000E+02  0.51100000000E-03 0.  1.
         23    2    1    2    0    0 -0.35527136788E-14 -0.35527136788E-14 -0.71054273576E-14  0.91188000000E+02  0.91188000000E+02 0.  0.
    9900012    2    3    3    0    0 -0.95046955359E+01 -0.23196135529E+02 -0.26969977996E+02  0.54367086733E+02  0.40000005824E+02 0.  0.
         12    1    3    3    0    0  0.95046955359E+01  0.23196135529E+02  0.26969977996E+02  0.36820913267E+02  0.00000000000E+00 0. -1.
         11    1    4    4    0    0  0.40601230009E+01 -0.58599718845E+01  0.64713140227E+01  0.96281760844E+01  0.51100000000E-03 0. -1.
        -11    1    4    4    0    0 -0.21271595093E+01 -0.94046384009E+01 -0.13205867907E+01  0.97322135592E+01  0.51100000000E-03 0.  1.
        -12    1    4    4    0    0 -0.11437659027E+02 -0.79315252439E+01 -0.32120705228E+02  0.35006697089E+02  0.00000000000E+00 0.  1.
</event>
<event>
 8    1  0.1262344E-006  0.9118800E+02  0.7816164E-02  0.1184000E+00
        -11   -1    0    0    0    0  0.00000000000E+00  0.00000000000E+00  0.45593999997E+02  0.45594000000E+02  0.51100000000E-03 0.  1.
         11   -1    0    0    0    0 -0.00000000000E+00 -0.00000000000E+00 -0.45593999997E+02  0.45594000000E+02  0.51100000000E-03 0. -1.
         23    2    1    2    0    0  0.00000000000E+00  0.00000000000E+00  0.88817841970E-15  0.91188000000E+02  0.91188000000E+02 0.  0.
    9900012    2    3    3    0    0 -0.19981293315E+02 -0.30262852965E+02 -0.63787092669E+01  0.54367078175E+02  0.39999986315E+02 0.  0.
        -12    1    3    3    0    0  0.19981293315E+02  0.30262852965E+02  0.63787092669E+01  0.36820921825E+02  0.00000000000E+00 0.  1.
         11    1    4    4    0    0 -0.22249096512E+02 -0.38078417869E+02 -0.12902494606E+01  0.44120890142E+02  0.51100000000E-03 0. -1.
        -11    1    4    4    0    0 -0.44139460720E+00  0.31307086154E+01 -0.60629292175E+00  0.32192789568E+01  0.51100000000E-03 0.  1.
         12    1    4    4    0    0  0.27091978043E+01  0.46848562882E+01 -0.44821668846E+01  0.70269090762E+01  0.00000000000E+00 0. -1.
</event>
<event>
 8    1  0.1262344E-006  0.9118800E+02  0.7816164E-02  0.1184000E+00
        -11   -1    0    0    0    0  0.00000000000E+00  0.00000000000E+00  0.45593999997E+02  0.45594000000E+02  0.51100000000E-03 0. -1.
         11   -1    0    0    0    0 -0.00000000000E+00 -0.00000000000E+00 -0.45593999997E+02  0.45594000000E+02  0.51100000000E-03 0.  1.
         23    2    1    2    0    0 -0.35527136788E-14  0.00000000000E+00  0.88817841970E-15  0.91188000000E+02  0.91188000000E+02 0.  0.
    9900012    2    3    3    0    0  0.19104280735E+02  0.30503186647E+02  0.77693176995E+01  0.54367078833E+02  0.39999987816E+02 0.  0.
        -12    1    3    3    0    0 -0.19104280735E+02 -0.30503186647E+02 -0.77693176995E+01  0.36820921167E+02  0.00000000000E+00 0.  1.
         11    1    4    4    0    0 -0.28674321564E+01  0.21114720966E+02  0.16721178125E+02  0.27086000200E+02  0.51100000000E-03 0. -1.
        -11    1    4    4    0    0  0.16761336040E+02  0.11301091712E+02 -0.72424641489E+01  0.21473480084E+02  0.51100000000E-03 0.  1.
         12    1    4    4    0    0  0.52103768521E+01 -0.19126260312E+01 -0.17093962770E+01  0.58075985491E+01  0.00000000000E+00 0. -1.
</event>
<event>
 8    1  0.1262344E-006  0.9118800E+02  0.7816164E-02  0.1184000E+00
        -11   -1    0    0    0    0  0.00000000000E+00  0.00000000000E+00  0.45593999997E+02  0.45594000000E+02  0.51100000000E-03 0.  1.
         11   -1    0    0    0    0 -0.00000000000E+00 -0.00000000000E+00 -0.45593999997E+02  0.45594000000E+02  0.51100000000E-03 0. -1.
         23    2    1    2    0    0 -0.88817841970E-15  0.00000000000E+00  0.00000000000E+00  0.91188000000E+02  0.91188000000E+02 0.  0.
    9900012    2    3    3    0    0  0.31975683326E+00  0.25588358291E+02 -0.26474765969E+02  0.54367088040E+02  0.40000008805E+02 0.  0.
        -12    1    3    3    0    0 -0.31975683326E+00 -0.25588358291E+02  0.26474765969E+02  0.36820911960E+02  0.00000000000E+00 0.  1.
         11    1    4    4    0    0 -0.29086913442E+01  0.15515910712E+01 -0.11872533062E+02  0.12321727223E+02  0.51100000000E-03 0. -1.
        -11    1    4    4    0    0 -0.13874354674E+02  0.11490544043E+02 -0.88324391192E+01  0.20063456857E+02  0.51100000000E-03 0.  1.
        -12    1    4    4    0    0  0.17102802851E+02  0.12546223177E+02 -0.57697937876E+01  0.21981903960E+02  0.00000000000E+00 0.  1.
</event>
<event>
 8    1  0.1262344E-006  0.9118800E+02  0.7816164E-02  0.1184000E+00
        -11   -1    0    0    0    0  0.00000000000E+00  0.00000000000E+00  0.45593999997E+02  0.45594000000E+02  0.51100000000E-03 0.  1.
         11   -1    0    0    0    0 -0.00000000000E+00 -0.00000000000E+00 -0.45593999997E+02  0.45594000000E+02  0.51100000000E-03 0. -1.
         23    2    1    2    0    0 -0.35527136788E-14  0.00000000000E+00  0.00000000000E+00  0.91188000000E+02  0.91188000000E+02 0.  0.
    9900012    2    3    3    0    0 -0.19552418129E+02 -0.29102998147E+02  0.11247095493E+02  0.54367099511E+02  0.40000034955E+02 0.  0.
         12    1    3    3    0    0  0.19552418129E+02  0.29102998147E+02 -0.11247095493E+02  0.36820900489E+02  0.00000000000E+00 0. -1.
         11    1    4    4    0    0  0.26333339133E+01 -0.10819561021E+02  0.13109027915E+02  0.17200115154E+02  0.51100000000E-03 0. -1.
        -11    1    4    4    0    0 -0.18448498034E+02 -0.18653363806E+02  0.73277728922E+01  0.27239517559E+02  0.51100000000E-03 0.  1.
         12    1    4    4    0    0 -0.37372540076E+01  0.36992668028E+00 -0.91897053142E+01  0.99274667981E+01  0.00000000000E+00 0. -1.
</event>
<event>
 8    1  0.1262344E-006  0.9118800E+02  0.7816164E-02  0.1184000E+00
        -11   -1    0    0    0    0  0.00000000000E+00  0.00000000000E+00  0.45593999997E+02  0.45594000000E+02  0.51100000000E-03 0.  1.
         11   -1    0    0    0    0 -0.00000000000E+00 -0.00000000000E+00 -0.45593999997E+02  0.45594000000E+02  0.51100000000E-03 0. -1.
         23    2    1    2    0    0  0.88817841970E-15  0.00000000000E+00  0.00000000000E+00  0.91188000000E+02  0.91188000000E+02 0.  0.
    9900012    2    3    3    0    0 -0.68581976756E+01 -0.29827459725E+02 -0.20471251524E+02  0.54367022719E+02  0.39999859892E+02 0.  0.
         12    1    3    3    0    0  0.68581976756E+01  0.29827459725E+02  0.20471251524E+02  0.36820977281E+02  0.00000000000E+00 0. -1.
         11    1    4    4    0    0  0.34502773818E+01 -0.28925624640E+01 -0.93054044953E+01  0.10337402222E+02  0.51100000000E-03 0. -1.
        -11    1    4    4    0    0 -0.15866772573E+02 -0.31543012682E+02 -0.10147431769E+02  0.36738079600E+02  0.51100000000E-03 0.  1.
        -12    1    4    4    0    0  0.55582975158E+01  0.46081154213E+01 -0.10184152591E+01  0.72915408968E+01  0.00000000000E+00 0.  1.
</event>
<event>
 8    1  0.1262344E-006  0.9118800E+02  0.7816164E-02  0.1184000E+00
        -11   -1    0    0    0    0  0.00000000000E+00  0.00000000000E+00  0.45593999997E+02  0.45594000000E+02  0.51100000000E-03 0.  1.
         11   -1    0    0    0    0 -0.00000000000E+00 -0.00000000000E+00 -0.45593999997E+02  0.45594000000E+02  0.51100000000E-03 0. -1.
         23    2    1    2    0    0  0.00000000000E+00  0.00000000000E+00 -0.35527136788E-14  0.91188000000E+02  0.91188000000E+02 0.  0.
    9900012    2    3    3    0    0  0.17663894330E+02  0.17978826110E+02  0.26842670118E+02  0.54367078091E+02  0.39999986124E+02 0.  0.
         12    1    3    3    0    0 -0.17663894330E+02 -0.17978826110E+02 -0.26842670118E+02  0.36820921909E+02  0.00000000000E+00 0. -1.
         11    1    4    4    0    0  0.15667325215E+02 -0.26645162443E+01  0.10616768453E+02  0.19112312755E+02  0.51100000000E-03 0. -1.
        -11    1    4    4    0    0 -0.26615162201E+01  0.69014819630E+01  0.19082855262E+02  0.20466301256E+02  0.51100000000E-03 0.  1.
         12    1    4    4    0    0  0.46580853351E+01  0.13741860391E+02 -0.28569535966E+01  0.14788464080E+02  0.00000000000E+00 0. -1.
</event>
<event>
 8    1  0.1262344E-006  0.9118800E+02  0.7816164E-02  0.1184000E+00
        -11   -1    0    0    0    0  0.00000000000E+00  0.00000000000E+00  0.45593999997E+02  0.45594000000E+02  0.51100000000E-03 0. -1.
         11   -1    0    0    0    0 -0.00000000000E+00 -0.00000000000E+00 -0.45593999997E+02  0.45594000000E+02  0.51100000000E-03 0.  1.
         23    2    1    2    0    0  0.17763568394E-14  0.00000000000E+00  0.00000000000E+00  0.91188000000E+02  0.91188000000E+02 0.  0.
    9900012    2    3    3    0    0 -0.10251202158E+02 -0.12223404874E+02 -0.33185548984E+02  0.54367089721E+02  0.40000012638E+02 0.  0.
         12    1    3    3    0    0  0.10251202158E+02  0.12223404874E+02  0.33185548984E+02  0.36820910279E+02  0.00000000000E+00 0. -1.
         11    1    4    4    0    0 -0.16627810675E+02 -0.17285960537E+02 -0.18010329736E+02  0.29994341082E+02  0.51100000000E-03 0.  1.
        -11    1    4    4    0    0 -0.12342516934E+01 -0.28775715661E+01  0.21874862130E+01  0.38195407517E+01  0.51100000000E-03 0. -1.
        -12    1    4    4    0    0  0.76108602099E+01  0.79401272284E+01 -0.17362705461E+02  0.20553207887E+02  0.00000000000E+00 0.  1.
</event>
<event>
 8    1  0.1262344E-006  0.9118800E+02  0.7816164E-02  0.1184000E+00
        -11   -1    0    0    0    0  0.00000000000E+00  0.00000000000E+00  0.45593999997E+02  0.45594000000E+02  0.51100000000E-03 0.  1.
         11   -1    0    0    0    0 -0.00000000000E+00 -0.00000000000E+00 -0.45593999997E+02  0.45594000000E+02  0.51100000000E-03 0. -1.
         23    2    1    2    0    0  0.00000000000E+00  0.00000000000E+00  0.31918911958E-15  0.91188000000E+02  0.91188000000E+02 0.  0.
    9900012    2    3    3    0    0  0.10361538786E+02 -0.35332866469E+02 -0.81677369891E-01  0.54367087327E+02  0.40000007179E+02 0.  0.
         12    1    3    3    0    0 -0.10361538786E+02  0.35332866469E+02  0.81677369891E-01  0.36820912673E+02  0.00000000000E+00 0. -1.
         11    1    4    4    0    0 -0.39077898897E+01 -0.15856703171E+02 -0.53693397759E+01  0.17191150839E+02  0.51100000000E-03 0. -1.
        -11    1    4    4    0    0  0.21817807397E+02 -0.15257620552E+02  0.85057816091E+01  0.27949240161E+02  0.51100000000E-03 0.  1.
        -12    1    4    4    0    0 -0.75484787217E+01 -0.42185427457E+01 -0.32181192032E+01  0.92266963272E+01  0.00000000000E+00 0.  1.
</event>
<event>
 8    1  0.1262344E-006  0.9118800E+02  0.7816164E-02  0.1184000E+00
        -11   -1    0    0    0    0  0.00000000000E+00  0.00000000000E+00  0.45593999997E+02  0.45594000000E+02  0.51100000000E-03 0.  1.
         11   -1    0    0    0    0 -0.00000000000E+00 -0.00000000000E+00 -0.45593999997E+02  0.45594000000E+02  0.51100000000E-03 0. -1.
         23    2    1    2    0    0 -0.24424906542E-14  0.00000000000E+00  0.35527136788E-14  0.91188000000E+02  0.91188000000E+02 0.  0.
    9900012    2    3    3    0    0  0.13079692955E+01 -0.23964559488E+02  0.27924342673E+02  0.54367084628E+02  0.40000001026E+02 0.  0.
         12    1    3    3    0    0 -0.13079692955E+01  0.23964559488E+02 -0.27924342673E+02  0.36820915372E+02  0.00000000000E+00 0. -1.
         11    1    4    4    0    0  0.12932269557E+02 -0.14424612507E+02  0.42760103698E+01  0.19839286953E+02  0.51100000000E-03 0. -1.
        -11    1    4    4    0    0 -0.11026246360E+02 -0.14934457360E+02  0.22143444984E+02  0.28895471642E+02  0.51100000000E-03 0.  1.
         12    1    4    4    0    0 -0.59805390124E+00  0.53945103783E+01  0.15048873190E+01  0.56323260322E+01  0.00000000000E+00 0. -1.
</event>
<event>
 8    1  0.1262344E-006  0.9118800E+02  0.7816164E-02  0.1184000E+00
        -11   -1    0    0    0    0  0.00000000000E+00  0.00000000000E+00  0.45593999997E+02  0.45594000000E+02  0.51100000000E-03 0.  1.
         11   -1    0    0    0    0 -0.00000000000E+00 -0.00000000000E+00 -0.45593999997E+02  0.45594000000E+02  0.51100000000E-03 0. -1.
         23    2    1    2    0    0  0.00000000000E+00 -0.17763568394E-14  0.35527136788E-14  0.91188000000E+02  0.91188000000E+02 0.  0.
    9900012    2    3    3    0    0 -0.16516474627E+02  0.10412178219E+02 -0.31218140424E+02  0.54367086364E+02  0.40000004985E+02 0.  0.
        -12    1    3    3    0    0  0.16516474627E+02 -0.10412178219E+02  0.31218140424E+02  0.36820913636E+02  0.00000000000E+00 0.  1.
         11    1    4    4    0    0  0.31786313318E+01  0.79042722745E+00  0.14813681576E+01  0.35948468987E+01  0.51100000000E-03 0. -1.
        -11    1    4    4    0    0 -0.38299560811E+01  0.19652146478E+02 -0.18142006457E+02  0.27018656949E+02  0.51100000000E-03 0.  1.
        -12    1    4    4    0    0 -0.15865149878E+02 -0.10030395486E+02 -0.14557502125E+02  0.23753582517E+02  0.00000000000E+00 0.  1.
</event>
<event>
 8    1  0.1262344E-006  0.9118800E+02  0.7816164E-02  0.1184000E+00
        -11   -1    0    0    0    0  0.00000000000E+00  0.00000000000E+00  0.45593999997E+02  0.45594000000E+02  0.51100000000E-03 0.  1.
         11   -1    0    0    0    0 -0.00000000000E+00 -0.00000000000E+00 -0.45593999997E+02  0.45594000000E+02  0.51100000000E-03 0. -1.
         23    2    1    2    0    0 -0.35527136788E-14  0.00000000000E+00 -0.17763568394E-14  0.91188000000E+02  0.91188000000E+02 0.  0.
    9900012    2    3    3    0    0 -0.23462315283E+02  0.23724349107E+02 -0.15570970115E+02  0.54367080820E+02  0.39999992345E+02 0.  0.
        -12    1    3    3    0    0  0.23462315283E+02 -0.23724349107E+02  0.15570970115E+02  0.36820919180E+02  0.00000000000E+00 0.  1.
         11    1    4    4    0    0 -0.24096535496E+02  0.17413893923E+02 -0.89980359256E+01  0.31062056842E+02  0.51100000000E-03 0. -1.
        -11    1    4    4    0    0  0.82380892597E+01 -0.42977794056E+01 -0.23109254020E+01  0.95748315361E+01  0.51100000000E-03 0.  1.
        -12    1    4    4    0    0 -0.76038690460E+01  0.10608234590E+02 -0.42620087870E+01  0.13730192441E+02  0.00000000000E+00 0.  1.
</event>
<event>
 8    1  0.1262344E-006  0.9118800E+02  0.7816164E-02  0.1184000E+00
        -11   -1    0    0    0    0  0.00000000000E+00  0.00000000000E+00  0.45593999997E+02  0.45594000000E+02  0.51100000000E-03 0.  1.
         11   -1    0    0    0    0 -0.00000000000E+00 -0.00000000000E+00 -0.45593999997E+02  0.45594000000E+02  0.51100000000E-03 0. -1.
         23    2    1    2    0    0  0.00000000000E+00 -0.35527136788E-14  0.17763568394E-14  0.91188000000E+02  0.91188000000E+02 0.  0.
    9900012    2    3    3    0    0  0.27728250739E+02  0.19568453285E+02 -0.14282836682E+02  0.54367086423E+02  0.40000005118E+02 0.  0.
         12    1    3    3    0    0 -0.27728250739E+02 -0.19568453285E+02  0.14282836682E+02  0.36820913577E+02  0.00000000000E+00 0. -1.
         11    1    4    4    0    0  0.14599543151E+02  0.31927826695E+01 -0.37284189692E+01  0.15402650086E+02  0.51100000000E-03 0. -1.
        -11    1    4    4    0    0  0.46436709940E+01 -0.64803867484E+01 -0.12149966834E+02  0.14532060660E+02  0.51100000000E-03 0.  1.
         12    1    4    4    0    0  0.84850365933E+01  0.22856057364E+02  0.15955491206E+01  0.24432375676E+02  0.00000000000E+00 0. -1.
</event>
<event>
 8    1  0.1262344E-006  0.9118800E+02  0.7816164E-02  0.1184000E+00
        -11   -1    0    0    0    0  0.00000000000E+00  0.00000000000E+00  0.45593999997E+02  0.45594000000E+02  0.51100000000E-03 0. -1.
         11   -1    0    0    0    0 -0.00000000000E+00 -0.00000000000E+00 -0.45593999997E+02  0.45594000000E+02  0.51100000000E-03 0.  1.
         23    2    1    2    0    0  0.00000000000E+00 -0.44408920985E-15  0.71054273576E-14  0.91188000000E+02  0.91188000000E+02 0.  0.
    9900012    2    3    3    0    0 -0.25974769844E+02 -0.29092569089E+01  0.25935041744E+02  0.54367097859E+02  0.40000031190E+02 0.  0.
        -12    1    3    3    0    0  0.25974769844E+02  0.29092569089E+01 -0.25935041744E+02  0.36820902141E+02  0.00000000000E+00 0.  1.
         11    1    4    4    0    0 -0.78517876694E+00  0.27019981391E+01  0.17611216650E+02  0.17834580225E+02  0.51100000000E-03 0. -1.
        -11    1    4    4    0    0 -0.44310229540E+01  0.56694549104E+01 -0.55920984384E+01  0.91130811807E+01  0.51100000000E-03 0.  1.
        -12    1    4    4    0    0 -0.20758568123E+02 -0.11280709958E+02  0.13915923532E+02  0.27419436454E+02  0.00000000000E+00 0.  1.
</event>
<event>
 8    1  0.1262344E-006  0.9118800E+02  0.7816164E-02  0.1184000E+00
        -11   -1    0    0    0    0  0.00000000000E+00  0.00000000000E+00  0.45593999997E+02  0.45594000000E+02  0.51100000000E-03 0.  1.
         11   -1    0    0    0    0 -0.00000000000E+00 -0.00000000000E+00 -0.45593999997E+02  0.45594000000E+02  0.51100000000E-03 0. -1.
         23    2    1    2    0    0  0.00000000000E+00  0.00000000000E+00  0.35527136788E-14  0.91188000000E+02  0.91188000000E+02 0.  0.
    9900012    2    3    3    0    0 -0.31529643817E+02 -0.11633243441E+02  0.15044296043E+02  0.54367059822E+02  0.39999944476E+02 0.  0.
         12    1    3    3    0    0  0.31529643817E+02  0.11633243441E+02 -0.15044296043E+02  0.36820940178E+02  0.00000000000E+00 0. -1.
         11    1    4    4    0    0  0.49517026935E+01 -0.32790782394E+01 -0.15928093004E+01  0.61488824508E+01  0.51100000000E-03 0. -1.
        -11    1    4    4    0    0  0.35650169719E+01 -0.27097230404E+01 -0.25164553706E-01  0.44780105495E+01  0.51100000000E-03 0.  1.
        -12    1    4    4    0    0 -0.40046363482E+02 -0.56444421612E+01  0.16662269897E+02  0.43740166822E+02  0.00000000000E+00 0.  1.
</event>
<event>
 8    1  0.1262344E-006  0.9118800E+02  0.7816164E-02  0.1184000E+00
        -11   -1    0    0    0    0  0.00000000000E+00  0.00000000000E+00  0.45593999997E+02  0.45594000000E+02  0.51100000000E-03 0.  1.
         11   -1    0    0    0    0 -0.00000000000E+00 -0.00000000000E+00 -0.45593999997E+02  0.45594000000E+02  0.51100000000E-03 0. -1.
         23    2    1    2    0    0 -0.35527136788E-14  0.35527136788E-14  0.88817841970E-15  0.91188000000E+02  0.91188000000E+02 0.  0.
    9900012    2    3    3    0    0 -0.31040378883E+02  0.18539981239E+02 -0.69673090573E+01  0.54367089894E+02  0.40000013032E+02 0.  0.
        -12    1    3    3    0    0  0.31040378883E+02 -0.18539981239E+02  0.69673090573E+01  0.36820910106E+02  0.00000000000E+00 0.  1.
         11    1    4    4    0    0 -0.20138824770E+02  0.48584863238E+01 -0.16174325044E+02  0.26282806992E+02  0.51100000000E-03 0. -1.
        -11    1    4    4    0    0  0.35606374925E+00  0.14924446177E+02  0.32152731665E+01  0.15271013617E+02  0.51100000000E-03 0.  1.
         12    1    4    4    0    0 -0.11257617862E+02 -0.12429512622E+01  0.59917428200E+01  0.12813269286E+02  0.00000000000E+00 0. -1.
</event>
<event>
 8    1  0.1262344E-006  0.9118800E+02  0.7816164E-02  0.1184000E+00
        -11   -1    0    0    0    0  0.00000000000E+00  0.00000000000E+00  0.45593999997E+02  0.45594000000E+02  0.51100000000E-03 0. -1.
         11   -1    0    0    0    0 -0.00000000000E+00 -0.00000000000E+00 -0.45593999997E+02  0.45594000000E+02  0.51100000000E-03 0.  1.
         23    2    1    2    0    0  0.44408920985E-15  0.00000000000E+00  0.00000000000E+00  0.91188000000E+02  0.91188000000E+02 0.  0.
    9900012    2    3    3    0    0 -0.26218739691E+01 -0.19234793337E+02 -0.31287911262E+02  0.54367015643E+02  0.39999843761E+02 0.  0.
         12    1    3    3    0    0  0.26218739691E+01  0.19234793337E+02  0.31287911262E+02  0.36820984357E+02  0.00000000000E+00 0. -1.
         11    1    4    4    0    0  0.96599113995E+01 -0.17327134856E+01 -0.17747292396E+02  0.20280102858E+02  0.51100000000E-03 0. -1.
        -11    1    4    4    0    0 -0.17004920151E+02 -0.76685793208E+01 -0.29558403753E+01  0.18886805201E+02  0.51100000000E-03 0.  1.
        -12    1    4    4    0    0  0.47231347819E+01 -0.98335005309E+01 -0.10584778491E+02  0.15200107584E+02  0.00000000000E+00 0.  1.
</event>
<event>
 8    1  0.1262344E-006  0.9118800E+02  0.7816164E-02  0.1184000E+00
        -11   -1    0    0    0    0  0.00000000000E+00  0.00000000000E+00  0.45593999997E+02  0.45594000000E+02  0.51100000000E-03 0.  1.
         11   -1    0    0    0    0 -0.00000000000E+00 -0.00000000000E+00 -0.45593999997E+02  0.45594000000E+02  0.51100000000E-03 0. -1.
         23    2    1    2    0    0  0.00000000000E+00 -0.17763568394E-14  0.00000000000E+00  0.91188000000E+02  0.91188000000E+02 0.  0.
    9900012    2    3    3    0    0 -0.85852918654E+01  0.96506866789E+01 -0.34480965481E+02  0.54367082436E+02  0.39999996029E+02 0.  0.
        -12    1    3    3    0    0  0.85852918654E+01 -0.96506866789E+01  0.34480965481E+02  0.36820917564E+02  0.00000000000E+00 0.  1.
         11    1    4    4    0    0 -0.75634141890E+01  0.34229778995E+01  0.63638027914E+00  0.83262832053E+01  0.51100000000E-03 0. -1.
        -11    1    4    4    0    0  0.78801684479E+01 -0.91039512638E+01 -0.13782604544E+02  0.18301343438E+02  0.51100000000E-03 0.  1.
        -12    1    4    4    0    0 -0.89020461244E+01  0.15331660043E+02 -0.21334741216E+02  0.27739455792E+02  0.00000000000E+00 0.  1.
</event>
<event>
 8    1  0.1262344E-006  0.9118800E+02  0.7816164E-02  0.1184000E+00
        -11   -1    0    0    0    0  0.00000000000E+00  0.00000000000E+00  0.45593999997E+02  0.45594000000E+02  0.51100000000E-03 0.  1.
         11   -1    0    0    0    0 -0.00000000000E+00 -0.00000000000E+00 -0.45593999997E+02  0.45594000000E+02  0.51100000000E-03 0. -1.
         23    2    1    2    0    0  0.00000000000E+00  0.88817841970E-15  0.00000000000E+00  0.91188000000E+02  0.91188000000E+02 0.  0.
    9900012    2    3    3    0    0  0.26488909640E+02 -0.30235843122E+01  0.25396394451E+02  0.54367065097E+02  0.39999956501E+02 0.  0.
         12    1    3    3    0    0 -0.26488909640E+02  0.30235843122E+01 -0.25396394451E+02  0.36820934903E+02  0.00000000000E+00 0. -1.
         11    1    4    4    0    0  0.95195637993E+01 -0.10141126584E+02 -0.11566825285E+00  0.13909634169E+02  0.51100000000E-03 0. -1.
        -11    1    4    4    0    0  0.58628846911E+01  0.12091555019E+02  0.14792300251E+01  0.13519143516E+02  0.51100000000E-03 0.  1.
        -12    1    4    4    0    0  0.11106461150E+02 -0.49740127477E+01  0.24032832679E+02  0.26938287412E+02  0.00000000000E+00 0.  1.
</event>
<event>
 8    1  0.1262344E-006  0.9118800E+02  0.7816164E-02  0.1184000E+00
        -11   -1    0    0    0    0  0.00000000000E+00  0.00000000000E+00  0.45593999997E+02  0.45594000000E+02  0.51100000000E-03 0.  1.
         11   -1    0    0    0    0 -0.00000000000E+00 -0.00000000000E+00 -0.45593999997E+02  0.45594000000E+02  0.51100000000E-03 0. -1.
         23    2    1    2    0    0  0.00000000000E+00 -0.88817841970E-15  0.00000000000E+00  0.91188000000E+02  0.91188000000E+02 0.  0.
    9900012    2    3    3    0    0 -0.18049748161E+02 -0.50081727529E+01  0.31700217756E+02  0.54367095492E+02  0.40000025792E+02 0.  0.
         12    1    3    3    0    0  0.18049748161E+02  0.50081727529E+01 -0.31700217756E+02  0.36820904508E+02  0.00000000000E+00 0. -1.
         11    1    4    4    0    0 -0.15698800793E+02 -0.24275904827E+01  0.27032031183E+02  0.31354046821E+02  0.51100000000E-03 0. -1.
        -11    1    4    4    0    0  0.45451389530E+01 -0.83576808040E+01  0.89392653519E+01  0.13054485123E+02  0.51100000000E-03 0.  1.
         12    1    4    4    0    0 -0.68960863209E+01  0.57770985337E+01 -0.42710787786E+01  0.99585635484E+01  0.00000000000E+00 0. -1.
</event>
<event>
 8    1  0.1262344E-006  0.9118800E+02  0.7816164E-02  0.1184000E+00
        -11   -1    0    0    0    0  0.00000000000E+00  0.00000000000E+00  0.45593999997E+02  0.45594000000E+02  0.51100000000E-03 0. -1.
         11   -1    0    0    0    0 -0.00000000000E+00 -0.00000000000E+00 -0.45593999997E+02  0.45594000000E+02  0.51100000000E-03 0.  1.
         23    2    1    2    0    0  0.17763568394E-14 -0.88817841970E-15 -0.71054273576E-14  0.91188000000E+02  0.91188000000E+02 0.  0.
    9900012    2    3    3    0    0 -0.39226323964E+01  0.52929617936E+01 -0.36226756615E+02  0.54367076813E+02  0.39999983212E+02 0.  0.
         12    1    3    3    0    0  0.39226323964E+01 -0.52929617936E+01  0.36226756615E+02  0.36820923187E+02  0.00000000000E+00 0. -1.
         11    1    4    4    0    0 -0.15034234356E+01 -0.51277241813E+01 -0.50197351829E+01  0.73315468268E+01  0.51100000000E-03 0. -1.
        -11    1    4    4    0    0 -0.13208780419E+02  0.89011799628E+01 -0.32371012453E+02  0.36077490661E+02  0.51100000000E-03 0.  1.
        -12    1    4    4    0    0  0.10789571458E+02  0.15195060122E+01  0.11639910205E+01  0.10958039326E+02  0.00000000000E+00 0.  1.
</event>
<event>
 8    1  0.1262344E-006  0.9118800E+02  0.7816164E-02  0.1184000E+00
        -11   -1    0    0    0    0  0.00000000000E+00  0.00000000000E+00  0.45593999997E+02  0.45594000000E+02  0.51100000000E-03 0. -1.
         11   -1    0    0    0    0 -0.00000000000E+00 -0.00000000000E+00 -0.45593999997E+02  0.45594000000E+02  0.51100000000E-03 0.  1.
         23    2    1    2    0    0  0.00000000000E+00  0.00000000000E+00  0.00000000000E+00  0.91188000000E+02  0.91188000000E+02 0.  0.
    9900012    2    3    3    0    0 -0.10018186651E+02 -0.27643064211E+02  0.22164759591E+02  0.54367087050E+02  0.40000006549E+02 0.  0.
        -12    1    3    3    0    0  0.10018186651E+02  0.27643064211E+02 -0.22164759591E+02  0.36820912950E+02  0.00000000000E+00 0.  1.
         11    1    4    4    0    0 -0.91515945753E+01  0.78674887709E+01  0.40119972985E+01  0.12717908060E+02  0.51100000000E-03 0. -1.
        -11    1    4    4    0    0  0.11546371211E+01 -0.12401891881E+02  0.12764745966E+02  0.17834765178E+02  0.51100000000E-03 0.  1.
        -12    1    4    4    0    0 -0.20212291967E+01 -0.23108661101E+02  0.53880163263E+01  0.23814413813E+02  0.00000000000E+00 0.  1.
</event>
<event>
 8    1  0.1262344E-006  0.9118800E+02  0.7816164E-02  0.1184000E+00
        -11   -1    0    0    0    0  0.00000000000E+00  0.00000000000E+00  0.45593999997E+02  0.45594000000E+02  0.51100000000E-03 0.  1.
         11   -1    0    0    0    0 -0.00000000000E+00 -0.00000000000E+00 -0.45593999997E+02  0.45594000000E+02  0.51100000000E-03 0. -1.
         23    2    1    2    0    0  0.00000000000E+00 -0.88817841970E-15  0.35527136788E-14  0.91188000000E+02  0.91188000000E+02 0.  0.
    9900012    2    3    3    0    0 -0.25354350700E+02 -0.25281927543E+01 -0.26580925674E+02  0.54367075681E+02  0.39999980630E+02 0.  0.
        -12    1    3    3    0    0  0.25354350700E+02  0.25281927543E+01  0.26580925674E+02  0.36820924319E+02  0.00000000000E+00 0.  1.
         11    1    4    4    0    0 -0.24184330791E+02 -0.87995136121E+01 -0.37934834611E+00  0.25738243939E+02  0.51100000000E-03 0. -1.
        -11    1    4    4    0    0  0.28787188827E+01  0.49284843953E+00 -0.15750489302E+02  0.16018983598E+02  0.51100000000E-03 0.  1.
         12    1    4    4    0    0 -0.40487387911E+01  0.57784724182E+01 -0.10451088026E+02  0.12609848144E+02  0.00000000000E+00 0. -1.
</event>
<event>
 8    1  0.1262344E-006  0.9118800E+02  0.7816164E-02  0.1184000E+00
        -11   -1    0    0    0    0  0.00000000000E+00  0.00000000000E+00  0.45593999997E+02  0.45594000000E+02  0.51100000000E-03 0.  1.
         11   -1    0    0    0    0 -0.00000000000E+00 -0.00000000000E+00 -0.45593999997E+02  0.45594000000E+02  0.51100000000E-03 0. -1.
         23    2    1    2    0    0  0.88817841970E-15  0.00000000000E+00  0.00000000000E+00  0.91188000000E+02  0.91188000000E+02 0.  0.
    9900012    2    3    3    0    0 -0.60243585821E+01 -0.15524093675E+02 -0.32840321348E+02  0.54367121588E+02  0.40000085284E+02 0.  0.
        -12    1    3    3    0    0  0.60243585821E+01  0.15524093675E+02  0.32840321348E+02  0.36820878412E+02  0.00000000000E+00 0.  1.
         11    1    4    4    0    0 -0.48908967498E+01 -0.83695148781E+01 -0.39512714911E+02  0.40684447769E+02  0.51100000000E-03 0. -1.
        -11    1    4    4    0    0  0.35025480020E+01 -0.32984664641E+01  0.58849974088E+01  0.76013760783E+01  0.51100000000E-03 0.  1.
         12    1    4    4    0    0 -0.46360098344E+01 -0.38561123333E+01  0.78739615396E+00  0.60812977410E+01  0.00000000000E+00 0. -1.
</event>
<event>
 8    1  0.1262344E-006  0.9118800E+02  0.7816164E-02  0.1184000E+00
        -11   -1    0    0    0    0  0.00000000000E+00  0.00000000000E+00  0.45593999997E+02  0.45594000000E+02  0.51100000000E-03 0. -1.
         11   -1    0    0    0    0 -0.00000000000E+00 -0.00000000000E+00 -0.45593999997E+02  0.45594000000E+02  0.51100000000E-03 0.  1.
         23    2    1    2    0    0  0.44408920985E-15  0.00000000000E+00  0.13322676296E-14  0.91188000000E+02  0.91188000000E+02 0.  0.
    9900012    2    3    3    0    0 -0.35009111012E+01 -0.36587470587E+02  0.22092511401E+01  0.54367079681E+02  0.39999989749E+02 0.  0.
         12    1    3    3    0    0  0.35009111012E+01  0.36587470587E+02 -0.22092511401E+01  0.36820920319E+02  0.00000000000E+00 0. -1.
         11    1    4    4    0    0 -0.37721348446E+01 -0.68823311255E+01 -0.16017413876E+02  0.17836844747E+02  0.51100000000E-03 0. -1.
        -11    1    4    4    0    0  0.49587287743E+01 -0.13804910659E+02  0.11506504701E+02  0.18643073783E+02  0.51100000000E-03 0.  1.
         12    1    4    4    0    0 -0.46875050309E+01 -0.15900228803E+02  0.67201603147E+01  0.17887161151E+02  0.00000000000E+00 0. -1.
</event>
<event>
 8    1  0.1262344E-006  0.9118800E+02  0.7816164E-02  0.1184000E+00
        -11   -1    0    0    0    0  0.00000000000E+00  0.00000000000E+00  0.45593999997E+02  0.45594000000E+02  0.51100000000E-03 0.  1.
         11   -1    0    0    0    0 -0.00000000000E+00 -0.00000000000E+00 -0.45593999997E+02  0.45594000000E+02  0.51100000000E-03 0. -1.
         23    2    1    2    0    0 -0.35527136788E-14 -0.35527136788E-14  0.00000000000E+00  0.91188000000E+02  0.91188000000E+02 0.  0.
    9900012    2    3    3    0    0  0.15236311441E+02 -0.21112530370E+02  0.26036423533E+02  0.54367089157E+02  0.40000011350E+02 0.  0.
         12    1    3    3    0    0 -0.15236311441E+02  0.21112530370E+02 -0.26036423533E+02  0.36820910843E+02  0.00000000000E+00 0. -1.
         11    1    4    4    0    0  0.19377069692E+02 -0.14087828898E+01 -0.44008680580E+00  0.19433197775E+02  0.51100000000E-03 0. -1.
        -11    1    4    4    0    0 -0.64885611989E+01 -0.99629153369E+01  0.19074231875E+02  0.22476374937E+02  0.51100000000E-03 0.  1.
         12    1    4    4    0    0  0.23478029481E+01 -0.97408321428E+01  0.74022784641E+01  0.12457516445E+02  0.00000000000E+00 0. -1.
</event>
<event>
 8    1  0.1262344E-006  0.9118800E+02  0.7816164E-02  0.1184000E+00
        -11   -1    0    0    0    0  0.00000000000E+00  0.00000000000E+00  0.45593999997E+02  0.45594000000E+02  0.51100000000E-03 0.  1.
         11   -1    0    0    0    0 -0.00000000000E+00 -0.00000000000E+00 -0.45593999997E+02  0.45594000000E+02  0.51100000000E-03 0. -1.
         23    2    1    2    0    0  0.26645352591E-14  0.00000000000E+00 -0.71054273576E-14  0.91188000000E+02  0.91188000000E+02 0.  0.
    9900012    2    3    3    0    0  0.20316986879E+01 -0.14618817127E+02 -0.33733356664E+02  0.54367123237E+02  0.40000089044E+02 0.  0.
        -12    1    3    3    0    0 -0.20316986879E+01  0.14618817127E+02  0.33733356664E+02  0.36820876763E+02  0.00000000000E+00 0.  1.
         11    1    4    4    0    0 -0.11079772537E+02 -0.71960416984E+01 -0.16631339930E+02  0.21240194060E+02  0.51100000000E-03 0. -1.
        -11    1    4    4    0    0  0.16111088568E+02 -0.13696845174E+02 -0.14762978522E+02  0.25789848345E+02  0.51100000000E-03 0.  1.
        -12    1    4    4    0    0 -0.29996173432E+01  0.62740697455E+01 -0.23390382116E+01  0.73370808318E+01  0.00000000000E+00 0.  1.
</event>
<event>
 8    1  0.1262344E-006  0.9118800E+02  0.7816164E-02  0.1184000E+00
        -11   -1    0    0    0    0  0.00000000000E+00  0.00000000000E+00  0.45593999997E+02  0.45594000000E+02  0.51100000000E-03 0. -1.
         11   -1    0    0    0    0 -0.00000000000E+00 -0.00000000000E+00 -0.45593999997E+02  0.45594000000E+02  0.51100000000E-03 0.  1.
         23    2    1    2    0    0  0.35527136788E-14  0.00000000000E+00 -0.35527136788E-14  0.91188000000E+02  0.91188000000E+02 0.  0.
    9900012    2    3    3    0    0  0.23359278722E+02 -0.69788575199E+01 -0.27593835173E+02  0.54367080752E+02  0.39999992191E+02 0.  0.
         12    1    3    3    0    0 -0.23359278722E+02  0.69788575199E+01  0.27593835173E+02  0.36820919248E+02  0.00000000000E+00 0. -1.
         11    1    4    4    0    0 -0.64097777766E+01 -0.12093795282E+02 -0.21163535256E+01  0.13850057327E+02  0.51100000000E-03 0. -1.
        -11    1    4    4    0    0  0.38202187420E+01 -0.17069323468E+01 -0.61972544685E+01  0.74775432116E+01  0.51100000000E-03 0.  1.
         12    1    4    4    0    0  0.25948837757E+02  0.68218701084E+01 -0.19280227179E+02  0.33039480213E+02  0.00000000000E+00 0. -1.
</event>
<event>
 8    1  0.1262344E-006  0.9118800E+02  0.7816164E-02  0.1184000E+00
        -11   -1    0    0    0    0  0.00000000000E+00  0.00000000000E+00  0.45593999997E+02  0.45594000000E+02  0.51100000000E-03 0. -1.
         11   -1    0    0    0    0 -0.00000000000E+00 -0.00000000000E+00 -0.45593999997E+02  0.45594000000E+02  0.51100000000E-03 0.  1.
         23    2    1    2    0    0 -0.35527136788E-14  0.35527136788E-14 -0.26645352591E-14  0.91188000000E+02  0.91188000000E+02 0.  0.
    9900012    2    3    3    0    0  0.19876933546E+02 -0.30148941812E+02  0.71925108523E+01  0.54367035973E+02  0.39999890106E+02 0.  0.
        -12    1    3    3    0    0 -0.19876933546E+02  0.30148941812E+02 -0.71925108523E+01  0.36820964027E+02  0.00000000000E+00 0.  1.
         11    1    4    4    0    0  0.11034968904E+01 -0.25831721512E+02  0.17780131939E+02  0.31378792737E+02  0.51100000000E-03 0. -1.
        -11    1    4    4    0    0 -0.77727516622E-01  0.77424934363E+00 -0.46844378887E-02  0.77815539452E+00  0.51100000000E-03 0.  1.
         12    1    4    4    0    0  0.18851164172E+02 -0.50914696436E+01 -0.10582936648E+02  0.22210087841E+02  0.00000000000E+00 0. -1.
</event>
<event>
 8    1  0.1262344E-006  0.9118800E+02  0.7816164E-02  0.1184000E+00
        -11   -1    0    0    0    0  0.00000000000E+00  0.00000000000E+00  0.45593999997E+02  0.45594000000E+02  0.51100000000E-03 0. -1.
         11   -1    0    0    0    0 -0.00000000000E+00 -0.00000000000E+00 -0.45593999997E+02  0.45594000000E+02  0.51100000000E-03 0.  1.
         23    2    1    2    0    0  0.00000000000E+00  0.00000000000E+00  0.00000000000E+00  0.91188000000E+02  0.91188000000E+02 0.  0.
    9900012    2    3    3    0    0 -0.74662206966E+01  0.35129550886E+02 -0.81209788684E+01  0.54367080746E+02  0.39999992177E+02 0.  0.
         12    1    3    3    0    0  0.74662206966E+01 -0.35129550886E+02  0.81209788684E+01  0.36820919254E+02  0.00000000000E+00 0. -1.
         11    1    4    4    0    0 -0.27237355809E+01 -0.55130933453E+01  0.13449161685E+01  0.62945796929E+01  0.51100000000E-03 0. -1.
        -11    1    4    4    0    0 -0.93060358974E+01  0.10816038731E+02 -0.10760353694E+02  0.17871043894E+02  0.51100000000E-03 0.  1.
        -12    1    4    4    0    0  0.45635507818E+01  0.29826605499E+02  0.12944586570E+01  0.30201457160E+02  0.00000000000E+00 0.  1.
</event>
<event>
 8    1  0.1262344E-006  0.9118800E+02  0.7816164E-02  0.1184000E+00
        -11   -1    0    0    0    0  0.00000000000E+00  0.00000000000E+00  0.45593999997E+02  0.45594000000E+02  0.51100000000E-03 0. -1.
         11   -1    0    0    0    0 -0.00000000000E+00 -0.00000000000E+00 -0.45593999997E+02  0.45594000000E+02  0.51100000000E-03 0.  1.
         23    2    1    2    0    0  0.17763568394E-14  0.35527136788E-14  0.35527136788E-14  0.91188000000E+02  0.91188000000E+02 0.  0.
    9900012    2    3    3    0    0 -0.10359745777E+02 -0.29962105284E+02 -0.18727726299E+02  0.54367084505E+02  0.40000000745E+02 0.  0.
         12    1    3    3    0    0  0.10359745777E+02  0.29962105284E+02  0.18727726299E+02  0.36820915495E+02  0.00000000000E+00 0. -1.
         11    1    4    4    0    0 -0.15444127556E+02 -0.25570900992E+02 -0.48557293044E+01  0.30264998940E+02  0.51100000000E-03 0. -1.
        -11    1    4    4    0    0 -0.21082418289E+01 -0.12463968335E+01 -0.15824449495E+02  0.16012850800E+02  0.51100000000E-03 0.  1.
        -12    1    4    4    0    0  0.71926236075E+01 -0.31448074582E+01  0.19524525007E+01  0.80892347645E+01  0.00000000000E+00 0.  1.
</event>
<event>
 8    1  0.1262344E-006  0.9118800E+02  0.7816164E-02  0.1184000E+00
        -11   -1    0    0    0    0  0.00000000000E+00  0.00000000000E+00  0.45593999997E+02  0.45594000000E+02  0.51100000000E-03 0.  1.
         11   -1    0    0    0    0 -0.00000000000E+00 -0.00000000000E+00 -0.45593999997E+02  0.45594000000E+02  0.51100000000E-03 0. -1.
         23    2    1    2    0    0  0.35527136788E-14  0.35527136788E-14  0.00000000000E+00  0.91188000000E+02  0.91188000000E+02 0.  0.
    9900012    2    3    3    0    0  0.16200764193E+02 -0.25439847662E+02  0.21121697291E+02  0.54367126763E+02  0.40000097081E+02 0.  0.
         12    1    3    3    0    0 -0.16200764193E+02  0.25439847662E+02 -0.21121697291E+02  0.36820873237E+02  0.00000000000E+00 0. -1.
         11    1    4    4    0    0  0.20928570414E+02 -0.27205786156E+02  0.96539282896E+01  0.35656110158E+02  0.51100000000E-03 0. -1.
        -11    1    4    4    0    0 -0.32349226712E+01  0.78264385782E+01  0.75209174180E+01  0.11326167250E+02  0.51100000000E-03 0.  1.
        -12    1    4    4    0    0 -0.14928835497E+01 -0.60605000843E+01  0.39468515832E+01  0.73848493543E+01  0.00000000000E+00 0.  1.
</event>
<event>
 8    1  0.1262344E-006  0.9118800E+02  0.7816164E-02  0.1184000E+00
        -11   -1    0    0    0    0  0.00000000000E+00  0.00000000000E+00  0.45593999997E+02  0.45594000000E+02  0.51100000000E-03 0. -1.
         11   -1    0    0    0    0 -0.00000000000E+00 -0.00000000000E+00 -0.45593999997E+02  0.45594000000E+02  0.51100000000E-03 0.  1.
         23    2    1    2    0    0  0.00000000000E+00  0.17763568394E-14  0.71054273576E-14  0.91188000000E+02  0.91188000000E+02 0.  0.
    9900012    2    3    3    0    0  0.75761273071E+01  0.83550491324E+01 -0.35051027113E+02  0.54367094897E+02  0.40000024436E+02 0.  0.
         12    1    3    3    0    0 -0.75761273071E+01 -0.83550491324E+01  0.35051027113E+02  0.36820905103E+02  0.00000000000E+00 0. -1.
         11    1    4    4    0    0 -0.32270099947E+01  0.83303216309E+01 -0.53094299441E-01  0.89336818416E+01  0.51100000000E-03 0. -1.
        -11    1    4    4    0    0  0.65132171557E+01  0.13045648649E+02 -0.22906582147E+02  0.27153682113E+02  0.51100000000E-03 0.  1.
         12    1    4    4    0    0  0.42899201460E+01 -0.13020921147E+02 -0.12091350666E+02  0.18279730942E+02  0.00000000000E+00 0. -1.
</event>
<event>
 8    1  0.1262344E-006  0.9118800E+02  0.7816164E-02  0.1184000E+00
        -11   -1    0    0    0    0  0.00000000000E+00  0.00000000000E+00  0.45593999997E+02  0.45594000000E+02  0.51100000000E-03 0. -1.
         11   -1    0    0    0    0 -0.00000000000E+00 -0.00000000000E+00 -0.45593999997E+02  0.45594000000E+02  0.51100000000E-03 0.  1.
         23    2    1    2    0    0  0.00000000000E+00  0.00000000000E+00  0.00000000000E+00  0.91188000000E+02  0.91188000000E+02 0.  0.
    9900012    2    3    3    0    0 -0.98999973606E+01 -0.35247060066E+02 -0.39260986522E+01  0.54367089613E+02  0.40000012392E+02 0.  0.
         12    1    3    3    0    0  0.98999973606E+01  0.35247060066E+02  0.39260986522E+01  0.36820910387E+02  0.00000000000E+00 0. -1.
         11    1    4    4    0    0 -0.27016321473E+01 -0.15695963486E+02 -0.22138119583E+01  0.16079895822E+02  0.51100000000E-03 0. -1.
        -11    1    4    4    0    0 -0.21568265350E+01 -0.20975988021E+02  0.11539373996E+02  0.24037494184E+02  0.51100000000E-03 0.  1.
         12    1    4    4    0    0 -0.50415386784E+01  0.14248914399E+01 -0.13251660690E+02  0.14249699608E+02  0.00000000000E+00 0. -1.
</event>
<event>
 8    1  0.1262344E-006  0.9118800E+02  0.7816164E-02  0.1184000E+00
        -11   -1    0    0    0    0  0.00000000000E+00  0.00000000000E+00  0.45593999997E+02  0.45594000000E+02  0.51100000000E-03 0.  1.
         11   -1    0    0    0    0 -0.00000000000E+00 -0.00000000000E+00 -0.45593999997E+02  0.45594000000E+02  0.51100000000E-03 0. -1.
         23    2    1    2    0    0  0.00000000000E+00  0.00000000000E+00  0.00000000000E+00  0.91188000000E+02  0.91188000000E+02 0.  0.
    9900012    2    3    3    0    0  0.35643094813E+02 -0.58823183618E+01 -0.71237092754E+01  0.54367094104E+02  0.40000022629E+02 0.  0.
         12    1    3    3    0    0 -0.35643094813E+02  0.58823183618E+01  0.71237092754E+01  0.36820905896E+02  0.00000000000E+00 0. -1.
         11    1    4    4    0    0  0.21489167931E+02 -0.10074378975E+01 -0.50251993845E+01  0.22091896673E+02  0.51100000000E-03 0. -1.
        -11    1    4    4    0    0 -0.20593166570E+01 -0.30843878752E+01  0.10838815027E+02  0.11455747252E+02  0.51100000000E-03 0.  1.
        -12    1    4    4    0    0  0.16213243539E+02 -0.17904925891E+01 -0.12937324917E+02  0.20819450179E+02  0.00000000000E+00 0.  1.
</event>
<event>
 8    1  0.1262344E-006  0.9118800E+02  0.7816164E-02  0.1184000E+00
        -11   -1    0    0    0    0  0.00000000000E+00  0.00000000000E+00  0.45593999997E+02  0.45594000000E+02  0.51100000000E-03 0.  1.
         11   -1    0    0    0    0 -0.00000000000E+00 -0.00000000000E+00 -0.45593999997E+02  0.45594000000E+02  0.51100000000E-03 0. -1.
         23    2    1    2    0    0  0.00000000000E+00  0.00000000000E+00  0.17763568394E-14  0.91188000000E+02  0.91188000000E+02 0.  0.
    9900012    2    3    3    0    0 -0.28869137081E+02  0.16904957530E+02 -0.15381094572E+02  0.54367044891E+02  0.39999910438E+02 0.  0.
        -12    1    3    3    0    0  0.28869137081E+02 -0.16904957530E+02  0.15381094572E+02  0.36820955109E+02  0.00000000000E+00 0.  1.
         11    1    4    4    0    0  0.33133741253E+01 -0.53301672373E+00  0.20163637250E+01  0.39151344619E+01  0.51100000000E-03 0. -1.
        -11    1    4    4    0    0 -0.20244048910E+02 -0.15902609687E+01  0.24792152036E+01  0.20457198110E+02  0.51100000000E-03 0.  1.
         12    1    4    4    0    0 -0.11938462297E+02  0.19028235222E+02 -0.19876673501E+02  0.29994712320E+02  0.00000000000E+00 0. -1.
</event>
<event>
 8    1  0.1262344E-006  0.9118800E+02  0.7816164E-02  0.1184000E+00
        -11   -1    0    0    0    0  0.00000000000E+00  0.00000000000E+00  0.45593999997E+02  0.45594000000E+02  0.51100000000E-03 0. -1.
         11   -1    0    0    0    0 -0.00000000000E+00 -0.00000000000E+00 -0.45593999997E+02  0.45594000000E+02  0.51100000000E-03 0.  1.
         23    2    1    2    0    0  0.00000000000E+00  0.00000000000E+00  0.35527136788E-14  0.91188000000E+02  0.91188000000E+02 0.  0.
    9900012    2    3    3    0    0  0.16122714529E+02 -0.16029631253E+02 -0.28963573339E+02  0.54367087702E+02  0.40000008034E+02 0.  0.
         12    1    3    3    0    0 -0.16122714529E+02  0.16029631253E+02  0.28963573339E+02  0.36820912298E+02  0.00000000000E+00 0. -1.
         11    1    4    4    0    0  0.17334140606E+02 -0.41700253710E+01 -0.63282760505E+01  0.18918472987E+02  0.51100000000E-03 0. -1.
        -11    1    4    4    0    0  0.85187944416E+01 -0.11107617150E+02 -0.21455801037E+02  0.25618360913E+02  0.51100000000E-03 0.  1.
         12    1    4    4    0    0 -0.97302205186E+01 -0.75198873174E+00 -0.11794962520E+01  0.98302538015E+01  0.00000000000E+00 0. -1.
</event>
<event>
 8    1  0.1262344E-006  0.9118800E+02  0.7816164E-02  0.1184000E+00
        -11   -1    0    0    0    0  0.00000000000E+00  0.00000000000E+00  0.45593999997E+02  0.45594000000E+02  0.51100000000E-03 0.  1.
         11   -1    0    0    0    0 -0.00000000000E+00 -0.00000000000E+00 -0.45593999997E+02  0.45594000000E+02  0.51100000000E-03 0. -1.
         23    2    1    2    0    0  0.88817841970E-15  0.88817841970E-15  0.00000000000E+00  0.91188000000E+02  0.91188000000E+02 0.  0.
    9900012    2    3    3    0    0  0.39671804325E+01  0.69814292366E+01  0.35934670020E+02  0.54367090394E+02  0.40000014172E+02 0.  0.
         12    1    3    3    0    0 -0.39671804325E+01 -0.69814292366E+01 -0.35934670020E+02  0.36820909606E+02  0.00000000000E+00 0. -1.
         11    1    4    4    0    0  0.13962868452E+02  0.10613817384E+02  0.64228134698E+01  0.18677991005E+02  0.51100000000E-03 0.  1.
        -11    1    4    4    0    0  0.30252894062E+01 -0.48501428588E+01  0.38648166177E+01  0.69002224233E+01  0.51100000000E-03 0. -1.
         12    1    4    4    0    0 -0.13020977426E+02  0.12177547115E+01  0.25647039932E+02  0.28788876966E+02  0.00000000000E+00 0. -1.
</event>
<event>
 8    1  0.1262344E-006  0.9118800E+02  0.7816164E-02  0.1184000E+00
        -11   -1    0    0    0    0  0.00000000000E+00  0.00000000000E+00  0.45593999997E+02  0.45594000000E+02  0.51100000000E-03 0.  1.
         11   -1    0    0    0    0 -0.00000000000E+00 -0.00000000000E+00 -0.45593999997E+02  0.45594000000E+02  0.51100000000E-03 0. -1.
         23    2    1    2    0    0  0.00000000000E+00  0.00000000000E+00  0.00000000000E+00  0.91188000000E+02  0.91188000000E+02 0.  0.
    9900012    2    3    3    0    0  0.10511609538E+02  0.21010777286E+02  0.28351951118E+02  0.54367084348E+02  0.40000000388E+02 0.  0.
         12    1    3    3    0    0 -0.10511609538E+02 -0.21010777286E+02 -0.28351951118E+02  0.36820915652E+02  0.00000000000E+00 0. -1.
         11    1    4    4    0    0  0.15179845281E+02 -0.26550012070E+01  0.52571779046E+01  0.16282341783E+02  0.51100000000E-03 0. -1.
        -11    1    4    4    0    0  0.68771616174E+01  0.12234966475E+02  0.10871354189E+02  0.17753199675E+02  0.51100000000E-03 0.  1.
        -12    1    4    4    0    0 -0.11545397360E+02  0.11430812019E+02  0.12223419025E+02  0.20331542889E+02  0.00000000000E+00 0.  1.
</event>
<event>
 8    1  0.1262344E-006  0.9118800E+02  0.7816164E-02  0.1184000E+00
        -11   -1    0    0    0    0  0.00000000000E+00  0.00000000000E+00  0.45593999997E+02  0.45594000000E+02  0.51100000000E-03 0.  1.
         11   -1    0    0    0    0 -0.00000000000E+00 -0.00000000000E+00 -0.45593999997E+02  0.45594000000E+02  0.51100000000E-03 0. -1.
         23    2    1    2    0    0  0.35527136788E-14  0.00000000000E+00  0.00000000000E+00  0.91188000000E+02  0.91188000000E+02 0.  0.
    9900012    2    3    3    0    0  0.29713549966E+02 -0.19844046363E+02 -0.88937505155E+01  0.54367081681E+02  0.39999994308E+02 0.  0.
        -12    1    3    3    0    0 -0.29713549966E+02  0.19844046363E+02  0.88937505155E+01  0.36820918319E+02  0.00000000000E+00 0.  1.
         11    1    4    4    0    0  0.64733032397E+01 -0.44241941454E+01 -0.19560889902E+02  0.21073812248E+02  0.51100000000E-03 0. -1.
        -11    1    4    4    0    0  0.88859338517E+01 -0.13335118108E+02  0.14107608790E+01  0.16086498745E+02  0.51100000000E-03 0.  1.
        -12    1    4    4    0    0  0.14354312875E+02 -0.20847341095E+01  0.92563785070E+01  0.17206770687E+02  0.00000000000E+00 0.  1.
</event>
<event>
 8    1  0.1262344E-006  0.9118800E+02  0.7816164E-02  0.1184000E+00
        -11   -1    0    0    0    0  0.00000000000E+00  0.00000000000E+00  0.45593999997E+02  0.45594000000E+02  0.51100000000E-03 0. -1.
         11   -1    0    0    0    0 -0.00000000000E+00 -0.00000000000E+00 -0.45593999997E+02  0.45594000000E+02  0.51100000000E-03 0.  1.
         23    2    1    2    0    0  0.00000000000E+00  0.00000000000E+00  0.35527136788E-14  0.91188000000E+02  0.91188000000E+02 0.  0.
    9900012    2    3    3    0    0 -0.17884489967E+01  0.24807278305E+02 -0.27151071123E+02  0.54367078368E+02  0.39999986755E+02 0.  0.
         12    1    3    3    0    0  0.17884489967E+01 -0.24807278305E+02  0.27151071123E+02  0.36820921632E+02  0.00000000000E+00 0. -1.
         11    1    4    4    0    0  0.54988051393E+01  0.17428785582E+02 -0.52653458854E+01  0.19019024486E+02  0.51100000000E-03 0.  1.
        -11    1    4    4    0    0  0.84695917958E+01  0.35392838874E+01 -0.15046938159E+01  0.93018610699E+01  0.51100000000E-03 0. -1.
        -12    1    4    4    0    0 -0.15756845932E+02  0.38392088349E+01 -0.20381031422E+02  0.26046192812E+02  0.00000000000E+00 0.  1.
</event>
<event>
 8    1  0.1262344E-006  0.9118800E+02  0.7816164E-02  0.1184000E+00
        -11   -1    0    0    0    0  0.00000000000E+00  0.00000000000E+00  0.45593999997E+02  0.45594000000E+02  0.51100000000E-03 0.  1.
         11   -1    0    0    0    0 -0.00000000000E+00 -0.00000000000E+00 -0.45593999997E+02  0.45594000000E+02  0.51100000000E-03 0. -1.
         23    2    1    2    0    0  0.17763568394E-14  0.00000000000E+00  0.35527136788E-14  0.91188000000E+02  0.91188000000E+02 0.  0.
    9900012    2    3    3    0    0  0.12417229278E+02  0.14063248595E+02  0.31683070623E+02  0.54367088712E+02  0.40000010336E+02 0.  0.
         12    1    3    3    0    0 -0.12417229278E+02 -0.14063248595E+02 -0.31683070623E+02  0.36820911288E+02  0.00000000000E+00 0. -1.
         11    1    4    4    0    0 -0.51881460778E-01  0.21347293414E+01  0.20934000273E+02  0.21042626470E+02  0.51100000000E-03 0. -1.
        -11    1    4    4    0    0  0.56617826468E+01 -0.34736017546E+01 -0.64468509991E+01  0.92565425487E+01  0.51100000000E-03 0.  1.
        -12    1    4    4    0    0  0.68073280924E+01  0.15402121008E+02  0.17195921349E+02  0.24067919693E+02  0.00000000000E+00 0.  1.
</event>
<event>
 8    1  0.1262344E-006  0.9118800E+02  0.7816164E-02  0.1184000E+00
        -11   -1    0    0    0    0  0.00000000000E+00  0.00000000000E+00  0.45593999997E+02  0.45594000000E+02  0.51100000000E-03 0.  1.
         11   -1    0    0    0    0 -0.00000000000E+00 -0.00000000000E+00 -0.45593999997E+02  0.45594000000E+02  0.51100000000E-03 0. -1.
         23    2    1    2    0    0  0.88817841970E-15 -0.88817841970E-15  0.00000000000E+00  0.91188000000E+02  0.91188000000E+02 0.  0.
    9900012    2    3    3    0    0 -0.34505899641E+01  0.69227693042E+01  0.35999274245E+02  0.54367094904E+02  0.40000024452E+02 0.  0.
         12    1    3    3    0    0  0.34505899641E+01 -0.69227693042E+01 -0.35999274245E+02  0.36820905096E+02  0.00000000000E+00 0. -1.
         11    1    4    4    0    0  0.80518556650E+01 -0.73540366009E+01  0.16205858532E+02  0.19533153483E+02  0.51100000000E-03 0. -1.
        -11    1    4    4    0    0 -0.43168521981E+01  0.74567214585E+01  0.22887134993E+02  0.24455241897E+02  0.51100000000E-03 0.  1.
         12    1    4    4    0    0 -0.71855934310E+01  0.68200844466E+01 -0.30937192798E+01  0.10378699523E+02  0.00000000000E+00 0. -1.
</event>
<event>
 8    1  0.1262344E-006  0.9118800E+02  0.7816164E-02  0.1184000E+00
        -11   -1    0    0    0    0  0.00000000000E+00  0.00000000000E+00  0.45593999997E+02  0.45594000000E+02  0.51100000000E-03 0.  1.
         11   -1    0    0    0    0 -0.00000000000E+00 -0.00000000000E+00 -0.45593999997E+02  0.45594000000E+02  0.51100000000E-03 0. -1.
         23    2    1    2    0    0 -0.44408920985E-15 -0.35527136788E-14  0.00000000000E+00  0.91188000000E+02  0.91188000000E+02 0.  0.
    9900012    2    3    3    0    0 -0.21700856541E+01 -0.26416316911E+02  0.25558722407E+02  0.54367090696E+02  0.40000014860E+02 0.  0.
         12    1    3    3    0    0  0.21700856541E+01  0.26416316911E+02 -0.25558722407E+02  0.36820909304E+02  0.00000000000E+00 0. -1.
         11    1    4    4    0    0  0.10961093909E+02 -0.20232823204E+02  0.21164424788E+01  0.23108267860E+02  0.51100000000E-03 0. -1.
        -11    1    4    4    0    0  0.31721523917E+01 -0.89331629075E+00  0.21937768863E+01  0.39589420404E+01  0.51100000000E-03 0.  1.
        -12    1    4    4    0    0 -0.16303331955E+02 -0.52901774162E+01  0.21248503042E+02  0.27299880796E+02  0.00000000000E+00 0.  1.
</event>
<event>
 8    1  0.1262344E-006  0.9118800E+02  0.7816164E-02  0.1184000E+00
        -11   -1    0    0    0    0  0.00000000000E+00  0.00000000000E+00  0.45593999997E+02  0.45594000000E+02  0.51100000000E-03 0. -1.
         11   -1    0    0    0    0 -0.00000000000E+00 -0.00000000000E+00 -0.45593999997E+02  0.45594000000E+02  0.51100000000E-03 0.  1.
         23    2    1    2    0    0 -0.35527136788E-14  0.00000000000E+00  0.35527136788E-14  0.91188000000E+02  0.91188000000E+02 0.  0.
    9900012    2    3    3    0    0  0.22600863026E+02 -0.21859746322E+02 -0.19160675081E+02  0.54367095769E+02  0.40000026425E+02 0.  0.
         12    1    3    3    0    0 -0.22600863026E+02  0.21859746322E+02  0.19160675081E+02  0.36820904231E+02  0.00000000000E+00 0. -1.
         11    1    4    4    0    0 -0.33707375836E+00 -0.67300101884E+01  0.25567987488E+01  0.72072099982E+01  0.51100000000E-03 0. -1.
        -11    1    4    4    0    0  0.40622573333E+01 -0.19396611622E+02 -0.26522994739E+01  0.19994128384E+02  0.51100000000E-03 0.  1.
        -12    1    4    4    0    0  0.18875679451E+02  0.42668754884E+01 -0.19065174356E+02  0.27165757387E+02  0.00000000000E+00 0.  1.
</event>
<event>
 8    1  0.1262344E-006  0.9118800E+02  0.7816164E-02  0.1184000E+00
        -11   -1    0    0    0    0  0.00000000000E+00  0.00000000000E+00  0.45593999997E+02  0.45594000000E+02  0.51100000000E-03 0. -1.
         11   -1    0    0    0    0 -0.00000000000E+00 -0.00000000000E+00 -0.45593999997E+02  0.45594000000E+02  0.51100000000E-03 0.  1.
         23    2    1    2    0    0  0.00000000000E+00  0.00000000000E+00  0.17763568394E-14  0.91188000000E+02  0.91188000000E+02 0.  0.
    9900012    2    3    3    0    0 -0.21922266803E+02  0.25209288157E+02 -0.15481760589E+02  0.54367096940E+02  0.40000029095E+02 0.  0.
        -12    1    3    3    0    0  0.21922266803E+02 -0.25209288157E+02  0.15481760589E+02  0.36820903060E+02  0.00000000000E+00 0.  1.
         11    1    4    4    0    0 -0.13237997442E+02  0.12772551270E+01  0.17457341605E+01  0.13413558251E+02  0.51100000000E-03 0. -1.
        -11    1    4    4    0    0  0.92738318910E+01  0.37892329394E+01 -0.63314565358E+01  0.11851142828E+02  0.51100000000E-03 0.  1.
         12    1    4    4    0    0 -0.17958101252E+02  0.20142800091E+02 -0.10896038213E+02  0.29102395861E+02  0.00000000000E+00 0. -1.
</event>
<event>
 8    1  0.1262344E-006  0.9118800E+02  0.7816164E-02  0.1184000E+00
        -11   -1    0    0    0    0  0.00000000000E+00  0.00000000000E+00  0.45593999997E+02  0.45594000000E+02  0.51100000000E-03 0. -1.
         11   -1    0    0    0    0 -0.00000000000E+00 -0.00000000000E+00 -0.45593999997E+02  0.45594000000E+02  0.51100000000E-03 0.  1.
         23    2    1    2    0    0  0.00000000000E+00  0.88817841970E-15  0.00000000000E+00  0.91188000000E+02  0.91188000000E+02 0.  0.
    9900012    2    3    3    0    0 -0.35592095714E+02  0.36532343178E+01  0.86970546685E+01  0.54367052725E+02  0.39999928297E+02 0.  0.
        -12    1    3    3    0    0  0.35592095714E+02 -0.36532343178E+01 -0.86970546685E+01  0.36820947275E+02  0.00000000000E+00 0.  1.
         11    1    4    4    0    0 -0.56738069709E+01  0.15382121483E+01 -0.19420307462E+01  0.61910956895E+01  0.51100000000E-03 0.  1.
        -11    1    4    4    0    0 -0.33238176031E+02  0.10955537669E+02  0.14619590530E+02  0.37927992024E+02  0.51100000000E-03 0. -1.
        -12    1    4    4    0    0  0.33198872875E+01 -0.88405154993E+01 -0.39805051155E+01  0.10247965011E+02  0.00000000000E+00 0.  1.
</event>
<event>
 8    1  0.1262344E-006  0.9118800E+02  0.7816164E-02  0.1184000E+00
        -11   -1    0    0    0    0  0.00000000000E+00  0.00000000000E+00  0.45593999997E+02  0.45594000000E+02  0.51100000000E-03 0.  1.
         11   -1    0    0    0    0 -0.00000000000E+00 -0.00000000000E+00 -0.45593999997E+02  0.45594000000E+02  0.51100000000E-03 0. -1.
         23    2    1    2    0    0  0.22204460493E-15  0.00000000000E+00  0.00000000000E+00  0.91188000000E+02  0.91188000000E+02 0.  0.
    9900012    2    3    3    0    0 -0.58536238881E+00 -0.95475370624E+01 -0.35556634422E+02  0.54367185716E+02  0.40000231476E+02 0.  0.
        -12    1    3    3    0    0  0.58536238881E+00  0.95475370624E+01  0.35556634422E+02  0.36820814284E+02  0.00000000000E+00 0.  1.
         11    1    4    4    0    0 -0.17989491818E+02 -0.26448632208E+01 -0.83742822889E+01  0.20018634355E+02  0.51100000000E-03 0. -1.
        -11    1    4    4    0    0  0.56415544948E+01 -0.65882647443E+01 -0.15533068679E+02  0.17790688360E+02  0.51100000000E-03 0.  1.
         12    1    4    4    0    0  0.11762574934E+02 -0.31440909736E+00 -0.11649283454E+02  0.16557863001E+02  0.00000000000E+00 0. -1.
</event>
<event>
 8    1  0.1262344E-006  0.9118800E+02  0.7816164E-02  0.1184000E+00
        -11   -1    0    0    0    0  0.00000000000E+00  0.00000000000E+00  0.45593999997E+02  0.45594000000E+02  0.51100000000E-03 0.  1.
         11   -1    0    0    0    0 -0.00000000000E+00 -0.00000000000E+00 -0.45593999997E+02  0.45594000000E+02  0.51100000000E-03 0. -1.
         23    2    1    2    0    0  0.00000000000E+00  0.17763568394E-14  0.17763568394E-14  0.91188000000E+02  0.91188000000E+02 0.  0.
    9900012    2    3    3    0    0 -0.31699510629E+02  0.15785217773E+02  0.10087015994E+02  0.54367082495E+02  0.39999996164E+02 0.  0.
        -12    1    3    3    0    0  0.31699510629E+02 -0.15785217773E+02 -0.10087015994E+02  0.36820917505E+02  0.00000000000E+00 0.  1.
         11    1    4    4    0    0 -0.12508260230E+02  0.52814580299E+00  0.20873539379E+02  0.24340093641E+02  0.51100000000E-03 0. -1.
        -11    1    4    4    0    0 -0.25575437984E+01  0.20009216055E+01 -0.79263291970E+01  0.85657114329E+01  0.51100000000E-03 0.  1.
         12    1    4    4    0    0 -0.16633706601E+02  0.13256150364E+02 -0.28601941885E+01  0.21461277421E+02  0.00000000000E+00 0. -1.
</event>
<event>
 8    1  0.1262344E-006  0.9118800E+02  0.7816164E-02  0.1184000E+00
        -11   -1    0    0    0    0  0.00000000000E+00  0.00000000000E+00  0.45593999997E+02  0.45594000000E+02  0.51100000000E-03 0.  1.
         11   -1    0    0    0    0 -0.00000000000E+00 -0.00000000000E+00 -0.45593999997E+02  0.45594000000E+02  0.51100000000E-03 0. -1.
         23    2    1    2    0    0 -0.49960036108E-15  0.00000000000E+00  0.00000000000E+00  0.91188000000E+02  0.91188000000E+02 0.  0.
    9900012    2    3    3    0    0  0.47611414266E+00  0.36732417893E+02  0.25067224138E+01  0.54367070270E+02  0.39999968293E+02 0.  0.
        -12    1    3    3    0    0 -0.47611414266E+00 -0.36732417893E+02 -0.25067224138E+01  0.36820929730E+02  0.00000000000E+00 0.  1.
         11    1    4    4    0    0  0.96891467342E+01  0.51555173272E+01 -0.74683500734E+01  0.13275359748E+02  0.51100000000E-03 0.  1.
        -11    1    4    4    0    0  0.53888815316E+01  0.21027532281E+02  0.37258134192E+01  0.22024505531E+02  0.51100000000E-03 0. -1.
        -12    1    4    4    0    0 -0.14601914123E+02  0.10549368285E+02  0.62492590680E+01  0.19067204991E+02  0.00000000000E+00 0.  1.
</event>
<event>
 8    1  0.1262344E-006  0.9118800E+02  0.7816164E-02  0.1184000E+00
        -11   -1    0    0    0    0  0.00000000000E+00  0.00000000000E+00  0.45593999997E+02  0.45594000000E+02  0.51100000000E-03 0.  1.
         11   -1    0    0    0    0 -0.00000000000E+00 -0.00000000000E+00 -0.45593999997E+02  0.45594000000E+02  0.51100000000E-03 0. -1.
         23    2    1    2    0    0  0.17763568394E-14  0.00000000000E+00  0.00000000000E+00  0.91188000000E+02  0.91188000000E+02 0.  0.
    9900012    2    3    3    0    0  0.15242781322E+02  0.33027567366E+02  0.57113671845E+01  0.54367050750E+02  0.39999923794E+02 0.  0.
         12    1    3    3    0    0 -0.15242781322E+02 -0.33027567366E+02 -0.57113671845E+01  0.36820949250E+02  0.00000000000E+00 0. -1.
         11    1    4    4    0    0  0.99211944424E+00  0.87995347812E+01  0.82797175602E+01  0.12123111667E+02  0.51100000000E-03 0. -1.
        -11    1    4    4    0    0 -0.72132297038E+01  0.14069800309E+02  0.61254968228E+01  0.16956169234E+02  0.51100000000E-03 0.  1.
         12    1    4    4    0    0  0.21463891582E+02  0.10158232276E+02 -0.86938471985E+01  0.25287769849E+02  0.00000000000E+00 0. -1.
</event>
<event>
 8    1  0.1262344E-006  0.9118800E+02  0.7816164E-02  0.1184000E+00
        -11   -1    0    0    0    0  0.00000000000E+00  0.00000000000E+00  0.45593999997E+02  0.45594000000E+02  0.51100000000E-03 0.  1.
         11   -1    0    0    0    0 -0.00000000000E+00 -0.00000000000E+00 -0.45593999997E+02  0.45594000000E+02  0.51100000000E-03 0. -1.
         23    2    1    2    0    0  0.00000000000E+00  0.17763568394E-14  0.00000000000E+00  0.91188000000E+02  0.91188000000E+02 0.  0.
    9900012    2    3    3    0    0 -0.14375419347E+02 -0.13911480625E+02  0.30912739841E+02  0.54367089378E+02  0.40000011854E+02 0.  0.
         12    1    3    3    0    0  0.14375419347E+02  0.13911480625E+02 -0.30912739841E+02  0.36820910622E+02  0.00000000000E+00 0. -1.
         11    1    4    4    0    0  0.66075973282E+01  0.32809155845E+01  0.15456335085E+02  0.17126676387E+02  0.51100000000E-03 0. -1.
        -11    1    4    4    0    0  0.11534893195E+00 -0.59499810218E+01 -0.33444770073E+01  0.68265002930E+01  0.51100000000E-03 0.  1.
        -12    1    4    4    0    0 -0.21098365607E+02 -0.11242415188E+02  0.18800881763E+02  0.30413912698E+02  0.00000000000E+00 0.  1.
</event>
<event>
 8    1  0.1262344E-006  0.9118800E+02  0.7816164E-02  0.1184000E+00
        -11   -1    0    0    0    0  0.00000000000E+00  0.00000000000E+00  0.45593999997E+02  0.45594000000E+02  0.51100000000E-03 0.  1.
         11   -1    0    0    0    0 -0.00000000000E+00 -0.00000000000E+00 -0.45593999997E+02  0.45594000000E+02  0.51100000000E-03 0. -1.
         23    2    1    2    0    0  0.00000000000E+00  0.17763568394E-14  0.00000000000E+00  0.91188000000E+02  0.91188000000E+02 0.  0.
    9900012    2    3    3    0    0 -0.10882180151E+02 -0.12473143434E+02 -0.32890269398E+02  0.54367204612E+02  0.40000274553E+02 0.  0.
        -12    1    3    3    0    0  0.10882180151E+02  0.12473143434E+02  0.32890269398E+02  0.36820795388E+02  0.00000000000E+00 0.  1.
         11    1    4    4    0    0 -0.39804112838E+01  0.42241166522E+00 -0.32502653340E+02  0.32748199645E+02  0.51100000000E-03 0. -1.
        -11    1    4    4    0    0 -0.60396167816E+01 -0.16656046457E+02  0.18799560565E+00  0.17718244751E+02  0.51100000000E-03 0.  1.
        -12    1    4    4    0    0 -0.86215208582E+00  0.37604913580E+01 -0.57561166351E+00  0.39007602156E+01  0.00000000000E+00 0.  1.
</event>
<event>
 8    1  0.1262344E-006  0.9118800E+02  0.7816164E-02  0.1184000E+00
        -11   -1    0    0    0    0  0.00000000000E+00  0.00000000000E+00  0.45593999997E+02  0.45594000000E+02  0.51100000000E-03 0. -1.
         11   -1    0    0    0    0 -0.00000000000E+00 -0.00000000000E+00 -0.45593999997E+02  0.45594000000E+02  0.51100000000E-03 0.  1.
         23    2    1    2    0    0  0.00000000000E+00  0.00000000000E+00  0.00000000000E+00  0.91188000000E+02  0.91188000000E+02 0.  0.
    9900012    2    3    3    0    0  0.53802542184E+01 -0.19644744937E+02 -0.30674402073E+02  0.54367053765E+02  0.39999930668E+02 0.  0.
         12    1    3    3    0    0 -0.53802542184E+01  0.19644744937E+02  0.30674402073E+02  0.36820946235E+02  0.00000000000E+00 0. -1.
         11    1    4    4    0    0  0.13311825625E+02 -0.96610868145E+01 -0.33388647150E+01  0.16783602645E+02  0.51100000000E-03 0. -1.
        -11    1    4    4    0    0 -0.10410462009E+02 -0.15986032741E+02 -0.18130333734E+02  0.26318053948E+02  0.51100000000E-03 0.  1.
        -12    1    4    4    0    0  0.24788906019E+01  0.60023746183E+01 -0.92052036238E+01  0.11265397171E+02  0.00000000000E+00 0.  1.
</event>
<event>
 8    1  0.1262344E-006  0.9118800E+02  0.7816164E-02  0.1184000E+00
        -11   -1    0    0    0    0  0.00000000000E+00  0.00000000000E+00  0.45593999997E+02  0.45594000000E+02  0.51100000000E-03 0.  1.
         11   -1    0    0    0    0 -0.00000000000E+00 -0.00000000000E+00 -0.45593999997E+02  0.45594000000E+02  0.51100000000E-03 0. -1.
         23    2    1    2    0    0  0.35527136788E-14 -0.17763568394E-14  0.35527136788E-14  0.91188000000E+02  0.91188000000E+02 0.  0.
    9900012    2    3    3    0    0 -0.26624634939E+02  0.10968176034E+02 -0.22947908110E+02  0.54367101617E+02  0.40000039755E+02 0.  0.
        -12    1    3    3    0    0  0.26624634939E+02 -0.10968176034E+02  0.22947908110E+02  0.36820898383E+02  0.00000000000E+00 0.  1.
         11    1    4    4    0    0 -0.27369029632E+02  0.99578138081E+01 -0.10194409852E+02  0.30856892768E+02  0.51100000000E-03 0. -1.
        -11    1    4    4    0    0 -0.48421752038E+01 -0.71391069180E+01 -0.19002771836E+01  0.88331513021E+01  0.51100000000E-03 0.  1.
         12    1    4    4    0    0  0.55865698964E+01  0.81494691434E+01 -0.10853221074E+02  0.14677057546E+02  0.00000000000E+00 0. -1.
</event>
<event>
 8    1  0.1262344E-006  0.9118800E+02  0.7816164E-02  0.1184000E+00
        -11   -1    0    0    0    0  0.00000000000E+00  0.00000000000E+00  0.45593999997E+02  0.45594000000E+02  0.51100000000E-03 0.  1.
         11   -1    0    0    0    0 -0.00000000000E+00 -0.00000000000E+00 -0.45593999997E+02  0.45594000000E+02  0.51100000000E-03 0. -1.
         23    2    1    2    0    0  0.71054273576E-14  0.00000000000E+00 -0.35527136788E-14  0.91188000000E+02  0.91188000000E+02 0.  0.
    9900012    2    3    3    0    0  0.33621160348E+02  0.54443205096E+01 -0.13991314018E+02  0.54367083160E+02  0.39999997680E+02 0.  0.
        -12    1    3    3    0    0 -0.33621160348E+02 -0.54443205096E+01  0.13991314018E+02  0.36820916840E+02  0.00000000000E+00 0.  1.
         11    1    4    4    0    0  0.20596197538E+02  0.53228965271E+01 -0.11943261542E+02  0.24396271784E+02  0.51100000000E-03 0. -1.
        -11    1    4    4    0    0 -0.11375235089E+01 -0.38952634347E+01  0.10099900701E+02  0.10884623622E+02  0.51100000000E-03 0.  1.
        -12    1    4    4    0    0  0.14162486319E+02  0.40166874171E+01 -0.12147953178E+02  0.19086187754E+02  0.00000000000E+00 0.  1.
</event>
<event>
 8    1  0.1262344E-006  0.9118800E+02  0.7816164E-02  0.1184000E+00
        -11   -1    0    0    0    0  0.00000000000E+00  0.00000000000E+00  0.45593999997E+02  0.45594000000E+02  0.51100000000E-03 0. -1.
         11   -1    0    0    0    0 -0.00000000000E+00 -0.00000000000E+00 -0.45593999997E+02  0.45594000000E+02  0.51100000000E-03 0.  1.
         23    2    1    2    0    0  0.88817841970E-15  0.00000000000E+00 -0.35527136788E-14  0.91188000000E+02  0.91188000000E+02 0.  0.
    9900012    2    3    3    0    0 -0.21217510152E+01  0.19756328710E+02 -0.30999442035E+02  0.54367085319E+02  0.40000002603E+02 0.  0.
         12    1    3    3    0    0  0.21217510152E+01 -0.19756328710E+02  0.30999442035E+02  0.36820914681E+02  0.00000000000E+00 0. -1.
         11    1    4    4    0    0  0.97220257715E+01 -0.30548298130E+01  0.21865883597E+01  0.10422616716E+02  0.51100000000E-03 0. -1.
        -11    1    4    4    0    0 -0.13304875760E+02  0.13404735717E+02 -0.18461508379E+02  0.26410868038E+02  0.51100000000E-03 0.  1.
         12    1    4    4    0    0  0.14610989736E+01  0.94064228057E+01 -0.14724522015E+02  0.17533600566E+02  0.00000000000E+00 0. -1.
</event>
<event>
 8    1  0.1262344E-006  0.9118800E+02  0.7816164E-02  0.1184000E+00
        -11   -1    0    0    0    0  0.00000000000E+00  0.00000000000E+00  0.45593999997E+02  0.45594000000E+02  0.51100000000E-03 0.  1.
         11   -1    0    0    0    0 -0.00000000000E+00 -0.00000000000E+00 -0.45593999997E+02  0.45594000000E+02  0.51100000000E-03 0. -1.
         23    2    1    2    0    0  0.17763568394E-14  0.00000000000E+00  0.00000000000E+00  0.91188000000E+02  0.91188000000E+02 0.  0.
    9900012    2    3    3    0    0 -0.11694941499E+02  0.60539490282E+01 -0.34385411660E+02  0.54367102529E+02  0.40000041836E+02 0.  0.
        -12    1    3    3    0    0  0.11694941499E+02 -0.60539490282E+01  0.34385411660E+02  0.36820897471E+02  0.00000000000E+00 0.  1.
         11    1    4    4    0    0  0.67239730086E+01  0.70402346155E+01 -0.21167839180E+02  0.23299230294E+02  0.51100000000E-03 0. -1.
        -11    1    4    4    0    0 -0.69116189865E+01  0.83659123276E+01  0.50599765673E+00  0.10863470899E+02  0.51100000000E-03 0.  1.
        -12    1    4    4    0    0 -0.11507295521E+02 -0.93521979150E+01 -0.13723570137E+02  0.20204401336E+02  0.00000000000E+00 0.  1.
</event>
<event>
 8    1  0.1262344E-006  0.9118800E+02  0.7816164E-02  0.1184000E+00
        -11   -1    0    0    0    0  0.00000000000E+00  0.00000000000E+00  0.45593999997E+02  0.45594000000E+02  0.51100000000E-03 0. -1.
         11   -1    0    0    0    0 -0.00000000000E+00 -0.00000000000E+00 -0.45593999997E+02  0.45594000000E+02  0.51100000000E-03 0.  1.
         23    2    1    2    0    0  0.00000000000E+00  0.00000000000E+00  0.00000000000E+00  0.91188000000E+02  0.91188000000E+02 0.  0.
    9900012    2    3    3    0    0 -0.28443391929E+02 -0.19617944627E+02 -0.12723991817E+02  0.54366942661E+02  0.39999677383E+02 0.  0.
         12    1    3    3    0    0  0.28443391929E+02  0.19617944627E+02  0.12723991817E+02  0.36821057339E+02  0.00000000000E+00 0. -1.
         11    1    4    4    0    0 -0.20438495202E+02 -0.10909454979E+02  0.29939379529E+01  0.23360478565E+02  0.51100000000E-03 0. -1.
        -11    1    4    4    0    0 -0.15228037594E+02 -0.96023175356E+01 -0.15449822787E+02  0.23723293520E+02  0.51100000000E-03 0.  1.
         12    1    4    4    0    0  0.72231408673E+01  0.89382788777E+00 -0.26810698227E+00  0.72831705757E+01  0.00000000000E+00 0. -1.
</event>
<event>
 8    1  0.1262344E-006  0.9118800E+02  0.7816164E-02  0.1184000E+00
        -11   -1    0    0    0    0  0.00000000000E+00  0.00000000000E+00  0.45593999997E+02  0.45594000000E+02  0.51100000000E-03 0. -1.
         11   -1    0    0    0    0 -0.00000000000E+00 -0.00000000000E+00 -0.45593999997E+02  0.45594000000E+02  0.51100000000E-03 0.  1.
         23    2    1    2    0    0 -0.35527136788E-14  0.88817841970E-15  0.35527136788E-14  0.91188000000E+02  0.91188000000E+02 0.  0.
    9900012    2    3    3    0    0 -0.31772344390E+02 -0.41151846361E+01  0.18148358910E+02  0.54367088227E+02  0.40000009232E+02 0.  0.
        -12    1    3    3    0    0  0.31772344390E+02  0.41151846361E+01 -0.18148358910E+02  0.36820911773E+02  0.00000000000E+00 0.  1.
         11    1    4    4    0    0 -0.76628309779E+01 -0.24180282380E+01  0.67216823144E+01  0.10476013199E+02  0.51100000000E-03 0. -1.
        -11    1    4    4    0    0 -0.70146035270E+01 -0.64971393950E+01 -0.11459672627E+02  0.14924529471E+02  0.51100000000E-03 0.  1.
        -12    1    4    4    0    0 -0.17094909885E+02  0.47999829968E+01  0.22886349223E+02  0.28966545557E+02  0.00000000000E+00 0.  1.
</event>
<event>
 8    1  0.1262344E-006  0.9118800E+02  0.7816164E-02  0.1184000E+00
        -11   -1    0    0    0    0  0.00000000000E+00  0.00000000000E+00  0.45593999997E+02  0.45594000000E+02  0.51100000000E-03 0.  1.
         11   -1    0    0    0    0 -0.00000000000E+00 -0.00000000000E+00 -0.45593999997E+02  0.45594000000E+02  0.51100000000E-03 0. -1.
         23    2    1    2    0    0  0.00000000000E+00  0.00000000000E+00  0.00000000000E+00  0.91188000000E+02  0.91188000000E+02 0.  0.
    9900012    2    3    3    0    0 -0.75376210229E+01  0.34234763294E+02  0.11267006357E+02  0.54367079577E+02  0.39999989512E+02 0.  0.
        -12    1    3    3    0    0  0.75376210229E+01 -0.34234763294E+02 -0.11267006357E+02  0.36820920423E+02  0.00000000000E+00 0.  1.
         11    1    4    4    0    0 -0.70113429701E+01  0.31742453586E+02 -0.88800012476E+01  0.33698615882E+02  0.51100000000E-03 0. -1.
        -11    1    4    4    0    0 -0.21710839883E+01  0.17790096523E+01  0.11504074337E+02  0.11841545830E+02  0.51100000000E-03 0.  1.
         12    1    4    4    0    0  0.16448059354E+01  0.71330005587E+00  0.86429332677E+01  0.88269178655E+01  0.00000000000E+00 0. -1.
</event>
<event>
 8    1  0.1262344E-006  0.9118800E+02  0.7816164E-02  0.1184000E+00
        -11   -1    0    0    0    0  0.00000000000E+00  0.00000000000E+00  0.45593999997E+02  0.45594000000E+02  0.51100000000E-03 0. -1.
         11   -1    0    0    0    0 -0.00000000000E+00 -0.00000000000E+00 -0.45593999997E+02  0.45594000000E+02  0.51100000000E-03 0.  1.
         23    2    1    2    0    0 -0.35527136788E-14  0.35527136788E-14  0.00000000000E+00  0.91188000000E+02  0.91188000000E+02 0.  0.
    9900012    2    3    3    0    0  0.14554818811E+02 -0.16898452068E+02 -0.29298130900E+02  0.54367069714E+02  0.39999967027E+02 0.  0.
         12    1    3    3    0    0 -0.14554818811E+02  0.16898452068E+02  0.29298130900E+02  0.36820930286E+02  0.00000000000E+00 0. -1.
         11    1    4    4    0    0 -0.11916166935E+02 -0.57544262066E+01 -0.57805165734E+01  0.14440319508E+02  0.51100000000E-03 0. -1.
        -11    1    4    4    0    0  0.27357054843E+01  0.30489166117E+01 -0.88445753312E+00  0.41907329181E+01  0.51100000000E-03 0.  1.
        -12    1    4    4    0    0  0.23735280261E+02 -0.14192942473E+02 -0.22633156793E+02  0.35736017287E+02  0.00000000000E+00 0.  1.
</event>
<event>
 8    1  0.1262344E-006  0.9118800E+02  0.7816164E-02  0.1184000E+00
        -11   -1    0    0    0    0  0.00000000000E+00  0.00000000000E+00  0.45593999997E+02  0.45594000000E+02  0.51100000000E-03 0.  1.
         11   -1    0    0    0    0 -0.00000000000E+00 -0.00000000000E+00 -0.45593999997E+02  0.45594000000E+02  0.51100000000E-03 0. -1.
         23    2    1    2    0    0  0.88817841970E-15  0.00000000000E+00  0.71054273576E-14  0.91188000000E+02  0.91188000000E+02 0.  0.
    9900012    2    3    3    0    0 -0.41271853324E+01  0.12566361074E+02 -0.34363229688E+02  0.54367100445E+02  0.40000037086E+02 0.  0.
        -12    1    3    3    0    0  0.41271853324E+01 -0.12566361074E+02  0.34363229688E+02  0.36820899555E+02  0.00000000000E+00 0.  1.
         11    1    4    4    0    0  0.57749441782E+01  0.19409530583E+02 -0.21387914849E+02  0.29453739313E+02  0.51100000000E-03 0. -1.
        -11    1    4    4    0    0 -0.66836779749E+01 -0.12568735512E+02 -0.11189933035E+02  0.18106884471E+02  0.51100000000E-03 0.  1.
         12    1    4    4    0    0 -0.32184515358E+01  0.57255660041E+01 -0.17853818044E+01  0.68064766615E+01  0.00000000000E+00 0. -1.
</event>
<event>
 8    1  0.1262344E-006  0.9118800E+02  0.7816164E-02  0.1184000E+00
        -11   -1    0    0    0    0  0.00000000000E+00  0.00000000000E+00  0.45593999997E+02  0.45594000000E+02  0.51100000000E-03 0. -1.
         11   -1    0    0    0    0 -0.00000000000E+00 -0.00000000000E+00 -0.45593999997E+02  0.45594000000E+02  0.51100000000E-03 0.  1.
         23    2    1    2    0    0 -0.22204460493E-15  0.00000000000E+00 -0.35527136788E-14  0.91188000000E+02  0.91188000000E+02 0.  0.
    9900012    2    3    3    0    0  0.64714553711E+00  0.29902964740E+02 -0.21474972402E+02  0.54367074736E+02  0.39999978476E+02 0.  0.
         12    1    3    3    0    0 -0.64714553711E+00 -0.29902964740E+02  0.21474972402E+02  0.36820925264E+02  0.00000000000E+00 0. -1.
         11    1    4    4    0    0  0.48869587075E+00  0.15471259943E+02 -0.29119412635E+02  0.32977854696E+02  0.51100000000E-03 0.  1.
        -11    1    4    4    0    0  0.34773903949E+01  0.15896225045E+02  0.69570600246E+01  0.17696974292E+02  0.51100000000E-03 0. -1.
        -12    1    4    4    0    0 -0.33189407286E+01 -0.14645202473E+01  0.68738020835E+00  0.36922457482E+01  0.00000000000E+00 0.  1.
</event>
<event>
 8    1  0.1262344E-006  0.9118800E+02  0.7816164E-02  0.1184000E+00
        -11   -1    0    0    0    0  0.00000000000E+00  0.00000000000E+00  0.45593999997E+02  0.45594000000E+02  0.51100000000E-03 0.  1.
         11   -1    0    0    0    0 -0.00000000000E+00 -0.00000000000E+00 -0.45593999997E+02  0.45594000000E+02  0.51100000000E-03 0. -1.
         23    2    1    2    0    0 -0.17763568394E-14  0.35527136788E-14  0.00000000000E+00  0.91188000000E+02  0.91188000000E+02 0.  0.
    9900012    2    3    3    0    0  0.14783589634E+02 -0.29748922409E+02  0.15881642740E+02  0.54367089052E+02  0.40000011111E+02 0.  0.
         12    1    3    3    0    0 -0.14783589634E+02  0.29748922409E+02 -0.15881642740E+02  0.36820910948E+02  0.00000000000E+00 0. -1.
         11    1    4    4    0    0  0.54999634600E+01  0.23046554794E+00  0.20888947016E+00  0.55087519005E+01  0.51100000000E-03 0.  1.
        -11    1    4    4    0    0  0.22125031631E+02 -0.20303678474E+02  0.82041609373E+01  0.31129803102E+02  0.51100000000E-03 0. -1.
         12    1    4    4    0    0 -0.12841405457E+02 -0.96757094823E+01  0.74685923324E+01  0.17728534049E+02  0.00000000000E+00 0. -1.
</event>
<event>
 8    1  0.1262344E-006  0.9118800E+02  0.7816164E-02  0.1184000E+00
        -11   -1    0    0    0    0  0.00000000000E+00  0.00000000000E+00  0.45593999997E+02  0.45594000000E+02  0.51100000000E-03 0.  1.
         11   -1    0    0    0    0 -0.00000000000E+00 -0.00000000000E+00 -0.45593999997E+02  0.45594000000E+02  0.51100000000E-03 0. -1.
         23    2    1    2    0    0  0.00000000000E+00  0.00000000000E+00 -0.88817841970E-15  0.91188000000E+02  0.91188000000E+02 0.  0.
    9900012    2    3    3    0    0  0.15991269714E+02  0.32670327998E+02  0.57191572200E+01  0.54367084777E+02  0.40000001365E+02 0.  0.
         12    1    3    3    0    0 -0.15991269714E+02 -0.32670327998E+02 -0.57191572200E+01  0.36820915223E+02  0.00000000000E+00 0. -1.
         11    1    4    4    0    0  0.14244586962E+02  0.49583734331E+01 -0.40549024108E+01  0.15618449303E+02  0.51100000000E-03 0. -1.
        -11    1    4    4    0    0  0.11732936564E+02  0.20268666437E+02  0.86566418347E+00  0.23435656899E+02  0.51100000000E-03 0.  1.
         12    1    4    4    0    0 -0.99862538124E+01  0.74432881284E+01  0.89083954474E+01  0.15312978574E+02  0.00000000000E+00 0. -1.
</event>
<event>
 8    1  0.1262344E-006  0.9118800E+02  0.7816164E-02  0.1184000E+00
        -11   -1    0    0    0    0  0.00000000000E+00  0.00000000000E+00  0.45593999997E+02  0.45594000000E+02  0.51100000000E-03 0. -1.
         11   -1    0    0    0    0 -0.00000000000E+00 -0.00000000000E+00 -0.45593999997E+02  0.45594000000E+02  0.51100000000E-03 0.  1.
         23    2    1    2    0    0  0.00000000000E+00  0.00000000000E+00  0.00000000000E+00  0.91188000000E+02  0.91188000000E+02 0.  0.
    9900012    2    3    3    0    0 -0.34341150581E+02  0.12183516615E+02  0.52941225461E+01  0.54367076140E+02  0.39999981677E+02 0.  0.
        -12    1    3    3    0    0  0.34341150581E+02 -0.12183516615E+02 -0.52941225461E+01  0.36820923860E+02  0.00000000000E+00 0.  1.
         11    1    4    4    0    0 -0.20856526214E+02  0.12503660043E+02  0.13901206168E+02  0.28010350469E+02  0.51100000000E-03 0. -1.
        -11    1    4    4    0    0  0.54394826578E+01  0.64019088611E-01 -0.43268447980E+01  0.69508025576E+01  0.51100000000E-03 0.  1.
         12    1    4    4    0    0 -0.18924107025E+02 -0.38416251570E+00 -0.42802388240E+01  0.19405923114E+02  0.00000000000E+00 0. -1.
</event>
<event>
 8    1  0.1262344E-006  0.9118800E+02  0.7816164E-02  0.1184000E+00
        -11   -1    0    0    0    0  0.00000000000E+00  0.00000000000E+00  0.45593999997E+02  0.45594000000E+02  0.51100000000E-03 0. -1.
         11   -1    0    0    0    0 -0.00000000000E+00 -0.00000000000E+00 -0.45593999997E+02  0.45594000000E+02  0.51100000000E-03 0.  1.
         23    2    1    2    0    0  0.00000000000E+00 -0.35527136788E-14 -0.35527136788E-14  0.91188000000E+02  0.91188000000E+02 0.  0.
    9900012    2    3    3    0    0  0.71260531218E+01  0.25447047568E+02  0.25640741607E+02  0.54367075335E+02  0.39999979840E+02 0.  0.
        -12    1    3    3    0    0 -0.71260531218E+01 -0.25447047568E+02 -0.25640741607E+02  0.36820924665E+02  0.00000000000E+00 0.  1.
         11    1    4    4    0    0  0.79279463321E+01  0.45648643765E+01  0.11444804007E+02  0.14651752757E+02  0.51100000000E-03 0. -1.
        -11    1    4    4    0    0  0.35324621181E+01 -0.71242953909E+01  0.67066404071E+01  0.10402542922E+02  0.51100000000E-03 0.  1.
        -12    1    4    4    0    0 -0.43343553284E+01  0.28006478583E+02  0.74892971933E+01  0.29312779656E+02  0.00000000000E+00 0.  1.
</event>
<event>
 8    1  0.1262344E-006  0.9118800E+02  0.7816164E-02  0.1184000E+00
        -11   -1    0    0    0    0  0.00000000000E+00  0.00000000000E+00  0.45593999997E+02  0.45594000000E+02  0.51100000000E-03 0.  1.
         11   -1    0    0    0    0 -0.00000000000E+00 -0.00000000000E+00 -0.45593999997E+02  0.45594000000E+02  0.51100000000E-03 0. -1.
         23    2    1    2    0    0  0.00000000000E+00  0.00000000000E+00 -0.35527136788E-14  0.91188000000E+02  0.91188000000E+02 0.  0.
    9900012    2    3    3    0    0  0.83590316561E+01 -0.18820458072E+02  0.30523719035E+02  0.54367075568E+02  0.39999980373E+02 0.  0.
         12    1    3    3    0    0 -0.83590316561E+01  0.18820458072E+02 -0.30523719035E+02  0.36820924432E+02  0.00000000000E+00 0. -1.
         11    1    4    4    0    0  0.15714236809E+01 -0.31911936095E+01  0.72831360184E+00  0.36309131086E+01  0.51100000000E-03 0. -1.
        -11    1    4    4    0    0  0.36394358163E+01 -0.25999757406E+02  0.98572144736E+01  0.28042780812E+02  0.51100000000E-03 0.  1.
        -12    1    4    4    0    0  0.31481721589E+01  0.10370492944E+02  0.19938190960E+02  0.22693381647E+02  0.00000000000E+00 0.  1.
</event>
<event>
 8    1  0.1262344E-006  0.9118800E+02  0.7816164E-02  0.1184000E+00
        -11   -1    0    0    0    0  0.00000000000E+00  0.00000000000E+00  0.45593999997E+02  0.45594000000E+02  0.51100000000E-03 0.  1.
         11   -1    0    0    0    0 -0.00000000000E+00 -0.00000000000E+00 -0.45593999997E+02  0.45594000000E+02  0.51100000000E-03 0. -1.
         23    2    1    2    0    0  0.71054273576E-14 -0.17763568394E-14  0.26645352591E-14  0.91188000000E+02  0.91188000000E+02 0.  0.
    9900012    2    3    3    0    0 -0.33669244177E+02  0.13678485058E+02 -0.59211866155E+01  0.54367090073E+02  0.40000013439E+02 0.  0.
        -12    1    3    3    0    0  0.33669244177E+02 -0.13678485058E+02  0.59211866155E+01  0.36820909927E+02  0.00000000000E+00 0.  1.
         11    1    4    4    0    0 -0.19819762742E+02  0.94889040572E+01  0.72827982919E+01  0.23149545278E+02  0.51100000000E-03 0. -1.
        -11    1    4    4    0    0 -0.85651876653E-01  0.91301129363E+01 -0.13839519981E+02  0.16580066708E+02  0.51100000000E-03 0.  1.
         12    1    4    4    0    0 -0.13763829559E+02 -0.49405319360E+01  0.63553507352E+00  0.14637478087E+02  0.00000000000E+00 0. -1.
</event>
<event>
 8    1  0.1262344E-006  0.9118800E+02  0.7816164E-02  0.1184000E+00
        -11   -1    0    0    0    0  0.00000000000E+00  0.00000000000E+00  0.45593999997E+02  0.45594000000E+02  0.51100000000E-03 0.  1.
         11   -1    0    0    0    0 -0.00000000000E+00 -0.00000000000E+00 -0.45593999997E+02  0.45594000000E+02  0.51100000000E-03 0. -1.
         23    2    1    2    0    0 -0.44408920985E-15  0.88817841970E-15  0.00000000000E+00  0.91188000000E+02  0.91188000000E+02 0.  0.
    9900012    2    3    3    0    0  0.23450884915E+01  0.34022449824E+01 -0.36588323794E+02  0.54367080009E+02  0.39999990497E+02 0.  0.
        -12    1    3    3    0    0 -0.23450884915E+01 -0.34022449824E+01  0.36588323794E+02  0.36820919991E+02  0.00000000000E+00 0.  1.
         11    1    4    4    0    0  0.63078356167E+01 -0.63846729705E+01 -0.19091572006E+02  0.21095993957E+02  0.51100000000E-03 0. -1.
        -11    1    4    4    0    0 -0.11290957380E+02  0.15380423435E+02 -0.11805464152E+02  0.22436847544E+02  0.51100000000E-03 0.  1.
         12    1    4    4    0    0  0.73282102545E+01 -0.55935054820E+01 -0.56912876357E+01  0.10834238509E+02  0.00000000000E+00 0. -1.
</event>
<event>
 8    1  0.1262344E-006  0.9118800E+02  0.7816164E-02  0.1184000E+00
        -11   -1    0    0    0    0  0.00000000000E+00  0.00000000000E+00  0.45593999997E+02  0.45594000000E+02  0.51100000000E-03 0. -1.
         11   -1    0    0    0    0 -0.00000000000E+00 -0.00000000000E+00 -0.45593999997E+02  0.45594000000E+02  0.51100000000E-03 0.  1.
         23    2    1    2    0    0  0.00000000000E+00  0.00000000000E+00 -0.27755575616E-15  0.91188000000E+02  0.91188000000E+02 0.  0.
    9900012    2    3    3    0    0 -0.95265324796E+01  0.35567119754E+02  0.28693122544E-01  0.54367141075E+02  0.40000129709E+02 0.  0.
         12    1    3    3    0    0  0.95265324796E+01 -0.35567119754E+02 -0.28693122544E-01  0.36820858925E+02  0.00000000000E+00 0. -1.
         11    1    4    4    0    0 -0.12662096892E+01  0.31339766292E+01  0.14355041871E+02  0.14747620956E+02  0.51100000000E-03 0. -1.
        -11    1    4    4    0    0 -0.63298029773E+01  0.27017404279E+01 -0.90307703838E+00  0.69412790946E+01  0.51100000000E-03 0.  1.
        -12    1    4    4    0    0 -0.19305198132E+01  0.29731402697E+02 -0.13423271710E+02  0.32678241025E+02  0.00000000000E+00 0.  1.
</event>
<event>
 8    1  0.1262344E-006  0.9118800E+02  0.7816164E-02  0.1184000E+00
        -11   -1    0    0    0    0  0.00000000000E+00  0.00000000000E+00  0.45593999997E+02  0.45594000000E+02  0.51100000000E-03 0. -1.
         11   -1    0    0    0    0 -0.00000000000E+00 -0.00000000000E+00 -0.45593999997E+02  0.45594000000E+02  0.51100000000E-03 0.  1.
         23    2    1    2    0    0  0.00000000000E+00  0.00000000000E+00 -0.88817841970E-15  0.91188000000E+02  0.91188000000E+02 0.  0.
    9900012    2    3    3    0    0  0.30534906693E+02  0.19739728900E+02 -0.58088522410E+01  0.54367079477E+02  0.39999989284E+02 0.  0.
        -12    1    3    3    0    0 -0.30534906693E+02 -0.19739728900E+02  0.58088522410E+01  0.36820920523E+02  0.00000000000E+00 0.  1.
         11    1    4    4    0    0 -0.83759438035E+00  0.15288497192E+02  0.11289228954E+01  0.15352985960E+02  0.51100000000E-03 0. -1.
        -11    1    4    4    0    0  0.13741226538E+02 -0.37995323641E+01  0.61818414580E+01  0.15539398863E+02  0.51100000000E-03 0.  1.
         12    1    4    4    0    0  0.17631274535E+02  0.82507640724E+01 -0.13119616594E+02  0.23474694654E+02  0.00000000000E+00 0. -1.
</event>
<event>
 8    1  0.1262344E-006  0.9118800E+02  0.7816164E-02  0.1184000E+00
        -11   -1    0    0    0    0  0.00000000000E+00  0.00000000000E+00  0.45593999997E+02  0.45594000000E+02  0.51100000000E-03 0.  1.
         11   -1    0    0    0    0 -0.00000000000E+00 -0.00000000000E+00 -0.45593999997E+02  0.45594000000E+02  0.51100000000E-03 0. -1.
         23    2    1    2    0    0 -0.71054273576E-14 -0.88817841970E-15  0.17763568394E-14  0.91188000000E+02  0.91188000000E+02 0.  0.
    9900012    2    3    3    0    0  0.34907271904E+02  0.37831163043E+01 -0.11088311824E+02  0.54367078503E+02  0.39999987064E+02 0.  0.
        -12    1    3    3    0    0 -0.34907271904E+02 -0.37831163043E+01  0.11088311824E+02  0.36820921497E+02  0.00000000000E+00 0.  1.
         11    1    4    4    0    0  0.90406629713E+01 -0.14555741298E+01 -0.47803594983E+01  0.10329768642E+02  0.51100000000E-03 0. -1.
        -11    1    4    4    0    0  0.12392615412E+02  0.16017523945E+02  0.78473180014E+01  0.21719078943E+02  0.51100000000E-03 0.  1.
         12    1    4    4    0    0  0.13473993521E+02 -0.10778833511E+02 -0.14155270327E+02  0.22318230918E+02  0.00000000000E+00 0. -1.
</event>
<event>
 8    1  0.1262344E-006  0.9118800E+02  0.7816164E-02  0.1184000E+00
        -11   -1    0    0    0    0  0.00000000000E+00  0.00000000000E+00  0.45593999997E+02  0.45594000000E+02  0.51100000000E-03 0.  1.
         11   -1    0    0    0    0 -0.00000000000E+00 -0.00000000000E+00 -0.45593999997E+02  0.45594000000E+02  0.51100000000E-03 0. -1.
         23    2    1    2    0    0  0.00000000000E+00 -0.88817841970E-15  0.00000000000E+00  0.91188000000E+02  0.91188000000E+02 0.  0.
    9900012    2    3    3    0    0 -0.29680927062E+02 -0.41423049989E+01 -0.21392999353E+02  0.54367128972E+02  0.40000102117E+02 0.  0.
        -12    1    3    3    0    0  0.29680927062E+02  0.41423049989E+01  0.21392999353E+02  0.36820871028E+02  0.00000000000E+00 0.  1.
         11    1    4    4    0    0 -0.84416043740E+01  0.27281668760E+01 -0.11427152810E+02  0.14466630586E+02  0.51100000000E-03 0. -1.
        -11    1    4    4    0    0  0.55805495688E+01  0.81287906589E+00  0.56046852160E+01  0.79508365910E+01  0.51100000000E-03 0.  1.
         12    1    4    4    0    0 -0.26819872257E+02 -0.76833509408E+01 -0.15570531759E+02  0.31949661795E+02  0.00000000000E+00 0. -1.
</event>
<event>
 8    1  0.1262344E-006  0.9118800E+02  0.7816164E-02  0.1184000E+00
        -11   -1    0    0    0    0  0.00000000000E+00  0.00000000000E+00  0.45593999997E+02  0.45594000000E+02  0.51100000000E-03 0. -1.
         11   -1    0    0    0    0 -0.00000000000E+00 -0.00000000000E+00 -0.45593999997E+02  0.45594000000E+02  0.51100000000E-03 0.  1.
         23    2    1    2    0    0 -0.35527136788E-14  0.00000000000E+00  0.00000000000E+00  0.91188000000E+02  0.91188000000E+02 0.  0.
    9900012    2    3    3    0    0  0.17625583131E+02  0.31588177401E+02 -0.68778990511E+01  0.54367087090E+02  0.40000006638E+02 0.  0.
        -12    1    3    3    0    0 -0.17625583131E+02 -0.31588177401E+02  0.68778990511E+01  0.36820912910E+02  0.00000000000E+00 0.  1.
         11    1    4    4    0    0 -0.40285889762E+01  0.26705666431E+02 -0.10288246513E+02  0.28901040903E+02  0.51100000000E-03 0. -1.
        -11    1    4    4    0    0  0.42552311811E+01  0.16516228046E+01 -0.41998329677E+01  0.62026967934E+01  0.51100000000E-03 0.  1.
         12    1    4    4    0    0  0.17398940926E+02  0.32308881647E+01  0.76101804299E+01  0.19263349394E+02  0.00000000000E+00 0. -1.
</event>
<event>
 8    1  0.1262344E-006  0.9118800E+02  0.7816164E-02  0.1184000E+00
        -11   -1    0    0    0    0  0.00000000000E+00  0.00000000000E+00  0.45593999997E+02  0.45594000000E+02  0.51100000000E-03 0.  1.
         11   -1    0    0    0    0 -0.00000000000E+00 -0.00000000000E+00 -0.45593999997E+02  0.45594000000E+02  0.51100000000E-03 0. -1.
         23    2    1    2    0    0 -0.17763568394E-14  0.35527136788E-14 -0.35527136788E-14  0.91188000000E+02  0.91188000000E+02 0.  0.
    9900012    2    3    3    0    0  0.15842844969E+02 -0.23390153823E+02  0.23615337305E+02  0.54367093050E+02  0.40000020227E+02 0.  0.
         12    1    3    3    0    0 -0.15842844969E+02  0.23390153823E+02 -0.23615337305E+02  0.36820906950E+02  0.00000000000E+00 0. -1.
         11    1    4    4    0    0  0.14759789955E+02 -0.10599522946E+02  0.14917925336E+02  0.23510546204E+02  0.51100000000E-03 0. -1.
        -11    1    4    4    0    0  0.21424187535E+01 -0.89080267951E+01  0.18288599103E+02  0.20455213441E+02  0.51100000000E-03 0.  1.
         12    1    4    4    0    0 -0.10593637398E+01 -0.38826040818E+01 -0.95911871337E+01  0.10401333406E+02  0.00000000000E+00 0. -1.
</event>
<event>
 8    1  0.1262344E-006  0.9118800E+02  0.7816164E-02  0.1184000E+00
        -11   -1    0    0    0    0  0.00000000000E+00  0.00000000000E+00  0.45593999997E+02  0.45594000000E+02  0.51100000000E-03 0. -1.
         11   -1    0    0    0    0 -0.00000000000E+00 -0.00000000000E+00 -0.45593999997E+02  0.45594000000E+02  0.51100000000E-03 0.  1.
         23    2    1    2    0    0  0.00000000000E+00  0.17763568394E-14  0.00000000000E+00  0.91188000000E+02  0.91188000000E+02 0.  0.
    9900012    2    3    3    0    0  0.24665038699E+02  0.11500610562E+02  0.24802302114E+02  0.54367049884E+02  0.39999921820E+02 0.  0.
        -12    1    3    3    0    0 -0.24665038699E+02 -0.11500610562E+02 -0.24802302114E+02  0.36820950116E+02  0.00000000000E+00 0.  1.
         11    1    4    4    0    0  0.18929159241E+02  0.31880479681E+01  0.25300332356E+02  0.31758204247E+02  0.51100000000E-03 0. -1.
        -11    1    4    4    0    0  0.10483589256E+02  0.12289761981E+02 -0.18808827283E+01  0.16262890682E+02  0.51100000000E-03 0.  1.
         12    1    4    4    0    0 -0.47477097978E+01 -0.39771993872E+01  0.13828524863E+01  0.63459549548E+01  0.00000000000E+00 0. -1.
</event>
<event>
 8    1  0.1262344E-006  0.9118800E+02  0.7816164E-02  0.1184000E+00
        -11   -1    0    0    0    0  0.00000000000E+00  0.00000000000E+00  0.45593999997E+02  0.45594000000E+02  0.51100000000E-03 0.  1.
         11   -1    0    0    0    0 -0.00000000000E+00 -0.00000000000E+00 -0.45593999997E+02  0.45594000000E+02  0.51100000000E-03 0. -1.
         23    2    1    2    0    0 -0.35527136788E-14  0.71054273576E-14  0.35527136788E-14  0.91188000000E+02  0.91188000000E+02 0.  0.
    9900012    2    3    3    0    0  0.15742303410E+02 -0.24112382895E+02 -0.22946819560E+02  0.54367032421E+02  0.39999882010E+02 0.  0.
        -12    1    3    3    0    0 -0.15742303410E+02  0.24112382895E+02  0.22946819560E+02  0.36820967579E+02  0.00000000000E+00 0.  1.
         11    1    4    4    0    0 -0.32682331248E+01 -0.47819066062E+01 -0.18738211932E+02  0.19612969312E+02  0.51100000000E-03 0. -1.
        -11    1    4    4    0    0  0.94138602543E+01  0.32420478549E+01 -0.16640202655E+01  0.10094582849E+02  0.51100000000E-03 0.  1.
        -12    1    4    4    0    0  0.95966762807E+01 -0.22572524144E+02 -0.25445873619E+01  0.24659480260E+02  0.00000000000E+00 0.  1.
</event>
<event>
 8    1  0.1262344E-006  0.9118800E+02  0.7816164E-02  0.1184000E+00
        -11   -1    0    0    0    0  0.00000000000E+00  0.00000000000E+00  0.45593999997E+02  0.45594000000E+02  0.51100000000E-03 0.  1.
         11   -1    0    0    0    0 -0.00000000000E+00 -0.00000000000E+00 -0.45593999997E+02  0.45594000000E+02  0.51100000000E-03 0. -1.
         23    2    1    2    0    0  0.71054273576E-14  0.00000000000E+00  0.88817841970E-15  0.91188000000E+02  0.91188000000E+02 0.  0.
    9900012    2    3    3    0    0 -0.35211435675E+02  0.90878396480E+01  0.57746051668E+01  0.54367080720E+02  0.39999992118E+02 0.  0.
         12    1    3    3    0    0  0.35211435675E+02 -0.90878396480E+01 -0.57746051668E+01  0.36820919280E+02  0.00000000000E+00 0. -1.
         11    1    4    4    0    0  0.11145744103E+01  0.50686322212E+01  0.55423400351E+01  0.75928151588E+01  0.51100000000E-03 0. -1.
        -11    1    4    4    0    0 -0.38634410864E+02  0.43331418021E+01  0.71022145805E+01  0.39520061651E+02  0.51100000000E-03 0.  1.
        -12    1    4    4    0    0  0.23084007786E+01 -0.31393437538E+00 -0.68699494488E+01  0.72542039105E+01  0.00000000000E+00 0.  1.
</event>
<event>
 8    1  0.1262344E-006  0.9118800E+02  0.7816164E-02  0.1184000E+00
        -11   -1    0    0    0    0  0.00000000000E+00  0.00000000000E+00  0.45593999997E+02  0.45594000000E+02  0.51100000000E-03 0. -1.
         11   -1    0    0    0    0 -0.00000000000E+00 -0.00000000000E+00 -0.45593999997E+02  0.45594000000E+02  0.51100000000E-03 0.  1.
         23    2    1    2    0    0  0.00000000000E+00  0.10658141036E-13  0.00000000000E+00  0.91188000000E+02  0.91188000000E+02 0.  0.
    9900012    2    3    3    0    0  0.21927737019E+02 -0.29511530401E+02 -0.20055810789E+01  0.54367103313E+02  0.40000043622E+02 0.  0.
        -12    1    3    3    0    0 -0.21927737019E+02  0.29511530401E+02  0.20055810789E+01  0.36820896687E+02  0.00000000000E+00 0.  1.
         11    1    4    4    0    0  0.85213930482E+01 -0.77160750794E+01  0.26196711549E+01  0.11790446613E+02  0.51100000000E-03 0. -1.
        -11    1    4    4    0    0  0.17213000386E+02  0.27908447438E+01 -0.23047251712E+01  0.17589427365E+02  0.51100000000E-03 0.  1.
         12    1    4    4    0    0 -0.38066564148E+01 -0.24586300066E+02 -0.23205270626E+01  0.24987229335E+02  0.00000000000E+00 0. -1.
</event>
<event>
 8    1  0.1262344E-006  0.9118800E+02  0.7816164E-02  0.1184000E+00
        -11   -1    0    0    0    0  0.00000000000E+00  0.00000000000E+00  0.45593999997E+02  0.45594000000E+02  0.51100000000E-03 0.  1.
         11   -1    0    0    0    0 -0.00000000000E+00 -0.00000000000E+00 -0.45593999997E+02  0.45594000000E+02  0.51100000000E-03 0. -1.
         23    2    1    2    0    0  0.00000000000E+00  0.66613381478E-15  0.17763568394E-14  0.91188000000E+02  0.91188000000E+02 0.  0.
    9900012    2    3    3    0    0 -0.34954403558E+02  0.33209630324E+00  0.11569765915E+02  0.54367080683E+02  0.39999992032E+02 0.  0.
         12    1    3    3    0    0  0.34954403558E+02 -0.33209630324E+00 -0.11569765915E+02  0.36820919317E+02  0.00000000000E+00 0. -1.
         11    1    4    4    0    0 -0.61170673640E+01  0.11031632648E+02 -0.44085475693E+01  0.13362287377E+02  0.51100000000E-03 0.  1.
        -11    1    4    4    0    0 -0.19522262235E+02 -0.91250526536E+01 -0.10025161631E+01  0.21572907723E+02  0.51100000000E-03 0. -1.
        -12    1    4    4    0    0 -0.93150739586E+01 -0.15744836916E+01  0.16980829648E+02  0.19431885582E+02  0.00000000000E+00 0.  1.
</event>
<event>
 8    1  0.1262344E-006  0.9118800E+02  0.7816164E-02  0.1184000E+00
        -11   -1    0    0    0    0  0.00000000000E+00  0.00000000000E+00  0.45593999997E+02  0.45594000000E+02  0.51100000000E-03 0.  1.
         11   -1    0    0    0    0 -0.00000000000E+00 -0.00000000000E+00 -0.45593999997E+02  0.45594000000E+02  0.51100000000E-03 0. -1.
         23    2    1    2    0    0  0.00000000000E+00  0.00000000000E+00 -0.88817841970E-15  0.91188000000E+02  0.91188000000E+02 0.  0.
    9900012    2    3    3    0    0  0.13542368206E+02 -0.34139557392E+02 -0.26220798200E+01  0.54367076354E+02  0.39999982164E+02 0.  0.
         12    1    3    3    0    0 -0.13542368206E+02  0.34139557392E+02  0.26220798200E+01  0.36820923646E+02  0.00000000000E+00 0. -1.
         11    1    4    4    0    0  0.44608898943E+01 -0.52058783909E+01 -0.10988509773E+02  0.12951758790E+02  0.51100000000E-03 0. -1.
        -11    1    4    4    0    0 -0.76289469694E+01 -0.99320769255E+01  0.10046454767E+02  0.16055473757E+02  0.51100000000E-03 0.  1.
         12    1    4    4    0    0  0.16710425281E+02 -0.19001602076E+02 -0.16800248140E+01  0.25359843807E+02  0.00000000000E+00 0. -1.
</event>
<event>
 8    1  0.1262344E-006  0.9118800E+02  0.7816164E-02  0.1184000E+00
        -11   -1    0    0    0    0  0.00000000000E+00  0.00000000000E+00  0.45593999997E+02  0.45594000000E+02  0.51100000000E-03 0.  1.
         11   -1    0    0    0    0 -0.00000000000E+00 -0.00000000000E+00 -0.45593999997E+02  0.45594000000E+02  0.51100000000E-03 0. -1.
         23    2    1    2    0    0  0.00000000000E+00  0.00000000000E+00  0.00000000000E+00  0.91188000000E+02  0.91188000000E+02 0.  0.
    9900012    2    3    3    0    0 -0.96684045090E+01  0.29370941158E+02 -0.19991243504E+02  0.54367081392E+02  0.39999993650E+02 0.  0.
        -12    1    3    3    0    0  0.96684045090E+01 -0.29370941158E+02  0.19991243504E+02  0.36820918608E+02  0.00000000000E+00 0.  1.
         11    1    4    4    0    0 -0.13884324591E+01  0.15279907251E+02 -0.15648649534E+02  0.21915372294E+02  0.51100000000E-03 0. -1.
        -11    1    4    4    0    0  0.59162104445E+00  0.38364329733E+01  0.11183532169E+02  0.11838058348E+02  0.51100000000E-03 0.  1.
        -12    1    4    4    0    0 -0.88715930944E+01  0.10254600934E+02 -0.15526126139E+02  0.20613650750E+02  0.00000000000E+00 0.  1.
</event>
<event>
 8    1  0.1262344E-006  0.9118800E+02  0.7816164E-02  0.1184000E+00
        -11   -1    0    0    0    0  0.00000000000E+00  0.00000000000E+00  0.45593999997E+02  0.45594000000E+02  0.51100000000E-03 0.  1.
         11   -1    0    0    0    0 -0.00000000000E+00 -0.00000000000E+00 -0.45593999997E+02  0.45594000000E+02  0.51100000000E-03 0. -1.
         23    2    1    2    0    0  0.22204460493E-15  0.00000000000E+00  0.88817841970E-15  0.91188000000E+02  0.91188000000E+02 0.  0.
    9900012    2    3    3    0    0 -0.99302714011E+00  0.36540892163E+02 -0.44222689821E+01  0.54367090642E+02  0.40000014737E+02 0.  0.
        -12    1    3    3    0    0  0.99302714011E+00 -0.36540892163E+02  0.44222689821E+01  0.36820909358E+02  0.00000000000E+00 0.  1.
         11    1    4    4    0    0  0.35951484574E+01  0.93810967452E+01 -0.26234212125E+01  0.10383275384E+02  0.51100000000E-03 0. -1.
        -11    1    4    4    0    0  0.55886713576E+01  0.29403336029E+02  0.65412341094E+01  0.30636206703E+02  0.51100000000E-03 0.  1.
        -12    1    4    4    0    0 -0.10176846955E+02 -0.22435406112E+01 -0.83400818789E+01  0.13347608556E+02  0.00000000000E+00 0.  1.
</event>
<event>
 8    1  0.1262344E-006  0.9118800E+02  0.7816164E-02  0.1184000E+00
        -11   -1    0    0    0    0  0.00000000000E+00  0.00000000000E+00  0.45593999997E+02  0.45594000000E+02  0.51100000000E-03 0. -1.
         11   -1    0    0    0    0 -0.00000000000E+00 -0.00000000000E+00 -0.45593999997E+02  0.45594000000E+02  0.51100000000E-03 0.  1.
         23    2    1    2    0    0  0.22204460493E-15  0.35527136788E-14  0.00000000000E+00  0.91188000000E+02  0.91188000000E+02 0.  0.
    9900012    2    3    3    0    0 -0.17686468313E+01 -0.19949244377E+02  0.30897885287E+02  0.54367085047E+02  0.40000001981E+02 0.  0.
        -12    1    3    3    0    0  0.17686468313E+01  0.19949244377E+02 -0.30897885287E+02  0.36820914953E+02  0.00000000000E+00 0.  1.
         11    1    4    4    0    0  0.23620508681E+01 -0.90276873039E+01  0.24084088000E+02  0.25828699491E+02  0.51100000000E-03 0. -1.
        -11    1    4    4    0    0 -0.91399801764E-01 -0.18279691373E+02  0.81928411309E+01  0.20031927432E+02  0.51100000000E-03 0.  1.
         12    1    4    4    0    0 -0.40392978976E+01  0.73581342997E+01 -0.13790438440E+01  0.85064581232E+01  0.00000000000E+00 0. -1.
</event>
<event>
 8    1  0.1262344E-006  0.9118800E+02  0.7816164E-02  0.1184000E+00
        -11   -1    0    0    0    0  0.00000000000E+00  0.00000000000E+00  0.45593999997E+02  0.45594000000E+02  0.51100000000E-03 0.  1.
         11   -1    0    0    0    0 -0.00000000000E+00 -0.00000000000E+00 -0.45593999997E+02  0.45594000000E+02  0.51100000000E-03 0. -1.
         23    2    1    2    0    0 -0.13322676296E-14 -0.88817841970E-15  0.00000000000E+00  0.91188000000E+02  0.91188000000E+02 0.  0.
    9900012    2    3    3    0    0 -0.14825342059E+01 -0.62133338959E+01  0.36262554802E+02  0.54367132187E+02  0.40000109446E+02 0.  0.
         12    1    3    3    0    0  0.14825342059E+01  0.62133338959E+01 -0.36262554802E+02  0.36820867813E+02  0.00000000000E+00 0. -1.
         11    1    4    4    0    0 -0.10373314371E+02 -0.75748859709E+01 -0.16245389589E+01  0.12946956229E+02  0.51100000000E-03 0. -1.
        -11    1    4    4    0    0  0.10836098490E+02  0.49705054835E+01  0.22112388240E+02  0.25121398631E+02  0.51100000000E-03 0.  1.
        -12    1    4    4    0    0 -0.19453183251E+01 -0.36089534085E+01  0.15774705521E+02  0.16298777327E+02  0.00000000000E+00 0.  1.
</event>
<event>
 8    1  0.1262344E-006  0.9118800E+02  0.7816164E-02  0.1184000E+00
        -11   -1    0    0    0    0  0.00000000000E+00  0.00000000000E+00  0.45593999997E+02  0.45594000000E+02  0.51100000000E-03 0. -1.
         11   -1    0    0    0    0 -0.00000000000E+00 -0.00000000000E+00 -0.45593999997E+02  0.45594000000E+02  0.51100000000E-03 0.  1.
         23    2    1    2    0    0  0.00000000000E+00  0.00000000000E+00  0.00000000000E+00  0.91188000000E+02  0.91188000000E+02 0.  0.
    9900012    2    3    3    0    0 -0.30612486518E+02 -0.91882586514E+01  0.18281995290E+02  0.54367085025E+02  0.40000001931E+02 0.  0.
        -12    1    3    3    0    0  0.30612486518E+02  0.91882586514E+01 -0.18281995290E+02  0.36820914975E+02  0.00000000000E+00 0.  1.
         11    1    4    4    0    0 -0.96660212814E+01 -0.60035917738E+00  0.18682639342E+02  0.21043607380E+02  0.51100000000E-03 0. -1.
        -11    1    4    4    0    0 -0.13982023916E+02  0.66238764344E+01 -0.44718835873E+01  0.16104982921E+02  0.51100000000E-03 0.  1.
         12    1    4    4    0    0 -0.69644413203E+01 -0.15211775908E+02  0.40712395353E+01  0.17218494724E+02  0.00000000000E+00 0. -1.
</event>
<event>
 8    1  0.1262344E-006  0.9118800E+02  0.7816164E-02  0.1184000E+00
        -11   -1    0    0    0    0  0.00000000000E+00  0.00000000000E+00  0.45593999997E+02  0.45594000000E+02  0.51100000000E-03 0.  1.
         11   -1    0    0    0    0 -0.00000000000E+00 -0.00000000000E+00 -0.45593999997E+02  0.45594000000E+02  0.51100000000E-03 0. -1.
         23    2    1    2    0    0 -0.24424906542E-14  0.00000000000E+00  0.71054273576E-14  0.91188000000E+02  0.91188000000E+02 0.  0.
    9900012    2    3    3    0    0  0.18945553210E+01 -0.24061548513E+02 -0.27807038940E+02  0.54367097359E+02  0.40000030049E+02 0.  0.
        -12    1    3    3    0    0 -0.18945553210E+01  0.24061548513E+02  0.27807038940E+02  0.36820902641E+02  0.00000000000E+00 0.  1.
         11    1    4    4    0    0 -0.74195353695E+01 -0.52620702907E+01  0.76326519552E+01  0.11874184813E+02  0.51100000000E-03 0. -1.
        -11    1    4    4    0    0  0.52790881749E+01 -0.15880355100E+01 -0.59571991821E+01  0.81165787803E+01  0.51100000000E-03 0.  1.
         12    1    4    4    0    0  0.40350025156E+01 -0.17211442713E+02 -0.29482491713E+02  0.34376333765E+02  0.00000000000E+00 0. -1.
</event>
<event>
 8    1  0.1262344E-006  0.9118800E+02  0.7816164E-02  0.1184000E+00
        -11   -1    0    0    0    0  0.00000000000E+00  0.00000000000E+00  0.45593999997E+02  0.45594000000E+02  0.51100000000E-03 0.  1.
         11   -1    0    0    0    0 -0.00000000000E+00 -0.00000000000E+00 -0.45593999997E+02  0.45594000000E+02  0.51100000000E-03 0. -1.
         23    2    1    2    0    0  0.00000000000E+00  0.71054273576E-14 -0.17763568394E-14  0.91188000000E+02  0.91188000000E+02 0.  0.
    9900012    2    3    3    0    0  0.74935169838E+01  0.34457522846E+02  0.10596798245E+02  0.54367274715E+02  0.40000434364E+02 0.  0.
         12    1    3    3    0    0 -0.74935169838E+01 -0.34457522846E+02 -0.10596798245E+02  0.36820725285E+02  0.00000000000E+00 0. -1.
         11    1    4    4    0    0 -0.22960004226E+01  0.16803968880E+02 -0.73693898217E+01  0.18491968383E+02  0.51100000000E-03 0. -1.
        -11    1    4    4    0    0  0.13846971876E+02  0.13962411637E+02  0.29446576734E+01  0.19883625875E+02  0.51100000000E-03 0.  1.
         12    1    4    4    0    0 -0.40574544697E+01  0.36911423293E+01  0.15021530394E+02  0.15991680457E+02  0.00000000000E+00 0. -1.
</event>
<event>
 8    1  0.1262344E-006  0.9118800E+02  0.7816164E-02  0.1184000E+00
        -11   -1    0    0    0    0  0.00000000000E+00  0.00000000000E+00  0.45593999997E+02  0.45594000000E+02  0.51100000000E-03 0. -1.
         11   -1    0    0    0    0 -0.00000000000E+00 -0.00000000000E+00 -0.45593999997E+02  0.45594000000E+02  0.51100000000E-03 0.  1.
         23    2    1    2    0    0  0.00000000000E+00  0.00000000000E+00  0.00000000000E+00  0.91188000000E+02  0.91188000000E+02 0.  0.
    9900012    2    3    3    0    0  0.24338911538E+02 -0.25919188285E+02 -0.95704641791E+01  0.54367072244E+02  0.39999972795E+02 0.  0.
         12    1    3    3    0    0 -0.24338911538E+02  0.25919188285E+02  0.95704641791E+01  0.36820927756E+02  0.00000000000E+00 0. -1.
         11    1    4    4    0    0  0.54301921840E+01  0.52946940574E+01 -0.30597230696E+01  0.81781830403E+01  0.51100000000E-03 0. -1.
        -11    1    4    4    0    0  0.18267425245E+02 -0.12497774666E+02 -0.13811196573E+02  0.26089123169E+02  0.51100000000E-03 0.  1.
        -12    1    4    4    0    0  0.64129410915E+00 -0.18716107677E+02  0.73004554631E+01  0.20099766035E+02  0.00000000000E+00 0.  1.
</event>
<event>
 8    1  0.1262344E-006  0.9118800E+02  0.7816164E-02  0.1184000E+00
        -11   -1    0    0    0    0  0.00000000000E+00  0.00000000000E+00  0.45593999997E+02  0.45594000000E+02  0.51100000000E-03 0.  1.
         11   -1    0    0    0    0 -0.00000000000E+00 -0.00000000000E+00 -0.45593999997E+02  0.45594000000E+02  0.51100000000E-03 0. -1.
         23    2    1    2    0    0 -0.35527136788E-14  0.35527136788E-14  0.88817841970E-15  0.91188000000E+02  0.91188000000E+02 0.  0.
    9900012    2    3    3    0    0 -0.29226941741E+02  0.21687104170E+02  0.55887670556E+01  0.54367096589E+02  0.40000028294E+02 0.  0.
         12    1    3    3    0    0  0.29226941741E+02 -0.21687104170E+02 -0.55887670556E+01  0.36820903411E+02  0.00000000000E+00 0. -1.
         11    1    4    4    0    0 -0.27941219904E+01  0.21189628855E+02 -0.39822958905E+01  0.21740887046E+02  0.51100000000E-03 0. -1.
        -11    1    4    4    0    0 -0.59827719787E+01  0.65399060843E+01  0.66973549424E+01  0.11109387725E+02  0.51100000000E-03 0.  1.
        -12    1    4    4    0    0 -0.20450047772E+02 -0.60424307695E+01  0.28737080037E+01  0.21516821818E+02  0.00000000000E+00 0.  1.
</event>
<event>
 8    1  0.1262344E-006  0.9118800E+02  0.7816164E-02  0.1184000E+00
        -11   -1    0    0    0    0  0.00000000000E+00  0.00000000000E+00  0.45593999997E+02  0.45594000000E+02  0.51100000000E-03 0.  1.
         11   -1    0    0    0    0 -0.00000000000E+00 -0.00000000000E+00 -0.45593999997E+02  0.45594000000E+02  0.51100000000E-03 0. -1.
         23    2    1    2    0    0 -0.37747582837E-14  0.00000000000E+00  0.71054273576E-14  0.91188000000E+02  0.91188000000E+02 0.  0.
    9900012    2    3    3    0    0  0.12665646664E+01  0.65399143306E+01  0.36213327174E+02  0.54367085691E+02  0.40000003450E+02 0.  0.
         12    1    3    3    0    0 -0.12665646664E+01 -0.65399143306E+01 -0.36213327174E+02  0.36820914309E+02  0.00000000000E+00 0. -1.
         11    1    4    4    0    0  0.19915913151E+02  0.96634513914E+00  0.19573857040E+02  0.27941247274E+02  0.51100000000E-03 0.  1.
        -11    1    4    4    0    0 -0.22151472052E+01  0.15117626094E+01 -0.97054539248E-02  0.26818646097E+01  0.51100000000E-03 0. -1.
        -12    1    4    4    0    0 -0.16434201279E+02  0.40618065820E+01  0.16649175588E+02  0.23743973807E+02  0.00000000000E+00 0.  1.
</event>
<event>
 8    1  0.1262344E-006  0.9118800E+02  0.7816164E-02  0.1184000E+00
        -11   -1    0    0    0    0  0.00000000000E+00  0.00000000000E+00  0.45593999997E+02  0.45594000000E+02  0.51100000000E-03 0.  1.
         11   -1    0    0    0    0 -0.00000000000E+00 -0.00000000000E+00 -0.45593999997E+02  0.45594000000E+02  0.51100000000E-03 0. -1.
         23    2    1    2    0    0 -0.88817841970E-15 -0.88817841970E-15  0.00000000000E+00  0.91188000000E+02  0.91188000000E+02 0.  0.
    9900012    2    3    3    0    0 -0.68653383714E+01 -0.60621302459E+01  0.35663636831E+02  0.54367118885E+02  0.40000079122E+02 0.  0.
         12    1    3    3    0    0  0.68653383714E+01  0.60621302459E+01 -0.35663636831E+02  0.36820881115E+02  0.00000000000E+00 0. -1.
         11    1    4    4    0    0 -0.79597665877E+01  0.12707472578E+01  0.23840848060E+02  0.25166619145E+02  0.51100000000E-03 0. -1.
        -11    1    4    4    0    0 -0.94424372844E+01 -0.11917393197E+02  0.64748137637E+01  0.16525952197E+02  0.51100000000E-03 0.  1.
         12    1    4    4    0    0  0.10536865501E+02  0.45845156934E+01  0.53479750075E+01  0.12674547542E+02  0.00000000000E+00 0. -1.
</event>
<event>
 8    1  0.1262344E-006  0.9118800E+02  0.7816164E-02  0.1184000E+00
        -11   -1    0    0    0    0  0.00000000000E+00  0.00000000000E+00  0.45593999997E+02  0.45594000000E+02  0.51100000000E-03 0. -1.
         11   -1    0    0    0    0 -0.00000000000E+00 -0.00000000000E+00 -0.45593999997E+02  0.45594000000E+02  0.51100000000E-03 0.  1.
         23    2    1    2    0    0  0.00000000000E+00 -0.88817841970E-15  0.00000000000E+00  0.91188000000E+02  0.91188000000E+02 0.  0.
    9900012    2    3    3    0    0 -0.36596710569E+02 -0.30581435386E+01  0.26661498505E+01  0.54367084457E+02  0.40000000636E+02 0.  0.
         12    1    3    3    0    0  0.36596710569E+02  0.30581435386E+01 -0.26661498505E+01  0.36820915543E+02  0.00000000000E+00 0. -1.
         11    1    4    4    0    0 -0.24282088513E+02 -0.20898671546E+01 -0.93945918808E+01  0.26119833922E+02  0.51100000000E-03 0. -1.
        -11    1    4    4    0    0 -0.98429533426E+01  0.76785987214E+01 -0.85042659022E+00  0.12512706920E+02  0.51100000000E-03 0.  1.
         12    1    4    4    0    0 -0.24716687143E+01 -0.86468751054E+01  0.12911168322E+02  0.15734543614E+02  0.00000000000E+00 0. -1.
</event>
<event>
 8    1  0.1262344E-006  0.9118800E+02  0.7816164E-02  0.1184000E+00
        -11   -1    0    0    0    0  0.00000000000E+00  0.00000000000E+00  0.45593999997E+02  0.45594000000E+02  0.51100000000E-03 0.  1.
         11   -1    0    0    0    0 -0.00000000000E+00 -0.00000000000E+00 -0.45593999997E+02  0.45594000000E+02  0.51100000000E-03 0. -1.
         23    2    1    2    0    0  0.00000000000E+00  0.00000000000E+00  0.00000000000E+00  0.91188000000E+02  0.91188000000E+02 0.  0.
    9900012    2    3    3    0    0 -0.17951424578E+02  0.26746995159E+02  0.17836046909E+02  0.54367082524E+02  0.39999996231E+02 0.  0.
         12    1    3    3    0    0  0.17951424578E+02 -0.26746995159E+02 -0.17836046909E+02  0.36820917476E+02  0.00000000000E+00 0. -1.
         11    1    4    4    0    0 -0.74289185164E+01  0.29639067773E+01 -0.75127988820E+01  0.10973409726E+02  0.51100000000E-03 0. -1.
        -11    1    4    4    0    0  0.66505619905E+01  0.11967322491E+02  0.59846465092E+01  0.14941980340E+02  0.51100000000E-03 0.  1.
         12    1    4    4    0    0 -0.17173068052E+02  0.11815765891E+02  0.19364199282E+02  0.28451692458E+02  0.00000000000E+00 0. -1.
</event>
<event>
 8    1  0.1262344E-006  0.9118800E+02  0.7816164E-02  0.1184000E+00
        -11   -1    0    0    0    0  0.00000000000E+00  0.00000000000E+00  0.45593999997E+02  0.45594000000E+02  0.51100000000E-03 0. -1.
         11   -1    0    0    0    0 -0.00000000000E+00 -0.00000000000E+00 -0.45593999997E+02  0.45594000000E+02  0.51100000000E-03 0.  1.
         23    2    1    2    0    0  0.35527136788E-14 -0.35527136788E-14  0.00000000000E+00  0.91188000000E+02  0.91188000000E+02 0.  0.
    9900012    2    3    3    0    0  0.24352784976E+02  0.17791974355E+02 -0.21122681024E+02  0.54367080115E+02  0.39999990738E+02 0.  0.
         12    1    3    3    0    0 -0.24352784976E+02 -0.17791974355E+02  0.21122681024E+02  0.36820919885E+02  0.00000000000E+00 0. -1.
         11    1    4    4    0    0 -0.64508433524E+00 -0.75997560893E+01 -0.96036334264E+00  0.76873093100E+01  0.51100000000E-03 0. -1.
        -11    1    4    4    0    0  0.64660983820E+01  0.21808092964E+02 -0.14494434975E+02  0.26972059478E+02  0.51100000000E-03 0.  1.
        -12    1    4    4    0    0  0.18531770929E+02  0.35836374807E+01 -0.56678827065E+01  0.19707711327E+02  0.00000000000E+00 0.  1.
</event>
<event>
 8    1  0.1262344E-006  0.9118800E+02  0.7816164E-02  0.1184000E+00
        -11   -1    0    0    0    0  0.00000000000E+00  0.00000000000E+00  0.45593999997E+02  0.45594000000E+02  0.51100000000E-03 0. -1.
         11   -1    0    0    0    0 -0.00000000000E+00 -0.00000000000E+00 -0.45593999997E+02  0.45594000000E+02  0.51100000000E-03 0.  1.
         23    2    1    2    0    0  0.00000000000E+00  0.00000000000E+00  0.88817841970E-15  0.91188000000E+02  0.91188000000E+02 0.  0.
    9900012    2    3    3    0    0  0.33635514272E+02  0.14813527029E+02 -0.22345578795E+01  0.54367059595E+02  0.39999943959E+02 0.  0.
        -12    1    3    3    0    0 -0.33635514272E+02 -0.14813527029E+02  0.22345578795E+01  0.36820940405E+02  0.00000000000E+00 0.  1.
         11    1    4    4    0    0 -0.52263038072E+01  0.73881926548E+01 -0.55527906299E+01  0.10617585706E+02  0.51100000000E-03 0. -1.
        -11    1    4    4    0    0  0.36639582340E+02  0.11191147181E+01  0.99209740533E+00  0.36670092300E+02  0.51100000000E-03 0.  1.
         12    1    4    4    0    0  0.22222357392E+01  0.63062196563E+01  0.23261353451E+01  0.70793815887E+01  0.00000000000E+00 0. -1.
</event>
<event>
 8    1  0.1262344E-006  0.9118800E+02  0.7816164E-02  0.1184000E+00
        -11   -1    0    0    0    0  0.00000000000E+00  0.00000000000E+00  0.45593999997E+02  0.45594000000E+02  0.51100000000E-03 0.  1.
         11   -1    0    0    0    0 -0.00000000000E+00 -0.00000000000E+00 -0.45593999997E+02  0.45594000000E+02  0.51100000000E-03 0. -1.
         23    2    1    2    0    0  0.00000000000E+00 -0.88817841970E-15 -0.71054273576E-14  0.91188000000E+02  0.91188000000E+02 0.  0.
    9900012    2    3    3    0    0  0.40458607977E+01 -0.57202840391E+01 -0.36148140757E+02  0.54367099424E+02  0.40000034756E+02 0.  0.
        -12    1    3    3    0    0 -0.40458607977E+01  0.57202840391E+01  0.36148140757E+02  0.36820900576E+02  0.00000000000E+00 0.  1.
         11    1    4    4    0    0  0.74448131375E+01 -0.47174871728E+01 -0.34927094933E+02  0.36021963975E+02  0.51100000000E-03 0. -1.
        -11    1    4    4    0    0  0.73508041513E+01  0.21046003760E+00  0.58647128636E+00  0.73771650333E+01  0.51100000000E-03 0.  1.
        -12    1    4    4    0    0 -0.10749756491E+02 -0.12132569039E+01 -0.18075171097E+01  0.10967970415E+02  0.00000000000E+00 0.  1.
</event>
<event>
 8    1  0.1262344E-006  0.9118800E+02  0.7816164E-02  0.1184000E+00
        -11   -1    0    0    0    0  0.00000000000E+00  0.00000000000E+00  0.45593999997E+02  0.45594000000E+02  0.51100000000E-03 0. -1.
         11   -1    0    0    0    0 -0.00000000000E+00 -0.00000000000E+00 -0.45593999997E+02  0.45594000000E+02  0.51100000000E-03 0.  1.
         23    2    1    2    0    0  0.00000000000E+00  0.00000000000E+00  0.71054273576E-14  0.91188000000E+02  0.91188000000E+02 0.  0.
    9900012    2    3    3    0    0  0.12183591324E+02  0.81011878940E+01 -0.33789206828E+02  0.54367086908E+02  0.40000006224E+02 0.  0.
         12    1    3    3    0    0 -0.12183591324E+02 -0.81011878940E+01  0.33789206828E+02  0.36820913092E+02  0.00000000000E+00 0. -1.
         11    1    4    4    0    0  0.83936556927E+01 -0.10593702692E+02 -0.16685900689E+02  0.21473222271E+02  0.51100000000E-03 0. -1.
        -11    1    4    4    0    0 -0.94582851852E+00 -0.18627782457E+01 -0.10620689803E+02  0.10824212975E+02  0.51100000000E-03 0.  1.
         12    1    4    4    0    0  0.47357641501E+01  0.20557668832E+02 -0.64826163359E+01  0.22069651661E+02  0.00000000000E+00 0. -1.
</event>
<event>
 8    1  0.1262344E-006  0.9118800E+02  0.7816164E-02  0.1184000E+00
        -11   -1    0    0    0    0  0.00000000000E+00  0.00000000000E+00  0.45593999997E+02  0.45594000000E+02  0.51100000000E-03 0.  1.
         11   -1    0    0    0    0 -0.00000000000E+00 -0.00000000000E+00 -0.45593999997E+02  0.45594000000E+02  0.51100000000E-03 0. -1.
         23    2    1    2    0    0 -0.44408920985E-15 -0.35527136788E-14  0.35527136788E-14  0.91188000000E+02  0.91188000000E+02 0.  0.
    9900012    2    3    3    0    0  0.20613282521E+01  0.18110161477E+02 -0.31993004115E+02  0.54367091060E+02  0.40000015690E+02 0.  0.
        -12    1    3    3    0    0 -0.20613282521E+01 -0.18110161477E+02  0.31993004115E+02  0.36820908940E+02  0.00000000000E+00 0.  1.
         11    1    4    4    0    0 -0.62783717178E+01 -0.35636461377E+01 -0.48150840613E+01  0.86777047657E+01  0.51100000000E-03 0. -1.
        -11    1    4    4    0    0  0.29113098953E+01 -0.59034194937E+01  0.13910642761E-01  0.65822701853E+01  0.51100000000E-03 0.  1.
        -12    1    4    4    0    0  0.54283900746E+01  0.27577227108E+02 -0.27191830696E+02  0.39107116109E+02  0.00000000000E+00 0.  1.
</event>
<event>
 8    1  0.1262344E-006  0.9118800E+02  0.7816164E-02  0.1184000E+00
        -11   -1    0    0    0    0  0.00000000000E+00  0.00000000000E+00  0.45593999997E+02  0.45594000000E+02  0.51100000000E-03 0.  1.
         11   -1    0    0    0    0 -0.00000000000E+00 -0.00000000000E+00 -0.45593999997E+02  0.45594000000E+02  0.51100000000E-03 0. -1.
         23    2    1    2    0    0  0.35527136788E-14  0.00000000000E+00 -0.17763568394E-14  0.91188000000E+02  0.91188000000E+02 0.  0.
    9900012    2    3    3    0    0  0.24906340693E+02  0.24181777384E+02  0.12276102974E+02  0.54366988765E+02  0.39999782487E+02 0.  0.
        -12    1    3    3    0    0 -0.24906340693E+02 -0.24181777384E+02 -0.12276102974E+02  0.36821011235E+02  0.00000000000E+00 0.  1.
         11    1    4    4    0    0  0.26985345399E+02  0.20082854871E+02  0.28729556815E+01  0.33760684245E+02  0.51100000000E-03 0. -1.
        -11    1    4    4    0    0 -0.49980364338E+01  0.76066378666E+01 -0.10871446282E+01  0.91664165043E+01  0.51100000000E-03 0.  1.
        -12    1    4    4    0    0  0.29190317275E+01 -0.35077153537E+01  0.10490291921E+02  0.11439888016E+02  0.00000000000E+00 0.  1.
</event>
<event>
 8    1  0.1262344E-006  0.9118800E+02  0.7816164E-02  0.1184000E+00
        -11   -1    0    0    0    0  0.00000000000E+00  0.00000000000E+00  0.45593999997E+02  0.45594000000E+02  0.51100000000E-03 0.  1.
         11   -1    0    0    0    0 -0.00000000000E+00 -0.00000000000E+00 -0.45593999997E+02  0.45594000000E+02  0.51100000000E-03 0. -1.
         23    2    1    2    0    0  0.00000000000E+00  0.00000000000E+00  0.00000000000E+00  0.91188000000E+02  0.91188000000E+02 0.  0.
    9900012    2    3    3    0    0  0.16538680015E+02 -0.13831276076E+02 -0.29848763744E+02  0.54367070740E+02  0.39999969365E+02 0.  0.
        -12    1    3    3    0    0 -0.16538680015E+02  0.13831276076E+02  0.29848763744E+02  0.36820929260E+02  0.00000000000E+00 0.  1.
         11    1    4    4    0    0  0.32000792229E+01 -0.11841327785E+02 -0.13673728135E+02  0.18369224048E+02  0.51100000000E-03 0. -1.
        -11    1    4    4    0    0  0.19134164937E+02 -0.10228683309E+02 -0.13579572211E+02  0.25595839736E+02  0.51100000000E-03 0.  1.
        -12    1    4    4    0    0 -0.57955641452E+01  0.82387350183E+01 -0.25954633984E+01  0.10402006956E+02  0.00000000000E+00 0.  1.
</event>
<event>
 8    1  0.1262344E-006  0.9118800E+02  0.7816164E-02  0.1184000E+00
        -11   -1    0    0    0    0  0.00000000000E+00  0.00000000000E+00  0.45593999997E+02  0.45594000000E+02  0.51100000000E-03 0.  1.
         11   -1    0    0    0    0 -0.00000000000E+00 -0.00000000000E+00 -0.45593999997E+02  0.45594000000E+02  0.51100000000E-03 0. -1.
         23    2    1    2    0    0 -0.17763568394E-14 -0.35527136788E-14  0.00000000000E+00  0.91188000000E+02  0.91188000000E+02 0.  0.
    9900012    2    3    3    0    0  0.11300071279E+02  0.25915191507E+02 -0.23590093451E+02  0.54367064776E+02  0.39999955769E+02 0.  0.
        -12    1    3    3    0    0 -0.11300071279E+02 -0.25915191507E+02  0.23590093451E+02  0.36820935224E+02  0.00000000000E+00 0.  1.
         11    1    4    4    0    0  0.19556963679E+02  0.22775375747E+02 -0.15250933483E+02  0.33671702379E+02  0.51100000000E-03 0. -1.
        -11    1    4    4    0    0  0.48980507004E+00 -0.29347971396E+01 -0.95263394167E+01  0.99801846777E+01  0.51100000000E-03 0.  1.
        -12    1    4    4    0    0 -0.87466974698E+01  0.60746128998E+01  0.11871794482E+01  0.10715177719E+02  0.00000000000E+00 0.  1.
</event>
<event>
 8    1  0.1262344E-006  0.9118800E+02  0.7816164E-02  0.1184000E+00
        -11   -1    0    0    0    0  0.00000000000E+00  0.00000000000E+00  0.45593999997E+02  0.45594000000E+02  0.51100000000E-03 0.  1.
         11   -1    0    0    0    0 -0.00000000000E+00 -0.00000000000E+00 -0.45593999997E+02  0.45594000000E+02  0.51100000000E-03 0. -1.
         23    2    1    2    0    0  0.00000000000E+00  0.35527136788E-14 -0.35527136788E-14  0.91188000000E+02  0.91188000000E+02 0.  0.
    9900012    2    3    3    0    0 -0.22793943415E+02  0.22333926027E+02 -0.18368764673E+02  0.54367087140E+02  0.40000006754E+02 0.  0.
        -12    1    3    3    0    0  0.22793943415E+02 -0.22333926027E+02  0.18368764673E+02  0.36820912860E+02  0.00000000000E+00 0.  1.
         11    1    4    4    0    0  0.32938539561E-01 -0.21421219234E+01  0.41169106714E+01  0.46409831954E+01  0.51100000000E-03 0. -1.
        -11    1    4    4    0    0 -0.21402908009E+02  0.49183022126E+01 -0.31473074048E+01  0.22185123666E+02  0.51100000000E-03 0.  1.
         12    1    4    4    0    0 -0.14239739454E+01  0.19557745738E+02 -0.19338367940E+02  0.27540980279E+02  0.00000000000E+00 0. -1.
</event>
<event>
 8    1  0.1262344E-006  0.9118800E+02  0.7816164E-02  0.1184000E+00
        -11   -1    0    0    0    0  0.00000000000E+00  0.00000000000E+00  0.45593999997E+02  0.45594000000E+02  0.51100000000E-03 0.  1.
         11   -1    0    0    0    0 -0.00000000000E+00 -0.00000000000E+00 -0.45593999997E+02  0.45594000000E+02  0.51100000000E-03 0. -1.
         23    2    1    2    0    0  0.88817841970E-15  0.88817841970E-15  0.00000000000E+00  0.91188000000E+02  0.91188000000E+02 0.  0.
    9900012    2    3    3    0    0 -0.69807317521E+01  0.55149313535E+01 -0.35729994313E+02  0.54367114931E+02  0.40000070109E+02 0.  0.
        -12    1    3    3    0    0  0.69807317521E+01 -0.55149313535E+01  0.35729994313E+02  0.36820885069E+02  0.00000000000E+00 0.  1.
         11    1    4    4    0    0 -0.54221722310E+01 -0.53280166900E+01 -0.67512234827E+01  0.10166943116E+02  0.51100000000E-03 0. -1.
        -11    1    4    4    0    0  0.82576197900E+01  0.18718660158E+02 -0.14858124353E+02  0.25285181080E+02  0.51100000000E-03 0.  1.
        -12    1    4    4    0    0 -0.98161793111E+01 -0.78757121141E+01 -0.14120646478E+02  0.18914990736E+02  0.00000000000E+00 0.  1.
</event>
<event>
 8    1  0.1262344E-006  0.9118800E+02  0.7816164E-02  0.1184000E+00
        -11   -1    0    0    0    0  0.00000000000E+00  0.00000000000E+00  0.45593999997E+02  0.45594000000E+02  0.51100000000E-03 0. -1.
         11   -1    0    0    0    0 -0.00000000000E+00 -0.00000000000E+00 -0.45593999997E+02  0.45594000000E+02  0.51100000000E-03 0.  1.
         23    2    1    2    0    0  0.00000000000E+00  0.00000000000E+00 -0.22204460493E-14  0.91188000000E+02  0.91188000000E+02 0.  0.
    9900012    2    3    3    0    0 -0.30987281429E+02 -0.19567173092E+02  0.35628203520E+01  0.54367087980E+02  0.40000008667E+02 0.  0.
         12    1    3    3    0    0  0.30987281429E+02  0.19567173092E+02 -0.35628203520E+01  0.36820912020E+02  0.00000000000E+00 0. -1.
         11    1    4    4    0    0 -0.10075425267E+02 -0.60090794815E+01 -0.10790042515E+02  0.15938891061E+02  0.51100000000E-03 0.  1.
        -11    1    4    4    0    0 -0.99602323145E+01  0.22226450079E+00 -0.59129930911E+01  0.11585297442E+02  0.51100000000E-03 0. -1.
         12    1    4    4    0    0 -0.10951623847E+02 -0.13780358111E+02  0.20265855958E+02  0.26842899476E+02  0.00000000000E+00 0. -1.
</event>
<event>
 8    1  0.1262344E-006  0.9118800E+02  0.7816164E-02  0.1184000E+00
        -11   -1    0    0    0    0  0.00000000000E+00  0.00000000000E+00  0.45593999997E+02  0.45594000000E+02  0.51100000000E-03 0.  1.
         11   -1    0    0    0    0 -0.00000000000E+00 -0.00000000000E+00 -0.45593999997E+02  0.45594000000E+02  0.51100000000E-03 0. -1.
         23    2    1    2    0    0  0.13322676296E-14  0.00000000000E+00 -0.35527136788E-14  0.91188000000E+02  0.91188000000E+02 0.  0.
    9900012    2    3    3    0    0 -0.40496447254E+00 -0.18284150564E+02  0.31957878033E+02  0.54367080315E+02  0.39999991195E+02 0.  0.
         12    1    3    3    0    0  0.40496447254E+00  0.18284150564E+02 -0.31957878033E+02  0.36820919685E+02  0.00000000000E+00 0. -1.
         11    1    4    4    0    0  0.82104138245E+01  0.22231893462E+01  0.83803930465E+01  0.11940873248E+02  0.51100000000E-03 0. -1.
        -11    1    4    4    0    0  0.72336016128E+01 -0.11925653167E+02  0.19453694357E+02  0.23937260081E+02  0.51100000000E-03 0.  1.
         12    1    4    4    0    0 -0.15848979910E+02 -0.85816867433E+01  0.41237906288E+01  0.18488946987E+02  0.00000000000E+00 0. -1.
</event>
<event>
 8    1  0.1262344E-006  0.9118800E+02  0.7816164E-02  0.1184000E+00
        -11   -1    0    0    0    0  0.00000000000E+00  0.00000000000E+00  0.45593999997E+02  0.45594000000E+02  0.51100000000E-03 0. -1.
         11   -1    0    0    0    0 -0.00000000000E+00 -0.00000000000E+00 -0.45593999997E+02  0.45594000000E+02  0.51100000000E-03 0.  1.
         23    2    1    2    0    0  0.00000000000E+00  0.17763568394E-14 -0.17763568394E-14  0.91188000000E+02  0.91188000000E+02 0.  0.
    9900012    2    3    3    0    0  0.33113133600E+02 -0.28356248417E+01 -0.15851287393E+02  0.54367031829E+02  0.39999880661E+02 0.  0.
         12    1    3    3    0    0 -0.33113133600E+02  0.28356248417E+01  0.15851287393E+02  0.36820968171E+02  0.00000000000E+00 0. -1.
         11    1    4    4    0    0  0.11341932369E+02 -0.72054503714E+01 -0.56229935968E+01  0.14566262464E+02  0.51100000000E-03 0. -1.
        -11    1    4    4    0    0  0.11974799937E+02  0.12170263921E+02  0.70413805826E+01  0.18468681551E+02  0.51100000000E-03 0.  1.
        -12    1    4    4    0    0  0.97964012933E+01 -0.78004383915E+01 -0.17269674378E+02  0.21332087815E+02  0.00000000000E+00 0.  1.
</event>
<event>
 8    1  0.1262344E-006  0.9118800E+02  0.7816164E-02  0.1184000E+00
        -11   -1    0    0    0    0  0.00000000000E+00  0.00000000000E+00  0.45593999997E+02  0.45594000000E+02  0.51100000000E-03 0.  1.
         11   -1    0    0    0    0 -0.00000000000E+00 -0.00000000000E+00 -0.45593999997E+02  0.45594000000E+02  0.51100000000E-03 0. -1.
         23    2    1    2    0    0  0.00000000000E+00  0.00000000000E+00  0.17763568394E-14  0.91188000000E+02  0.91188000000E+02 0.  0.
    9900012    2    3    3    0    0 -0.32935507610E+02 -0.11466682209E+02 -0.11813077930E+02  0.54367064751E+02  0.39999955713E+02 0.  0.
        -12    1    3    3    0    0  0.32935507610E+02  0.11466682209E+02  0.11813077930E+02  0.36820935249E+02  0.00000000000E+00 0.  1.
         11    1    4    4    0    0 -0.55370333574E+01 -0.15555648449E+02 -0.16465308794E+02  0.23318304634E+02  0.51100000000E-03 0. -1.
        -11    1    4    4    0    0 -0.86273154376E+01 -0.17948049013E+01  0.69776806232E+01  0.11240103355E+02  0.51100000000E-03 0.  1.
         12    1    4    4    0    0 -0.18771158816E+02  0.58837711417E+01 -0.23254497596E+01  0.19808656762E+02  0.00000000000E+00 0. -1.
</event>
<event>
 8    1  0.1262344E-006  0.9118800E+02  0.7816164E-02  0.1184000E+00
        -11   -1    0    0    0    0  0.00000000000E+00  0.00000000000E+00  0.45593999997E+02  0.45594000000E+02  0.51100000000E-03 0.  1.
         11   -1    0    0    0    0 -0.00000000000E+00 -0.00000000000E+00 -0.45593999997E+02  0.45594000000E+02  0.51100000000E-03 0. -1.
         23    2    1    2    0    0  0.00000000000E+00  0.17763568394E-14  0.00000000000E+00  0.91188000000E+02  0.91188000000E+02 0.  0.
    9900012    2    3    3    0    0  0.34233323907E+02  0.89467444583E+01  0.10188959162E+02  0.54367087587E+02  0.40000007772E+02 0.  0.
         12    1    3    3    0    0 -0.34233323907E+02 -0.89467444583E+01 -0.10188959162E+02  0.36820912413E+02  0.00000000000E+00 0. -1.
         11    1    4    4    0    0  0.25659534092E+01 -0.10681266973E+01 -0.93886881103E-01  0.27809758265E+01  0.51100000000E-03 0. -1.
        -11    1    4    4    0    0  0.37620122375E+02  0.17073033960E+02  0.81338777848E+01  0.42106081083E+02  0.51100000000E-03 0.  1.
         12    1    4    4    0    0 -0.59527518767E+01 -0.70581628039E+01  0.21489682588E+01  0.94800306777E+01  0.00000000000E+00 0. -1.
</event>
<event>
 8    1  0.1262344E-006  0.9118800E+02  0.7816164E-02  0.1184000E+00
        -11   -1    0    0    0    0  0.00000000000E+00  0.00000000000E+00  0.45593999997E+02  0.45594000000E+02  0.51100000000E-03 0.  1.
         11   -1    0    0    0    0 -0.00000000000E+00 -0.00000000000E+00 -0.45593999997E+02  0.45594000000E+02  0.51100000000E-03 0. -1.
         23    2    1    2    0    0  0.00000000000E+00  0.00000000000E+00  0.00000000000E+00  0.91188000000E+02  0.91188000000E+02 0.  0.
    9900012    2    3    3    0    0 -0.19723917374E+02  0.28557816217E+02 -0.12296201470E+02  0.54367104380E+02  0.40000046055E+02 0.  0.
        -12    1    3    3    0    0  0.19723917374E+02 -0.28557816217E+02  0.12296201470E+02  0.36820895620E+02  0.00000000000E+00 0.  1.
         11    1    4    4    0    0 -0.15337924508E+02  0.22436461897E+02 -0.20641537460E+02  0.34127991733E+02  0.51100000000E-03 0. -1.
        -11    1    4    4    0    0  0.16659265804E+01 -0.48281918113E+01 -0.16168586086E+00  0.51100773103E+01  0.51100000000E-03 0.  1.
         12    1    4    4    0    0 -0.60519194463E+01  0.10949546131E+02  0.85070218512E+01  0.15129035337E+02  0.00000000000E+00 0. -1.
</event>
<event>
 8    1  0.1262344E-006  0.9118800E+02  0.7816164E-02  0.1184000E+00
        -11   -1    0    0    0    0  0.00000000000E+00  0.00000000000E+00  0.45593999997E+02  0.45594000000E+02  0.51100000000E-03 0. -1.
         11   -1    0    0    0    0 -0.00000000000E+00 -0.00000000000E+00 -0.45593999997E+02  0.45594000000E+02  0.51100000000E-03 0.  1.
         23    2    1    2    0    0  0.00000000000E+00  0.00000000000E+00  0.71054273576E-14  0.91188000000E+02  0.91188000000E+02 0.  0.
    9900012    2    3    3    0    0  0.18817073432E+02  0.12395937110E+02 -0.29121102221E+02  0.54367080621E+02  0.39999991892E+02 0.  0.
         12    1    3    3    0    0 -0.18817073432E+02 -0.12395937110E+02  0.29121102221E+02  0.36820919379E+02  0.00000000000E+00 0. -1.
         11    1    4    4    0    0 -0.26691707209E+01  0.25457388907E+01 -0.47819338778E+01  0.60392177233E+01  0.51100000000E-03 0. -1.
        -11    1    4    4    0    0  0.11309121208E+02 -0.60432180289E+01  0.47321606080E+01  0.13667847340E+02  0.51100000000E-03 0.  1.
        -12    1    4    4    0    0  0.10177122945E+02  0.15893416248E+02 -0.29071328951E+02  0.34660015557E+02  0.00000000000E+00 0.  1.
</event>
<event>
 8    1  0.1262344E-006  0.9118800E+02  0.7816164E-02  0.1184000E+00
        -11   -1    0    0    0    0  0.00000000000E+00  0.00000000000E+00  0.45593999997E+02  0.45594000000E+02  0.51100000000E-03 0.  1.
         11   -1    0    0    0    0 -0.00000000000E+00 -0.00000000000E+00 -0.45593999997E+02  0.45594000000E+02  0.51100000000E-03 0. -1.
         23    2    1    2    0    0  0.66613381478E-15  0.00000000000E+00  0.35527136788E-14  0.91188000000E+02  0.91188000000E+02 0.  0.
    9900012    2    3    3    0    0  0.17394063839E+01 -0.22836500388E+02  0.28831418512E+02  0.54367055173E+02  0.39999933877E+02 0.  0.
         12    1    3    3    0    0 -0.17394063839E+01  0.22836500388E+02 -0.28831418512E+02  0.36820944827E+02  0.00000000000E+00 0. -1.
         11    1    4    4    0    0  0.58166788231E+01 -0.82920742025E+01  0.36973525694E+01  0.10782516561E+02  0.51100000000E-03 0. -1.
        -11    1    4    4    0    0  0.86693744972E+01 -0.13078148677E+01 -0.35992697668E+01  0.94775090090E+01  0.51100000000E-03 0.  1.
         12    1    4    4    0    0 -0.12746646936E+02 -0.13236611318E+02  0.28733335710E+02  0.34107029603E+02  0.00000000000E+00 0. -1.
</event>
<event>
 8    1  0.1262344E-006  0.9118800E+02  0.7816164E-02  0.1184000E+00
        -11   -1    0    0    0    0  0.00000000000E+00  0.00000000000E+00  0.45593999997E+02  0.45594000000E+02  0.51100000000E-03 0.  1.
         11   -1    0    0    0    0 -0.00000000000E+00 -0.00000000000E+00 -0.45593999997E+02  0.45594000000E+02  0.51100000000E-03 0. -1.
         23    2    1    2    0    0  0.00000000000E+00  0.00000000000E+00  0.00000000000E+00  0.91188000000E+02  0.91188000000E+02 0.  0.
    9900012    2    3    3    0    0 -0.34767220823E+02 -0.12122570433E+02 -0.25332462799E+00  0.54367074821E+02  0.39999978669E+02 0.  0.
        -12    1    3    3    0    0  0.34767220823E+02  0.12122570433E+02  0.25332462799E+00  0.36820925179E+02  0.00000000000E+00 0.  1.
         11    1    4    4    0    0 -0.34743849111E+02 -0.37159906580E+01 -0.48916354713E+01  0.35282739909E+02  0.51100000000E-03 0. -1.
        -11    1    4    4    0    0 -0.26599987433E+01 -0.41882145155E+01  0.10369485205E+02  0.11495345050E+02  0.51100000000E-03 0.  1.
         12    1    4    4    0    0  0.26366270315E+01 -0.42183652598E+01 -0.57311743613E+01  0.75889898622E+01  0.00000000000E+00 0. -1.
</event>
<event>
 8    1  0.1262344E-006  0.9118800E+02  0.7816164E-02  0.1184000E+00
        -11   -1    0    0    0    0  0.00000000000E+00  0.00000000000E+00  0.45593999997E+02  0.45594000000E+02  0.51100000000E-03 0.  1.
         11   -1    0    0    0    0 -0.00000000000E+00 -0.00000000000E+00 -0.45593999997E+02  0.45594000000E+02  0.51100000000E-03 0. -1.
         23    2    1    2    0    0  0.00000000000E+00  0.71054273576E-14  0.88817841970E-15  0.91188000000E+02  0.91188000000E+02 0.  0.
    9900012    2    3    3    0    0  0.15096541164E+02 -0.33194528324E+02 -0.50989920734E+01  0.54367055065E+02  0.39999933631E+02 0.  0.
        -12    1    3    3    0    0 -0.15096541164E+02  0.33194528324E+02  0.50989920734E+01  0.36820944935E+02  0.00000000000E+00 0.  1.
         11    1    4    4    0    0  0.11012993283E+02 -0.18005562651E+02  0.12934380537E+02  0.24754484595E+02  0.51100000000E-03 0. -1.
        -11    1    4    4    0    0  0.12681065937E+01  0.39250054094E+01 -0.25086234581E+01  0.48277275930E+01  0.51100000000E-03 0.  1.
        -12    1    4    4    0    0  0.28154412879E+01 -0.19113971082E+02 -0.15524749153E+02  0.24784842877E+02  0.00000000000E+00 0.  1.
</event>
<event>
 8    1  0.1262344E-006  0.9118800E+02  0.7816164E-02  0.1184000E+00
        -11   -1    0    0    0    0  0.00000000000E+00  0.00000000000E+00  0.45593999997E+02  0.45594000000E+02  0.51100000000E-03 0. -1.
         11   -1    0    0    0    0 -0.00000000000E+00 -0.00000000000E+00 -0.45593999997E+02  0.45594000000E+02  0.51100000000E-03 0.  1.
         23    2    1    2    0    0  0.00000000000E+00  0.00000000000E+00  0.88817841970E-15  0.91188000000E+02  0.91188000000E+02 0.  0.
    9900012    2    3    3    0    0  0.27068538957E+02  0.23730797949E+02 -0.77410506458E+01  0.54367076089E+02  0.39999981559E+02 0.  0.
        -12    1    3    3    0    0 -0.27068538957E+02 -0.23730797949E+02  0.77410506458E+01  0.36820923911E+02  0.00000000000E+00 0.  1.
         11    1    4    4    0    0  0.96539145790E+01  0.16895298415E+02  0.25891956762E+01  0.19630412877E+02  0.51100000000E-03 0. -1.
        -11    1    4    4    0    0  0.14045280235E+01  0.10988968248E+02 -0.13941258984E+02  0.17806988079E+02  0.51100000000E-03 0.  1.
         12    1    4    4    0    0  0.16010096355E+02 -0.41534687135E+01  0.36110126618E+01  0.16929675132E+02  0.00000000000E+00 0. -1.
</event>
<event>
 8    1  0.1262344E-006  0.9118800E+02  0.7816164E-02  0.1184000E+00
        -11   -1    0    0    0    0  0.00000000000E+00  0.00000000000E+00  0.45593999997E+02  0.45594000000E+02  0.51100000000E-03 0. -1.
         11   -1    0    0    0    0 -0.00000000000E+00 -0.00000000000E+00 -0.45593999997E+02  0.45594000000E+02  0.51100000000E-03 0.  1.
         23    2    1    2    0    0  0.44408920985E-15  0.35527136788E-14  0.35527136788E-14  0.91188000000E+02  0.91188000000E+02 0.  0.
    9900012    2    3    3    0    0  0.37314808430E+01 -0.25991129736E+02 -0.25813134664E+02  0.54367072589E+02  0.39999973581E+02 0.  0.
         12    1    3    3    0    0 -0.37314808430E+01  0.25991129736E+02  0.25813134664E+02  0.36820927411E+02  0.00000000000E+00 0. -1.
         11    1    4    4    0    0  0.56194692217E+01 -0.14022933877E+01 -0.10851036931E+02  0.12299994465E+02  0.51100000000E-03 0. -1.
        -11    1    4    4    0    0 -0.10828848104E+02 -0.11795866743E+02 -0.20042278523E+02  0.25653447179E+02  0.51100000000E-03 0.  1.
         12    1    4    4    0    0  0.89408597255E+01 -0.12792969605E+02  0.50801807908E+01  0.16413630946E+02  0.00000000000E+00 0. -1.
</event>
<event>
 8    1  0.1262344E-006  0.9118800E+02  0.7816164E-02  0.1184000E+00
        -11   -1    0    0    0    0  0.00000000000E+00  0.00000000000E+00  0.45593999997E+02  0.45594000000E+02  0.51100000000E-03 0.  1.
         11   -1    0    0    0    0 -0.00000000000E+00 -0.00000000000E+00 -0.45593999997E+02  0.45594000000E+02  0.51100000000E-03 0. -1.
         23    2    1    2    0    0 -0.15543122345E-14  0.00000000000E+00  0.00000000000E+00  0.91188000000E+02  0.91188000000E+02 0.  0.
    9900012    2    3    3    0    0 -0.15716682752E+01 -0.34276397314E+02 -0.13358203267E+02  0.54367039278E+02  0.39999897642E+02 0.  0.
        -12    1    3    3    0    0  0.15716682752E+01  0.34276397314E+02  0.13358203267E+02  0.36820960722E+02  0.00000000000E+00 0.  1.
         11    1    4    4    0    0 -0.18413830764E+02 -0.21181411773E+02 -0.87861360613E+01  0.29409480704E+02  0.51100000000E-03 0. -1.
        -11    1    4    4    0    0  0.16744629913E+02 -0.13333799346E+02 -0.10549070379E+01  0.21430951100E+02  0.51100000000E-03 0.  1.
         12    1    4    4    0    0  0.97532575384E-01  0.23881380480E+00 -0.35171601675E+01  0.35266074746E+01  0.00000000000E+00 0. -1.
</event>
<event>
 8    1  0.1262344E-006  0.9118800E+02  0.7816164E-02  0.1184000E+00
        -11   -1    0    0    0    0  0.00000000000E+00  0.00000000000E+00  0.45593999997E+02  0.45594000000E+02  0.51100000000E-03 0. -1.
         11   -1    0    0    0    0 -0.00000000000E+00 -0.00000000000E+00 -0.45593999997E+02  0.45594000000E+02  0.51100000000E-03 0.  1.
         23    2    1    2    0    0  0.00000000000E+00  0.00000000000E+00  0.00000000000E+00  0.91188000000E+02  0.91188000000E+02 0.  0.
    9900012    2    3    3    0    0 -0.20657989739E+02 -0.14352727922E+02 -0.26888881506E+02  0.54367281818E+02  0.40000450557E+02 0.  0.
         12    1    3    3    0    0  0.20657989739E+02  0.14352727922E+02  0.26888881506E+02  0.36820718182E+02  0.00000000000E+00 0. -1.
         11    1    4    4    0    0 -0.30805535279E+01 -0.11562283452E+02 -0.13528557940E+02  0.18060954816E+02  0.51100000000E-03 0. -1.
        -11    1    4    4    0    0 -0.21689515409E+02 -0.11060499614E+02 -0.11309655163E+02  0.26845447111E+02  0.51100000000E-03 0.  1.
        -12    1    4    4    0    0  0.41120791979E+01  0.82700551443E+01 -0.20506684021E+01  0.94608798911E+01  0.00000000000E+00 0.  1.
</event>
<event>
 8    1  0.1262344E-006  0.9118800E+02  0.7816164E-02  0.1184000E+00
        -11   -1    0    0    0    0  0.00000000000E+00  0.00000000000E+00  0.45593999997E+02  0.45594000000E+02  0.51100000000E-03 0. -1.
         11   -1    0    0    0    0 -0.00000000000E+00 -0.00000000000E+00 -0.45593999997E+02  0.45594000000E+02  0.51100000000E-03 0.  1.
         23    2    1    2    0    0  0.00000000000E+00  0.00000000000E+00  0.11102230246E-15  0.91188000000E+02  0.91188000000E+02 0.  0.
    9900012    2    3    3    0    0 -0.33618370886E+02 -0.14988064400E+02  0.97105533188E+00  0.54367083608E+02  0.39999998700E+02 0.  0.
        -12    1    3    3    0    0  0.33618370886E+02  0.14988064400E+02 -0.97105533188E+00  0.36820916392E+02  0.00000000000E+00 0.  1.
         11    1    4    4    0    0 -0.57659691583E+01  0.59541983702E+01  0.14300199445E+02  0.16528598942E+02  0.51100000000E-03 0. -1.
        -11    1    4    4    0    0 -0.14382343943E+02 -0.14651065914E+02 -0.82854163138E+01  0.22139414479E+02  0.51100000000E-03 0.  1.
         12    1    4    4    0    0 -0.13470057785E+02 -0.62911968566E+01 -0.50437277990E+01  0.15699070187E+02  0.00000000000E+00 0. -1.
</event>
<event>
 8    1  0.1262344E-006  0.9118800E+02  0.7816164E-02  0.1184000E+00
        -11   -1    0    0    0    0  0.00000000000E+00  0.00000000000E+00  0.45593999997E+02  0.45594000000E+02  0.51100000000E-03 0.  1.
         11   -1    0    0    0    0 -0.00000000000E+00 -0.00000000000E+00 -0.45593999997E+02  0.45594000000E+02  0.51100000000E-03 0. -1.
         23    2    1    2    0    0 -0.88817841970E-15 -0.35527136788E-14  0.00000000000E+00  0.91188000000E+02  0.91188000000E+02 0.  0.
    9900012    2    3    3    0    0  0.79580109820E+01  0.16267641211E+02  0.32059550597E+02  0.54367070166E+02  0.39999968057E+02 0.  0.
         12    1    3    3    0    0 -0.79580109820E+01 -0.16267641211E+02 -0.32059550597E+02  0.36820929834E+02  0.00000000000E+00 0. -1.
         11    1    4    4    0    0  0.10180893231E+02  0.19846590734E+02  0.17954761802E+02  0.28634091960E+02  0.51100000000E-03 0. -1.
        -11    1    4    4    0    0  0.82671933892E+01  0.20752056181E+01  0.99752252337E+01  0.13120902546E+02  0.51100000000E-03 0.  1.
         12    1    4    4    0    0 -0.10490075638E+02 -0.56541551409E+01  0.41295635615E+01  0.12612075660E+02  0.00000000000E+00 0. -1.
</event>
<event>
 8    1  0.1262344E-006  0.9118800E+02  0.7816164E-02  0.1184000E+00
        -11   -1    0    0    0    0  0.00000000000E+00  0.00000000000E+00  0.45593999997E+02  0.45594000000E+02  0.51100000000E-03 0.  1.
         11   -1    0    0    0    0 -0.00000000000E+00 -0.00000000000E+00 -0.45593999997E+02  0.45594000000E+02  0.51100000000E-03 0. -1.
         23    2    1    2    0    0  0.00000000000E+00 -0.44408920985E-15  0.17763568394E-14  0.91188000000E+02  0.91188000000E+02 0.  0.
    9900012    2    3    3    0    0 -0.34187084556E+02 -0.22282702470E+01  0.13492880857E+02  0.54367085120E+02  0.40000002149E+02 0.  0.
         12    1    3    3    0    0  0.34187084556E+02  0.22282702470E+01 -0.13492880857E+02  0.36820914880E+02  0.00000000000E+00 0. -1.
         11    1    4    4    0    0  0.12293038653E+01 -0.23666568187E+01 -0.88928916492E+01  0.92841679561E+01  0.51100000000E-03 0. -1.
        -11    1    4    4    0    0  0.48128614077E+00 -0.87660235564E+00 -0.16075260877E+01  0.18932005766E+01  0.51100000000E-03 0.  1.
        -12    1    4    4    0    0 -0.35897674563E+02  0.10149889273E+01  0.23993298594E+02  0.43189716588E+02  0.00000000000E+00 0.  1.
</event>
<event>
 8    1  0.1262344E-006  0.9118800E+02  0.7816164E-02  0.1184000E+00
        -11   -1    0    0    0    0  0.00000000000E+00  0.00000000000E+00  0.45593999997E+02  0.45594000000E+02  0.51100000000E-03 0. -1.
         11   -1    0    0    0    0 -0.00000000000E+00 -0.00000000000E+00 -0.45593999997E+02  0.45594000000E+02  0.51100000000E-03 0.  1.
         23    2    1    2    0    0  0.17763568394E-14  0.00000000000E+00 -0.17763568394E-14  0.91188000000E+02  0.91188000000E+02 0.  0.
    9900012    2    3    3    0    0 -0.72451012673E+01 -0.32926541518E+02 -0.14803131588E+02  0.54367063923E+02  0.39999953826E+02 0.  0.
         12    1    3    3    0    0  0.72451012673E+01  0.32926541518E+02  0.14803131588E+02  0.36820936077E+02  0.00000000000E+00 0. -1.
         11    1    4    4    0    0 -0.10748353703E+02 -0.15607381466E+02  0.81595329475E+00  0.18967953068E+02  0.51100000000E-03 0. -1.
        -11    1    4    4    0    0  0.34037512289E+01 -0.24666869578E+01  0.71027531662E+01  0.82534338174E+01  0.51100000000E-03 0.  1.
        -12    1    4    4    0    0  0.99501206826E-01 -0.14852473095E+02 -0.22721838049E+02  0.27145677038E+02  0.00000000000E+00 0.  1.
</event>
<event>
 8    1  0.1262344E-006  0.9118800E+02  0.7816164E-02  0.1184000E+00
        -11   -1    0    0    0    0  0.00000000000E+00  0.00000000000E+00  0.45593999997E+02  0.45594000000E+02  0.51100000000E-03 0.  1.
         11   -1    0    0    0    0 -0.00000000000E+00 -0.00000000000E+00 -0.45593999997E+02  0.45594000000E+02  0.51100000000E-03 0. -1.
         23    2    1    2    0    0 -0.16653345369E-14 -0.17763568394E-14  0.71054273576E-14  0.91188000000E+02  0.91188000000E+02 0.  0.
    9900012    2    3    3    0    0  0.72807662998E+00 -0.49320775794E+01  0.36481814001E+02  0.54367105963E+02  0.40000049665E+02 0.  0.
         12    1    3    3    0    0 -0.72807662998E+00  0.49320775794E+01 -0.36481814001E+02  0.36820894037E+02  0.00000000000E+00 0. -1.
         11    1    4    4    0    0  0.59963644102E+01  0.11551284906E+00  0.59777650852E+01  0.84677863125E+01  0.51100000000E-03 0. -1.
        -11    1    4    4    0    0  0.11113908085E+02 -0.12103719235E+02  0.15538549208E+02  0.22615602666E+02  0.51100000000E-03 0.  1.
         12    1    4    4    0    0 -0.16382195865E+02  0.70561288062E+01  0.14965499709E+02  0.23283716984E+02  0.00000000000E+00 0. -1.
</event>
<event>
 8    1  0.1262344E-006  0.9118800E+02  0.7816164E-02  0.1184000E+00
        -11   -1    0    0    0    0  0.00000000000E+00  0.00000000000E+00  0.45593999997E+02  0.45594000000E+02  0.51100000000E-03 0. -1.
         11   -1    0    0    0    0 -0.00000000000E+00 -0.00000000000E+00 -0.45593999997E+02  0.45594000000E+02  0.51100000000E-03 0.  1.
         23    2    1    2    0    0  0.00000000000E+00 -0.35527136788E-14 -0.44408920985E-15  0.91188000000E+02  0.91188000000E+02 0.  0.
    9900012    2    3    3    0    0 -0.20767698343E+02  0.30340468181E+02  0.19843637535E+01  0.54367095565E+02  0.40000025959E+02 0.  0.
        -12    1    3    3    0    0  0.20767698343E+02 -0.30340468181E+02 -0.19843637535E+01  0.36820904435E+02  0.00000000000E+00 0.  1.
         11    1    4    4    0    0 -0.20724190404E+02  0.33939412823E+02 -0.30755576270E+00  0.39767705509E+02  0.51100000000E-03 0. -1.
        -11    1    4    4    0    0  0.25379620473E+01  0.23041214569E+01  0.61852215930E+01  0.70715764478E+01  0.51100000000E-03 0.  1.
        -12    1    4    4    0    0 -0.25814699860E+01 -0.59030660982E+01 -0.38933020768E+01  0.75278136075E+01  0.00000000000E+00 0.  1.
</event>
<event>
 8    1  0.1262344E-006  0.9118800E+02  0.7816164E-02  0.1184000E+00
        -11   -1    0    0    0    0  0.00000000000E+00  0.00000000000E+00  0.45593999997E+02  0.45594000000E+02  0.51100000000E-03 0. -1.
         11   -1    0    0    0    0 -0.00000000000E+00 -0.00000000000E+00 -0.45593999997E+02  0.45594000000E+02  0.51100000000E-03 0.  1.
         23    2    1    2    0    0  0.00000000000E+00 -0.35527136788E-14  0.00000000000E+00  0.91188000000E+02  0.91188000000E+02 0.  0.
    9900012    2    3    3    0    0  0.13199927928E+02  0.29364797850E+02  0.17867574490E+02  0.54367086537E+02  0.40000005378E+02 0.  0.
        -12    1    3    3    0    0 -0.13199927928E+02 -0.29364797850E+02 -0.17867574490E+02  0.36820913463E+02  0.00000000000E+00 0.  1.
         11    1    4    4    0    0  0.24771726708E+01  0.13043499496E+02  0.40993940450E+01  0.13895117680E+02  0.51100000000E-03 0. -1.
        -11    1    4    4    0    0  0.17516319410E+02  0.66092037459E+01 -0.39703814620E+01  0.19138102023E+02  0.51100000000E-03 0.  1.
        -12    1    4    4    0    0 -0.67935641523E+01  0.97120946081E+01  0.17738561907E+02  0.21333866835E+02  0.00000000000E+00 0.  1.
</event>
<event>
 8    1  0.1262344E-006  0.9118800E+02  0.7816164E-02  0.1184000E+00
        -11   -1    0    0    0    0  0.00000000000E+00  0.00000000000E+00  0.45593999997E+02  0.45594000000E+02  0.51100000000E-03 0.  1.
         11   -1    0    0    0    0 -0.00000000000E+00 -0.00000000000E+00 -0.45593999997E+02  0.45594000000E+02  0.51100000000E-03 0. -1.
         23    2    1    2    0    0  0.00000000000E+00  0.00000000000E+00  0.00000000000E+00  0.91188000000E+02  0.91188000000E+02 0.  0.
    9900012    2    3    3    0    0 -0.23121764720E+01 -0.98831720342E+01  0.35394302467E+02  0.54367083436E+02  0.39999998310E+02 0.  0.
         12    1    3    3    0    0  0.23121764720E+01  0.98831720342E+01 -0.35394302467E+02  0.36820916564E+02  0.00000000000E+00 0. -1.
         11    1    4    4    0    0  0.63341441519E+01 -0.47671897465E+00  0.36429347242E+01  0.73225416887E+01  0.51100000000E-03 0. -1.
        -11    1    4    4    0    0 -0.31442975966E+01 -0.20246902015E+02  0.27221948763E+02  0.34071368380E+02  0.51100000000E-03 0.  1.
        -12    1    4    4    0    0 -0.55020230273E+01  0.10840448955E+02  0.45294189798E+01  0.12973173368E+02  0.00000000000E+00 0.  1.
</event>
<event>
 8    1  0.1262344E-006  0.9118800E+02  0.7816164E-02  0.1184000E+00
        -11   -1    0    0    0    0  0.00000000000E+00  0.00000000000E+00  0.45593999997E+02  0.45594000000E+02  0.51100000000E-03 0. -1.
         11   -1    0    0    0    0 -0.00000000000E+00 -0.00000000000E+00 -0.45593999997E+02  0.45594000000E+02  0.51100000000E-03 0.  1.
         23    2    1    2    0    0  0.00000000000E+00  0.35527136788E-14  0.00000000000E+00  0.91188000000E+02  0.91188000000E+02 0.  0.
    9900012    2    3    3    0    0 -0.19550666553E+02  0.24259998599E+02  0.19621512989E+02  0.54367083843E+02  0.39999999236E+02 0.  0.
        -12    1    3    3    0    0  0.19550666553E+02 -0.24259998599E+02 -0.19621512989E+02  0.36820916157E+02  0.00000000000E+00 0.  1.
         11    1    4    4    0    0 -0.99708283396E+01  0.82977567198E+01  0.13984835313E+02  0.19074742550E+02  0.51100000000E-03 0. -1.
        -11    1    4    4    0    0 -0.36016604472E+01 -0.81336020103E+01  0.55138828642E+01  0.10465674567E+02  0.51100000000E-03 0.  1.
         12    1    4    4    0    0 -0.59781777657E+01  0.24095843890E+02  0.12279481254E+00  0.24826666726E+02  0.00000000000E+00 0. -1.
</event>
<event>
 8    1  0.1262344E-006  0.9118800E+02  0.7816164E-02  0.1184000E+00
        -11   -1    0    0    0    0  0.00000000000E+00  0.00000000000E+00  0.45593999997E+02  0.45594000000E+02  0.51100000000E-03 0.  1.
         11   -1    0    0    0    0 -0.00000000000E+00 -0.00000000000E+00 -0.45593999997E+02  0.45594000000E+02  0.51100000000E-03 0. -1.
         23    2    1    2    0    0  0.00000000000E+00  0.17763568394E-14  0.00000000000E+00  0.91188000000E+02  0.91188000000E+02 0.  0.
    9900012    2    3    3    0    0 -0.44930667040E+01  0.48312261365E+01  0.36225010995E+02  0.54367084531E+02  0.40000000805E+02 0.  0.
         12    1    3    3    0    0  0.44930667040E+01 -0.48312261365E+01 -0.36225010995E+02  0.36820915469E+02  0.00000000000E+00 0. -1.
         11    1    4    4    0    0  0.23436135299E+01 -0.95954290033E+01  0.58978543396E+01  0.11504323892E+02  0.51100000000E-03 0. -1.
        -11    1    4    4    0    0 -0.68903569615E+01 -0.38482534087E+01  0.20813868876E+02  0.22259901420E+02  0.51100000000E-03 0.  1.
         12    1    4    4    0    0  0.53676727510E-01  0.18274908548E+02  0.95132877791E+01  0.20602859219E+02  0.00000000000E+00 0. -1.
</event>
<event>
 8    1  0.1262344E-006  0.9118800E+02  0.7816164E-02  0.1184000E+00
        -11   -1    0    0    0    0  0.00000000000E+00  0.00000000000E+00  0.45593999997E+02  0.45594000000E+02  0.51100000000E-03 0.  1.
         11   -1    0    0    0    0 -0.00000000000E+00 -0.00000000000E+00 -0.45593999997E+02  0.45594000000E+02  0.51100000000E-03 0. -1.
         23    2    1    2    0    0  0.35527136788E-14  0.44408920985E-15  0.00000000000E+00  0.91188000000E+02  0.91188000000E+02 0.  0.
    9900012    2    3    3    0    0  0.30490733778E+02  0.12832880109E+01 -0.20602145716E+02  0.54367080911E+02  0.39999992554E+02 0.  0.
        -12    1    3    3    0    0 -0.30490733778E+02 -0.12832880109E+01  0.20602145716E+02  0.36820919089E+02  0.00000000000E+00 0.  1.
         11    1    4    4    0    0  0.14277656026E+02 -0.82466077854E+01 -0.17133567488E+02  0.23778501565E+02  0.51100000000E-03 0. -1.
        -11    1    4    4    0    0 -0.41125601384E+01 -0.41867086608E+01 -0.79518682893E+00  0.59223308466E+01  0.51100000000E-03 0.  1.
         12    1    4    4    0    0  0.20325637890E+02  0.13716604457E+02 -0.26733913998E+01  0.24666248500E+02  0.00000000000E+00 0. -1.
</event>
<event>
 8    1  0.1262344E-006  0.9118800E+02  0.7816164E-02  0.1184000E+00
        -11   -1    0    0    0    0  0.00000000000E+00  0.00000000000E+00  0.45593999997E+02  0.45594000000E+02  0.51100000000E-03 0.  1.
         11   -1    0    0    0    0 -0.00000000000E+00 -0.00000000000E+00 -0.45593999997E+02  0.45594000000E+02  0.51100000000E-03 0. -1.
         23    2    1    2    0    0 -0.17763568394E-14 -0.35527136788E-14  0.00000000000E+00  0.91188000000E+02  0.91188000000E+02 0.  0.
    9900012    2    3    3    0    0  0.14242697047E+02  0.31959852650E+02 -0.11467088291E+02  0.54367072330E+02  0.39999972992E+02 0.  0.
        -12    1    3    3    0    0 -0.14242697047E+02 -0.31959852650E+02  0.11467088291E+02  0.36820927670E+02  0.00000000000E+00 0.  1.
         11    1    4    4    0    0  0.62869837531E+01  0.13049236886E+02  0.12821930325E+02  0.19344524950E+02  0.51100000000E-03 0. -1.
        -11    1    4    4    0    0  0.17612045661E+00 -0.15944038172E+01 -0.67575392216E+01  0.69453206218E+01  0.51100000000E-03 0.  1.
         12    1    4    4    0    0  0.77795928376E+01  0.20505019581E+02 -0.17531479394E+02  0.28077226759E+02  0.00000000000E+00 0. -1.
</event>
<event>
 8    1  0.1262344E-006  0.9118800E+02  0.7816164E-02  0.1184000E+00
        -11   -1    0    0    0    0  0.00000000000E+00  0.00000000000E+00  0.45593999997E+02  0.45594000000E+02  0.51100000000E-03 0.  1.
         11   -1    0    0    0    0 -0.00000000000E+00 -0.00000000000E+00 -0.45593999997E+02  0.45594000000E+02  0.51100000000E-03 0. -1.
         23    2    1    2    0    0  0.35527136788E-14 -0.35527136788E-14  0.88817841970E-15  0.91188000000E+02  0.91188000000E+02 0.  0.
    9900012    2    3    3    0    0  0.31272907939E+02 -0.18442506905E+02 -0.61367776873E+01  0.54367070188E+02  0.39999968107E+02 0.  0.
        -12    1    3    3    0    0 -0.31272907939E+02  0.18442506905E+02  0.61367776873E+01  0.36820929812E+02  0.00000000000E+00 0.  1.
         11    1    4    4    0    0  0.25732559925E+02 -0.90303239074E+01 -0.64019052186E+01  0.28012421903E+02  0.51100000000E-03 0. -1.
        -11    1    4    4    0    0  0.32555605613E+01  0.16582127466E+01  0.10492787580E+02  0.11110667646E+02  0.51100000000E-03 0.  1.
        -12    1    4    4    0    0  0.22847874524E+01 -0.11070395744E+02 -0.10227660049E+02  0.15243980638E+02  0.00000000000E+00 0.  1.
</event>
<event>
 8    1  0.1262344E-006  0.9118800E+02  0.7816164E-02  0.1184000E+00
        -11   -1    0    0    0    0  0.00000000000E+00  0.00000000000E+00  0.45593999997E+02  0.45594000000E+02  0.51100000000E-03 0. -1.
         11   -1    0    0    0    0 -0.00000000000E+00 -0.00000000000E+00 -0.45593999997E+02  0.45594000000E+02  0.51100000000E-03 0.  1.
         23    2    1    2    0    0  0.00000000000E+00 -0.17763568394E-14  0.35527136788E-14  0.91188000000E+02  0.91188000000E+02 0.  0.
    9900012    2    3    3    0    0  0.27135632549E+02 -0.15324100932E+02 -0.19611458228E+02  0.54367083159E+02  0.39999997677E+02 0.  0.
         12    1    3    3    0    0 -0.27135632549E+02  0.15324100932E+02  0.19611458228E+02  0.36820916841E+02  0.00000000000E+00 0. -1.
         11    1    4    4    0    0  0.10810936182E+02 -0.12754458210E+02  0.48556093728E+01  0.17410614234E+02  0.51100000000E-03 0. -1.
        -11    1    4    4    0    0  0.10423375358E+02 -0.70118334032E+00 -0.27960677704E+02  0.29848583046E+02  0.51100000000E-03 0.  1.
        -12    1    4    4    0    0  0.59013210089E+01 -0.18684593821E+01  0.34936101029E+01  0.71078858786E+01  0.00000000000E+00 0.  1.
</event>
<event>
 8    1  0.1262344E-006  0.9118800E+02  0.7816164E-02  0.1184000E+00
        -11   -1    0    0    0    0  0.00000000000E+00  0.00000000000E+00  0.45593999997E+02  0.45594000000E+02  0.51100000000E-03 0.  1.
         11   -1    0    0    0    0 -0.00000000000E+00 -0.00000000000E+00 -0.45593999997E+02  0.45594000000E+02  0.51100000000E-03 0. -1.
         23    2    1    2    0    0  0.00000000000E+00  0.66613381478E-15 -0.35527136788E-14  0.91188000000E+02  0.91188000000E+02 0.  0.
    9900012    2    3    3    0    0 -0.23837717638E+02 -0.95240918954E+00  0.28047026477E+02  0.54367088012E+02  0.40000008740E+02 0.  0.
         12    1    3    3    0    0  0.23837717638E+02  0.95240918954E+00 -0.28047026477E+02  0.36820911988E+02  0.00000000000E+00 0. -1.
         11    1    4    4    0    0 -0.34649661124E+01 -0.27682054137E+01 -0.21499387950E+01  0.49286091807E+01  0.51100000000E-03 0. -1.
        -11    1    4    4    0    0 -0.15968739735E+02  0.65565029029E+01 -0.12739057320E+01  0.17309281184E+02  0.51100000000E-03 0.  1.
        -12    1    4    4    0    0 -0.44040117906E+01 -0.47407066787E+01  0.31470871004E+02  0.32129197647E+02  0.00000000000E+00 0.  1.
</event>
<event>
 8    1  0.1262344E-006  0.9118800E+02  0.7816164E-02  0.1184000E+00
        -11   -1    0    0    0    0  0.00000000000E+00  0.00000000000E+00  0.45593999997E+02  0.45594000000E+02  0.51100000000E-03 0.  1.
         11   -1    0    0    0    0 -0.00000000000E+00 -0.00000000000E+00 -0.45593999997E+02  0.45594000000E+02  0.51100000000E-03 0. -1.
         23    2    1    2    0    0  0.00000000000E+00  0.00000000000E+00  0.71054273576E-14  0.91188000000E+02  0.91188000000E+02 0.  0.
    9900012    2    3    3    0    0 -0.10144933064E+02 -0.19637544482E+02  0.29448718057E+02  0.54367084540E+02  0.40000000826E+02 0.  0.
         12    1    3    3    0    0  0.10144933064E+02  0.19637544482E+02 -0.29448718057E+02  0.36820915460E+02  0.00000000000E+00 0. -1.
         11    1    4    4    0    0  0.91781402792E+01  0.15448993330E+01 -0.11347661074E+01  0.93761755163E+01  0.51100000000E-03 0. -1.
        -11    1    4    4    0    0 -0.76421637606E+01 -0.60613042063E+01  0.21957751667E+02  0.24026754549E+02  0.51100000000E-03 0.  1.
         12    1    4    4    0    0 -0.11680909583E+02 -0.15121139608E+02  0.86257324968E+01  0.20964154475E+02  0.00000000000E+00 0. -1.
</event>
<event>
 8    1  0.1262344E-006  0.9118800E+02  0.7816164E-02  0.1184000E+00
        -11   -1    0    0    0    0  0.00000000000E+00  0.00000000000E+00  0.45593999997E+02  0.45594000000E+02  0.51100000000E-03 0. -1.
         11   -1    0    0    0    0 -0.00000000000E+00 -0.00000000000E+00 -0.45593999997E+02  0.45594000000E+02  0.51100000000E-03 0.  1.
         23    2    1    2    0    0 -0.44408920985E-15  0.00000000000E+00  0.00000000000E+00  0.91188000000E+02  0.91188000000E+02 0.  0.
    9900012    2    3    3    0    0  0.36942426990E+01  0.16598282763E+02 -0.32659269908E+02  0.54367104699E+02  0.40000046783E+02 0.  0.
         12    1    3    3    0    0 -0.36942426990E+01 -0.16598282763E+02  0.32659269908E+02  0.36820895301E+02  0.00000000000E+00 0. -1.
         11    1    4    4    0    0 -0.49823823802E+01 -0.87647243362E+01 -0.17394718999E+02  0.20105242505E+02  0.51100000000E-03 0. -1.
        -11    1    4    4    0    0  0.69425171191E+01  0.24545931457E+02 -0.17783910364E+02  0.31096121352E+02  0.51100000000E-03 0.  1.
         12    1    4    4    0    0  0.17341079601E+01  0.81707564216E+00  0.25193594544E+01  0.31657408426E+01  0.00000000000E+00 0. -1.
</event>
<event>
 8    1  0.1262344E-006  0.9118800E+02  0.7816164E-02  0.1184000E+00
        -11   -1    0    0    0    0  0.00000000000E+00  0.00000000000E+00  0.45593999997E+02  0.45594000000E+02  0.51100000000E-03 0. -1.
         11   -1    0    0    0    0 -0.00000000000E+00 -0.00000000000E+00 -0.45593999997E+02  0.45594000000E+02  0.51100000000E-03 0.  1.
         23    2    1    2    0    0  0.00000000000E+00  0.00000000000E+00  0.35527136788E-14  0.91188000000E+02  0.91188000000E+02 0.  0.
    9900012    2    3    3    0    0 -0.76967583963E+01  0.21135461831E+02 -0.29151872703E+02  0.54367088567E+02  0.40000010007E+02 0.  0.
         12    1    3    3    0    0  0.76967583963E+01 -0.21135461831E+02  0.29151872703E+02  0.36820911433E+02  0.00000000000E+00 0. -1.
         11    1    4    4    0    0  0.17855410160E+01 -0.48434459177E+00 -0.82291548893E+00  0.20248300093E+01  0.51100000000E-03 0. -1.
        -11    1    4    4    0    0  0.48796451732E+01 -0.13032831874E+01 -0.24508165062E+02  0.25023182033E+02  0.51100000000E-03 0.  1.
        -12    1    4    4    0    0 -0.14361944585E+02  0.22923089610E+02 -0.38207921527E+01  0.27319076526E+02  0.00000000000E+00 0.  1.
</event>
<event>
 8    1  0.1262344E-006  0.9118800E+02  0.7816164E-02  0.1184000E+00
        -11   -1    0    0    0    0  0.00000000000E+00  0.00000000000E+00  0.45593999997E+02  0.45594000000E+02  0.51100000000E-03 0.  1.
         11   -1    0    0    0    0 -0.00000000000E+00 -0.00000000000E+00 -0.45593999997E+02  0.45594000000E+02  0.51100000000E-03 0. -1.
         23    2    1    2    0    0  0.00000000000E+00 -0.35527136788E-14 -0.35527136788E-14  0.91188000000E+02  0.91188000000E+02 0.  0.
    9900012    2    3    3    0    0  0.13595557817E+02  0.27726653667E+02 -0.20054242944E+02  0.54367093222E+02  0.40000020618E+02 0.  0.
        -12    1    3    3    0    0 -0.13595557817E+02 -0.27726653667E+02  0.20054242944E+02  0.36820906778E+02  0.00000000000E+00 0.  1.
         11    1    4    4    0    0  0.11541258775E+02  0.31429981934E+02 -0.16647914417E+02  0.37392478831E+02  0.51100000000E-03 0. -1.
        -11    1    4    4    0    0 -0.18080596826E+01 -0.94415691285E+01 -0.28909291747E+01  0.10038415173E+02  0.51100000000E-03 0.  1.
        -12    1    4    4    0    0  0.38623587248E+01  0.57382408613E+01 -0.51539935238E+00  0.69361992181E+01  0.00000000000E+00 0.  1.
</event>
<event>
 8    1  0.1262344E-006  0.9118800E+02  0.7816164E-02  0.1184000E+00
        -11   -1    0    0    0    0  0.00000000000E+00  0.00000000000E+00  0.45593999997E+02  0.45594000000E+02  0.51100000000E-03 0.  1.
         11   -1    0    0    0    0 -0.00000000000E+00 -0.00000000000E+00 -0.45593999997E+02  0.45594000000E+02  0.51100000000E-03 0. -1.
         23    2    1    2    0    0  0.00000000000E+00  0.00000000000E+00 -0.71054273576E-14  0.91188000000E+02  0.91188000000E+02 0.  0.
    9900012    2    3    3    0    0  0.10012351352E+02 -0.14574937751E+02 -0.32297102727E+02  0.54367097858E+02  0.40000031186E+02 0.  0.
        -12    1    3    3    0    0 -0.10012351352E+02  0.14574937751E+02  0.32297102727E+02  0.36820902142E+02  0.00000000000E+00 0.  1.
         11    1    4    4    0    0  0.22606619559E+01  0.34765771154E+01 -0.73976573197E+01  0.84807142977E+01  0.51100000000E-03 0. -1.
        -11    1    4    4    0    0  0.67661858848E+01  0.62401769636E+01  0.22165217601E+01  0.94675260200E+01  0.51100000000E-03 0.  1.
        -12    1    4    4    0    0  0.98550351115E+00 -0.24291691830E+02 -0.27115967167E+02  0.36418857540E+02  0.00000000000E+00 0.  1.
</event>
<event>
 8    1  0.1262344E-006  0.9118800E+02  0.7816164E-02  0.1184000E+00
        -11   -1    0    0    0    0  0.00000000000E+00  0.00000000000E+00  0.45593999997E+02  0.45594000000E+02  0.51100000000E-03 0. -1.
         11   -1    0    0    0    0 -0.00000000000E+00 -0.00000000000E+00 -0.45593999997E+02  0.45594000000E+02  0.51100000000E-03 0.  1.
         23    2    1    2    0    0  0.00000000000E+00  0.88817841970E-15  0.00000000000E+00  0.91188000000E+02  0.91188000000E+02 0.  0.
    9900012    2    3    3    0    0 -0.22225966943E+02  0.52367044833E+01  0.28885347561E+02  0.54367082248E+02  0.39999995600E+02 0.  0.
        -12    1    3    3    0    0  0.22225966943E+02 -0.52367044833E+01 -0.28885347561E+02  0.36820917752E+02  0.00000000000E+00 0.  1.
         11    1    4    4    0    0 -0.12217892102E+02 -0.77757253814E+00  0.80467726654E+01  0.14650326176E+02  0.51100000000E-03 0. -1.
        -11    1    4    4    0    0 -0.18036052430E+02  0.69999944322E+01  0.24178447192E+02  0.30966052674E+02  0.51100000000E-03 0.  1.
        -12    1    4    4    0    0  0.80279775897E+01 -0.98571741075E+00 -0.33398722968E+01  0.87507033976E+01  0.00000000000E+00 0.  1.
</event>
<event>
 8    1  0.1262344E-006  0.9118800E+02  0.7816164E-02  0.1184000E+00
        -11   -1    0    0    0    0  0.00000000000E+00  0.00000000000E+00  0.45593999997E+02  0.45594000000E+02  0.51100000000E-03 0. -1.
         11   -1    0    0    0    0 -0.00000000000E+00 -0.00000000000E+00 -0.45593999997E+02  0.45594000000E+02  0.51100000000E-03 0.  1.
         23    2    1    2    0    0  0.35527136788E-14  0.00000000000E+00  0.00000000000E+00  0.91188000000E+02  0.91188000000E+02 0.  0.
    9900012    2    3    3    0    0 -0.21610311527E+02 -0.17722323352E+02  0.23972726588E+02  0.54367110150E+02  0.40000059209E+02 0.  0.
        -12    1    3    3    0    0  0.21610311527E+02  0.17722323352E+02 -0.23972726588E+02  0.36820889850E+02  0.00000000000E+00 0.  1.
         11    1    4    4    0    0 -0.26481667721E+01 -0.16519292598E+02  0.18007023366E+02  0.24579518017E+02  0.51100000000E-03 0. -1.
        -11    1    4    4    0    0 -0.14030830403E+02 -0.14387913684E+01 -0.71213832812E+01  0.15800266533E+02  0.51100000000E-03 0.  1.
         12    1    4    4    0    0 -0.49313143518E+01  0.23576061459E+00  0.13087086503E+02  0.13987325600E+02  0.00000000000E+00 0. -1.
</event>
<event>
 8    1  0.1262344E-006  0.9118800E+02  0.7816164E-02  0.1184000E+00
        -11   -1    0    0    0    0  0.00000000000E+00  0.00000000000E+00  0.45593999997E+02  0.45594000000E+02  0.51100000000E-03 0.  1.
         11   -1    0    0    0    0 -0.00000000000E+00 -0.00000000000E+00 -0.45593999997E+02  0.45594000000E+02  0.51100000000E-03 0. -1.
         23    2    1    2    0    0 -0.15543122345E-14  0.00000000000E+00  0.00000000000E+00  0.91188000000E+02  0.91188000000E+02 0.  0.
    9900012    2    3    3    0    0 -0.51226199550E+00  0.32441910409E+02 -0.17408044607E+02  0.54367082299E+02  0.39999995716E+02 0.  0.
        -12    1    3    3    0    0  0.51226199550E+00 -0.32441910409E+02  0.17408044607E+02  0.36820917701E+02  0.00000000000E+00 0.  1.
         11    1    4    4    0    0  0.84447766788E+01 -0.50618575784E+01  0.21253527924E+01  0.10072426721E+02  0.51100000000E-03 0. -1.
        -11    1    4    4    0    0  0.18171585723E+01  0.25961817037E+01 -0.95610110544E+00  0.33100384138E+01  0.51100000000E-03 0.  1.
        -12    1    4    4    0    0 -0.10774197247E+02  0.34907586284E+02 -0.18577296294E+02  0.40984617164E+02  0.00000000000E+00 0.  1.
</event>
<event>
 8    1  0.1262344E-006  0.9118800E+02  0.7816164E-02  0.1184000E+00
        -11   -1    0    0    0    0  0.00000000000E+00  0.00000000000E+00  0.45593999997E+02  0.45594000000E+02  0.51100000000E-03 0. -1.
         11   -1    0    0    0    0 -0.00000000000E+00 -0.00000000000E+00 -0.45593999997E+02  0.45594000000E+02  0.51100000000E-03 0.  1.
         23    2    1    2    0    0  0.17763568394E-14  0.00000000000E+00  0.00000000000E+00  0.91188000000E+02  0.91188000000E+02 0.  0.
    9900012    2    3    3    0    0  0.15078395305E+02 -0.82857019965E+01 -0.32554088173E+02  0.54367088559E+02  0.40000009989E+02 0.  0.
         12    1    3    3    0    0 -0.15078395305E+02  0.82857019965E+01  0.32554088173E+02  0.36820911441E+02  0.00000000000E+00 0. -1.
         11    1    4    4    0    0  0.88746747395E+01  0.10015764522E+02 -0.21264745415E+02  0.25124983353E+02  0.51100000000E-03 0. -1.
        -11    1    4    4    0    0  0.17020386264E+01 -0.19306703700E+01 -0.11976311021E+02  0.12249753038E+02  0.51100000000E-03 0.  1.
        -12    1    4    4    0    0  0.45016819387E+01 -0.16370796149E+02  0.68696826187E+00  0.16992352168E+02  0.00000000000E+00 0.  1.
</event>
<event>
 8    1  0.1262344E-006  0.9118800E+02  0.7816164E-02  0.1184000E+00
        -11   -1    0    0    0    0  0.00000000000E+00  0.00000000000E+00  0.45593999997E+02  0.45594000000E+02  0.51100000000E-03 0.  1.
         11   -1    0    0    0    0 -0.00000000000E+00 -0.00000000000E+00 -0.45593999997E+02  0.45594000000E+02  0.51100000000E-03 0. -1.
         23    2    1    2    0    0  0.00000000000E+00  0.00000000000E+00 -0.35527136788E-14  0.91188000000E+02  0.91188000000E+02 0.  0.
    9900012    2    3    3    0    0  0.22661776075E+02 -0.13841262141E+02 -0.25507648139E+02  0.54367126217E+02  0.40000095838E+02 0.  0.
        -12    1    3    3    0    0 -0.22661776075E+02  0.13841262141E+02  0.25507648139E+02  0.36820873783E+02  0.00000000000E+00 0.  1.
         11    1    4    4    0    0  0.75187652726E+01 -0.84195852340E+01 -0.31496995465E+02  0.33458660617E+02  0.51100000000E-03 0. -1.
        -11    1    4    4    0    0  0.39249019555E+00 -0.51176381507E+01  0.26717332732E+01  0.57864002402E+01  0.51100000000E-03 0.  1.
         12    1    4    4    0    0  0.14750520607E+02 -0.30403875637E+00  0.33176140527E+01  0.15122065360E+02  0.00000000000E+00 0. -1.
</event>
<event>
 8    1  0.1262344E-006  0.9118800E+02  0.7816164E-02  0.1184000E+00
        -11   -1    0    0    0    0  0.00000000000E+00  0.00000000000E+00  0.45593999997E+02  0.45594000000E+02  0.51100000000E-03 0. -1.
         11   -1    0    0    0    0 -0.00000000000E+00 -0.00000000000E+00 -0.45593999997E+02  0.45594000000E+02  0.51100000000E-03 0.  1.
         23    2    1    2    0    0  0.71054273576E-14  0.88817841970E-15  0.00000000000E+00  0.91188000000E+02  0.91188000000E+02 0.  0.
    9900012    2    3    3    0    0  0.34478998109E+02  0.75806678815E+01  0.10464799466E+02  0.54367083879E+02  0.39999999319E+02 0.  0.
        -12    1    3    3    0    0 -0.34478998109E+02 -0.75806678815E+01 -0.10464799466E+02  0.36820916121E+02  0.00000000000E+00 0.  1.
         11    1    4    4    0    0  0.32568993137E+02 -0.28784621136E+00  0.69615009062E+01  0.33305925366E+02  0.51100000000E-03 0. -1.
        -11    1    4    4    0    0  0.46369210420E+01  0.69251599540E+01 -0.65512010373E+01  0.10600807159E+02  0.51100000000E-03 0.  1.
        -12    1    4    4    0    0 -0.27269160699E+01  0.94335413890E+00  0.10054499598E+02  0.10460351354E+02  0.00000000000E+00 0.  1.
</event>
<event>
 8    1  0.1262344E-006  0.9118800E+02  0.7816164E-02  0.1184000E+00
        -11   -1    0    0    0    0  0.00000000000E+00  0.00000000000E+00  0.45593999997E+02  0.45594000000E+02  0.51100000000E-03 0. -1.
         11   -1    0    0    0    0 -0.00000000000E+00 -0.00000000000E+00 -0.45593999997E+02  0.45594000000E+02  0.51100000000E-03 0.  1.
         23    2    1    2    0    0 -0.88817841970E-15  0.00000000000E+00  0.00000000000E+00  0.91188000000E+02  0.91188000000E+02 0.  0.
    9900012    2    3    3    0    0  0.59261034791E+01 -0.11910334231E+02 -0.34333753630E+02  0.54367062990E+02  0.39999951699E+02 0.  0.
         12    1    3    3    0    0 -0.59261034791E+01  0.11910334231E+02  0.34333753630E+02  0.36820937010E+02  0.00000000000E+00 0. -1.
         11    1    4    4    0    0  0.40507015669E+01 -0.44620012873E+01  0.58338930488E+01  0.83876067527E+01  0.51100000000E-03 0.  1.
        -11    1    4    4    0    0 -0.14863412095E+01  0.41327764031E+01 -0.29663721410E+02  0.29987087540E+02  0.51100000000E-03 0. -1.
        -12    1    4    4    0    0  0.33617431217E+01 -0.11581109346E+02 -0.10503925269E+02  0.15992368698E+02  0.00000000000E+00 0.  1.
</event>
<event>
 8    1  0.1262344E-006  0.9118800E+02  0.7816164E-02  0.1184000E+00
        -11   -1    0    0    0    0  0.00000000000E+00  0.00000000000E+00  0.45593999997E+02  0.45594000000E+02  0.51100000000E-03 0. -1.
         11   -1    0    0    0    0 -0.00000000000E+00 -0.00000000000E+00 -0.45593999997E+02  0.45594000000E+02  0.51100000000E-03 0.  1.
         23    2    1    2    0    0  0.00000000000E+00  0.00000000000E+00  0.00000000000E+00  0.91188000000E+02  0.91188000000E+02 0.  0.
    9900012    2    3    3    0    0 -0.10417387852E+02  0.26827057732E+01  0.35214504134E+02  0.54367079570E+02  0.39999989495E+02 0.  0.
        -12    1    3    3    0    0  0.10417387852E+02 -0.26827057732E+01 -0.35214504134E+02  0.36820920430E+02  0.00000000000E+00 0.  1.
         11    1    4    4    0    0 -0.95003144986E+01  0.28647065768E+01  0.85329824224E+01  0.13087181080E+02  0.51100000000E-03 0. -1.
        -11    1    4    4    0    0 -0.18057016383E+01  0.16133696883E+01 -0.70678395928E+01  0.74711362541E+01  0.51100000000E-03 0.  1.
        -12    1    4    4    0    0  0.88862828513E+00 -0.17953704919E+01  0.33749361304E+02  0.33808762235E+02  0.00000000000E+00 0.  1.
</event>
<event>
 8    1  0.1262344E-006  0.9118800E+02  0.7816164E-02  0.1184000E+00
        -11   -1    0    0    0    0  0.00000000000E+00  0.00000000000E+00  0.45593999997E+02  0.45594000000E+02  0.51100000000E-03 0. -1.
         11   -1    0    0    0    0 -0.00000000000E+00 -0.00000000000E+00 -0.45593999997E+02  0.45594000000E+02  0.51100000000E-03 0.  1.
         23    2    1    2    0    0  0.88817841970E-15  0.11102230246E-15  0.71054273576E-14  0.91188000000E+02  0.91188000000E+02 0.  0.
    9900012    2    3    3    0    0  0.62133291904E+01 -0.89718603389E+00  0.36281808032E+02  0.54367082080E+02  0.39999995217E+02 0.  0.
        -12    1    3    3    0    0 -0.62133291904E+01  0.89718603389E+00 -0.36281808032E+02  0.36820917920E+02  0.00000000000E+00 0.  1.
         11    1    4    4    0    0  0.27133225182E+01  0.38424427249E+01  0.11978182403E+02  0.12868696093E+02  0.51100000000E-03 0. -1.
        -11    1    4    4    0    0 -0.50045543503E+01  0.10921969899E+02  0.85289761452E+00  0.12044186370E+02  0.51100000000E-03 0.  1.
         12    1    4    4    0    0  0.85045610226E+01 -0.15661598657E+02  0.23450728014E+02  0.29454199617E+02  0.00000000000E+00 0. -1.
</event>
<event>
 8    1  0.1262344E-006  0.9118800E+02  0.7816164E-02  0.1184000E+00
        -11   -1    0    0    0    0  0.00000000000E+00  0.00000000000E+00  0.45593999997E+02  0.45594000000E+02  0.51100000000E-03 0.  1.
         11   -1    0    0    0    0 -0.00000000000E+00 -0.00000000000E+00 -0.45593999997E+02  0.45594000000E+02  0.51100000000E-03 0. -1.
         23    2    1    2    0    0 -0.35527136788E-14  0.00000000000E+00 -0.35527136788E-14  0.91188000000E+02  0.91188000000E+02 0.  0.
    9900012    2    3    3    0    0  0.23694091500E+02 -0.18882523092E+02  0.20924124031E+02  0.54367100815E+02  0.40000037929E+02 0.  0.
         12    1    3    3    0    0 -0.23694091500E+02  0.18882523092E+02 -0.20924124031E+02  0.36820899185E+02  0.00000000000E+00 0. -1.
         11    1    4    4    0    0  0.10380824092E+01  0.23239237419E+00 -0.86886741303E+01  0.87535524050E+01  0.51100000000E-03 0. -1.
        -11    1    4    4    0    0  0.85763863129E+00 -0.10175039169E+02  0.14083157846E+02  0.17395467838E+02  0.51100000000E-03 0.  1.
        -12    1    4    4    0    0  0.21798370459E+02 -0.89398762964E+01  0.15529640315E+02  0.28218080572E+02  0.00000000000E+00 0.  1.
</event>
<event>
 8    1  0.1262344E-006  0.9118800E+02  0.7816164E-02  0.1184000E+00
        -11   -1    0    0    0    0  0.00000000000E+00  0.00000000000E+00  0.45593999997E+02  0.45594000000E+02  0.51100000000E-03 0.  1.
         11   -1    0    0    0    0 -0.00000000000E+00 -0.00000000000E+00 -0.45593999997E+02  0.45594000000E+02  0.51100000000E-03 0. -1.
         23    2    1    2    0    0  0.17763568394E-14 -0.35527136788E-14  0.00000000000E+00  0.91188000000E+02  0.91188000000E+02 0.  0.
    9900012    2    3    3    0    0 -0.81062035380E+01 -0.20001282490E+02 -0.29833157419E+02  0.54367094001E+02  0.40000022394E+02 0.  0.
        -12    1    3    3    0    0  0.81062035380E+01  0.20001282490E+02  0.29833157419E+02  0.36820905999E+02  0.00000000000E+00 0.  1.
         11    1    4    4    0    0  0.34183728375E+00  0.50201137024E+01 -0.62033431876E+01  0.79874815354E+01  0.51100000000E-03 0. -1.
        -11    1    4    4    0    0 -0.16862192469E+02 -0.18320073126E+02 -0.25296419050E+02  0.35494611298E+02  0.51100000000E-03 0.  1.
        -12    1    4    4    0    0  0.84141516471E+01 -0.67013230663E+01  0.16666048194E+01  0.10885001167E+02  0.00000000000E+00 0.  1.
</event>
<event>
 8    1  0.1262344E-006  0.9118800E+02  0.7816164E-02  0.1184000E+00
        -11   -1    0    0    0    0  0.00000000000E+00  0.00000000000E+00  0.45593999997E+02  0.45594000000E+02  0.51100000000E-03 0.  1.
         11   -1    0    0    0    0 -0.00000000000E+00 -0.00000000000E+00 -0.45593999997E+02  0.45594000000E+02  0.51100000000E-03 0. -1.
         23    2    1    2    0    0  0.88817841970E-15  0.00000000000E+00  0.00000000000E+00  0.91188000000E+02  0.91188000000E+02 0.  0.
    9900012    2    3    3    0    0  0.45321585868E+01 -0.90877768812E+01 -0.35392817055E+02  0.54367086795E+02  0.40000005968E+02 0.  0.
        -12    1    3    3    0    0 -0.45321585868E+01  0.90877768812E+01  0.35392817055E+02  0.36820913205E+02  0.00000000000E+00 0.  1.
         11    1    4    4    0    0  0.20872974186E+01  0.13592491217E+01 -0.20535602174E+02  0.20686114318E+02  0.51100000000E-03 0.  1.
        -11    1    4    4    0    0  0.77236562793E+01 -0.14551580110E+02 -0.19509683311E+02  0.25534899514E+02  0.51100000000E-03 0. -1.
        -12    1    4    4    0    0 -0.52787951111E+01  0.41045541071E+01  0.46524684292E+01  0.81460729636E+01  0.00000000000E+00 0.  1.
</event>
<event>
 8    1  0.1262344E-006  0.9118800E+02  0.7816164E-02  0.1184000E+00
        -11   -1    0    0    0    0  0.00000000000E+00  0.00000000000E+00  0.45593999997E+02  0.45594000000E+02  0.51100000000E-03 0.  1.
         11   -1    0    0    0    0 -0.00000000000E+00 -0.00000000000E+00 -0.45593999997E+02  0.45594000000E+02  0.51100000000E-03 0. -1.
         23    2    1    2    0    0 -0.11102230246E-14  0.00000000000E+00  0.71054273576E-14  0.91188000000E+02  0.91188000000E+02 0.  0.
    9900012    2    3    3    0    0 -0.14696312333E+01 -0.12775144595E+02 -0.34502425980E+02  0.54367061203E+02  0.39999947625E+02 0.  0.
        -12    1    3    3    0    0  0.14696312333E+01  0.12775144595E+02  0.34502425980E+02  0.36820938797E+02  0.00000000000E+00 0.  1.
         11    1    4    4    0    0 -0.56234818776E+01 -0.17341860122E+02 -0.13274994251E+02  0.22551920839E+02  0.51100000000E-03 0. -1.
        -11    1    4    4    0    0  0.99275224072E+01 -0.56846685804E+01 -0.13697611794E+02  0.17846448586E+02  0.51100000000E-03 0.  1.
        -12    1    4    4    0    0 -0.57736717628E+01  0.10251384107E+02 -0.75298199352E+01  0.13968691778E+02  0.00000000000E+00 0.  1.
</event>
<event>
 8    1  0.1262344E-006  0.9118800E+02  0.7816164E-02  0.1184000E+00
        -11   -1    0    0    0    0  0.00000000000E+00  0.00000000000E+00  0.45593999997E+02  0.45594000000E+02  0.51100000000E-03 0. -1.
         11   -1    0    0    0    0 -0.00000000000E+00 -0.00000000000E+00 -0.45593999997E+02  0.45594000000E+02  0.51100000000E-03 0.  1.
         23    2    1    2    0    0 -0.22204460493E-15  0.00000000000E+00  0.71054273576E-14  0.91188000000E+02  0.91188000000E+02 0.  0.
    9900012    2    3    3    0    0 -0.10369880206E+01 -0.18064505643E+02 -0.32068326804E+02  0.54367091643E+02  0.40000017018E+02 0.  0.
         12    1    3    3    0    0  0.10369880206E+01  0.18064505643E+02  0.32068326804E+02  0.36820908357E+02  0.00000000000E+00 0. -1.
         11    1    4    4    0    0  0.20894744598E+01  0.66612422923E+01  0.31246321560E+01  0.76486194026E+01  0.51100000000E-03 0. -1.
        -11    1    4    4    0    0 -0.44878767092E+01 -0.92031891723E+01 -0.25571971812E+01  0.10553624306E+02  0.51100000000E-03 0.  1.
        -12    1    4    4    0    0  0.13614142288E+01 -0.15522558763E+02 -0.32635761779E+02  0.36164847934E+02  0.00000000000E+00 0.  1.
</event>
<event>
 8    1  0.1262344E-006  0.9118800E+02  0.7816164E-02  0.1184000E+00
        -11   -1    0    0    0    0  0.00000000000E+00  0.00000000000E+00  0.45593999997E+02  0.45594000000E+02  0.51100000000E-03 0. -1.
         11   -1    0    0    0    0 -0.00000000000E+00 -0.00000000000E+00 -0.45593999997E+02  0.45594000000E+02  0.51100000000E-03 0.  1.
         23    2    1    2    0    0  0.00000000000E+00 -0.17763568394E-14  0.00000000000E+00  0.91188000000E+02  0.91188000000E+02 0.  0.
    9900012    2    3    3    0    0  0.29037360469E+02 -0.10146845089E+02 -0.20239883840E+02  0.54367086566E+02  0.40000005444E+02 0.  0.
         12    1    3    3    0    0 -0.29037360469E+02  0.10146845089E+02  0.20239883840E+02  0.36820913434E+02  0.00000000000E+00 0. -1.
         11    1    4    4    0    0 -0.67677518653E+01  0.20662017160E+01 -0.16258411404E+00  0.70780003318E+01  0.51100000000E-03 0. -1.
        -11    1    4    4    0    0  0.63076903829E+00  0.31594771984E+01 -0.52059878825E+01  0.61222933481E+01  0.51100000000E-03 0.  1.
        -12    1    4    4    0    0  0.35174343296E+02 -0.15372524003E+02 -0.14871311843E+02  0.41166792886E+02  0.00000000000E+00 0.  1.
</event>
<event>
 8    1  0.1262344E-006  0.9118800E+02  0.7816164E-02  0.1184000E+00
        -11   -1    0    0    0    0  0.00000000000E+00  0.00000000000E+00  0.45593999997E+02  0.45594000000E+02  0.51100000000E-03 0.  1.
         11   -1    0    0    0    0 -0.00000000000E+00 -0.00000000000E+00 -0.45593999997E+02  0.45594000000E+02  0.51100000000E-03 0. -1.
         23    2    1    2    0    0  0.00000000000E+00  0.00000000000E+00  0.00000000000E+00  0.91188000000E+02  0.91188000000E+02 0.  0.
    9900012    2    3    3    0    0  0.13477240403E+02 -0.21374742260E+02  0.26781686682E+02  0.54367158659E+02  0.40000169794E+02 0.  0.
         12    1    3    3    0    0 -0.13477240403E+02  0.21374742260E+02 -0.26781686682E+02  0.36820841341E+02  0.00000000000E+00 0. -1.
         11    1    4    4    0    0  0.54331485244E+00 -0.87421372179E+01 -0.12374387789E+01  0.88459826565E+01  0.51100000000E-03 0. -1.
        -11    1    4    4    0    0  0.11780736612E+02 -0.70305378751E+01  0.34350576979E+02  0.36988868015E+02  0.51100000000E-03 0.  1.
        -12    1    4    4    0    0  0.11531889383E+01 -0.56020671665E+01 -0.63314515181E+01  0.85323079874E+01  0.00000000000E+00 0.  1.
</event>
<event>
 8    1  0.1262344E-006  0.9118800E+02  0.7816164E-02  0.1184000E+00
        -11   -1    0    0    0    0  0.00000000000E+00  0.00000000000E+00  0.45593999997E+02  0.45594000000E+02  0.51100000000E-03 0.  1.
         11   -1    0    0    0    0 -0.00000000000E+00 -0.00000000000E+00 -0.45593999997E+02  0.45594000000E+02  0.51100000000E-03 0. -1.
         23    2    1    2    0    0  0.00000000000E+00  0.13322676296E-14  0.17763568394E-14  0.91188000000E+02  0.91188000000E+02 0.  0.
    9900012    2    3    3    0    0  0.34260978352E+02  0.33745309665E+01 -0.13060522352E+02  0.54367090981E+02  0.40000015509E+02 0.  0.
        -12    1    3    3    0    0 -0.34260978352E+02 -0.33745309665E+01  0.13060522352E+02  0.36820909019E+02  0.00000000000E+00 0.  1.
         11    1    4    4    0    0  0.45330626281E+01 -0.65825174263E+01 -0.82628613231E+01  0.11495784878E+02  0.51100000000E-03 0. -1.
        -11    1    4    4    0    0  0.76228514947E+01  0.17283346590E+02  0.84962359426E+00  0.18908828487E+02  0.51100000000E-03 0.  1.
         12    1    4    4    0    0  0.22105064229E+02 -0.73262981970E+01 -0.56472846231E+01  0.23962477615E+02  0.00000000000E+00 0. -1.
</event>
<event>
 8    1  0.1262344E-006  0.9118800E+02  0.7816164E-02  0.1184000E+00
        -11   -1    0    0    0    0  0.00000000000E+00  0.00000000000E+00  0.45593999997E+02  0.45594000000E+02  0.51100000000E-03 0. -1.
         11   -1    0    0    0    0 -0.00000000000E+00 -0.00000000000E+00 -0.45593999997E+02  0.45594000000E+02  0.51100000000E-03 0.  1.
         23    2    1    2    0    0  0.00000000000E+00  0.00000000000E+00 -0.35527136788E-14  0.91188000000E+02  0.91188000000E+02 0.  0.
    9900012    2    3    3    0    0  0.28923473022E+02 -0.40689981723E+01  0.22419997447E+02  0.54367077642E+02  0.39999985099E+02 0.  0.
        -12    1    3    3    0    0 -0.28923473022E+02  0.40689981723E+01 -0.22419997447E+02  0.36820922358E+02  0.00000000000E+00 0.  1.
         11    1    4    4    0    0  0.11803284469E+02 -0.68517370998E+01  0.31596564780E+02  0.34418116330E+02  0.51100000000E-03 0. -1.
        -11    1    4    4    0    0  0.10377858694E+02  0.43957205000E+00 -0.39962965061E+01  0.11129400734E+02  0.51100000000E-03 0.  1.
         12    1    4    4    0    0  0.67423298595E+01  0.23431668775E+01 -0.51802708269E+01  0.88195605781E+01  0.00000000000E+00 0. -1.
</event>
<event>
 8    1  0.1262344E-006  0.9118800E+02  0.7816164E-02  0.1184000E+00
        -11   -1    0    0    0    0  0.00000000000E+00  0.00000000000E+00  0.45593999997E+02  0.45594000000E+02  0.51100000000E-03 0. -1.
         11   -1    0    0    0    0 -0.00000000000E+00 -0.00000000000E+00 -0.45593999997E+02  0.45594000000E+02  0.51100000000E-03 0.  1.
         23    2    1    2    0    0  0.17763568394E-14  0.00000000000E+00  0.17763568394E-14  0.91188000000E+02  0.91188000000E+02 0.  0.
    9900012    2    3    3    0    0  0.14576457167E+02  0.33307793375E+02  0.58221747968E+01  0.54367083085E+02  0.39999997509E+02 0.  0.
        -12    1    3    3    0    0 -0.14576457167E+02 -0.33307793375E+02 -0.58221747968E+01  0.36820916915E+02  0.00000000000E+00 0.  1.
         11    1    4    4    0    0  0.81827861195E+01  0.14995765081E+02  0.80007972645E+01  0.18863820296E+02  0.51100000000E-03 0. -1.
        -11    1    4    4    0    0  0.94324243329E+01  0.14760073441E+02  0.11562643925E+02  0.20988690564E+02  0.51100000000E-03 0.  1.
        -12    1    4    4    0    0 -0.30387532851E+01  0.35519548536E+01 -0.13741266393E+02  0.14514572225E+02  0.00000000000E+00 0.  1.
</event>
<event>
 8    1  0.1262344E-006  0.9118800E+02  0.7816164E-02  0.1184000E+00
        -11   -1    0    0    0    0  0.00000000000E+00  0.00000000000E+00  0.45593999997E+02  0.45594000000E+02  0.51100000000E-03 0.  1.
         11   -1    0    0    0    0 -0.00000000000E+00 -0.00000000000E+00 -0.45593999997E+02  0.45594000000E+02  0.51100000000E-03 0. -1.
         23    2    1    2    0    0 -0.88817841970E-15 -0.35527136788E-14  0.71054273576E-14  0.91188000000E+02  0.91188000000E+02 0.  0.
    9900012    2    3    3    0    0  0.51194699280E+01  0.26986682084E+02 -0.24521204865E+02  0.54367089225E+02  0.40000011506E+02 0.  0.
        -12    1    3    3    0    0 -0.51194699280E+01 -0.26986682084E+02  0.24521204865E+02  0.36820910775E+02  0.00000000000E+00 0.  1.
         11    1    4    4    0    0 -0.12668885167E+02  0.36738826430E+00 -0.12470215510E+02  0.17780379654E+02  0.51100000000E-03 0. -1.
        -11    1    4    4    0    0 -0.29463507351E+00  0.16782436964E+01  0.20841132293E+01  0.26919955321E+01  0.51100000000E-03 0.  1.
        -12    1    4    4    0    0  0.18082990169E+02  0.24941050123E+02 -0.14135102585E+02  0.33894714039E+02  0.00000000000E+00 0.  1.
</event>
<event>
 8    1  0.1262344E-006  0.9118800E+02  0.7816164E-02  0.1184000E+00
        -11   -1    0    0    0    0  0.00000000000E+00  0.00000000000E+00  0.45593999997E+02  0.45594000000E+02  0.51100000000E-03 0. -1.
         11   -1    0    0    0    0 -0.00000000000E+00 -0.00000000000E+00 -0.45593999997E+02  0.45594000000E+02  0.51100000000E-03 0.  1.
         23    2    1    2    0    0 -0.17763568394E-14  0.00000000000E+00  0.00000000000E+00  0.91188000000E+02  0.91188000000E+02 0.  0.
    9900012    2    3    3    0    0 -0.12393082973E+02  0.79329138846E+01 -0.33753079694E+02  0.54366946008E+02  0.39999685012E+02 0.  0.
         12    1    3    3    0    0  0.12393082973E+02 -0.79329138846E+01  0.33753079694E+02  0.36821053992E+02  0.00000000000E+00 0. -1.
         11    1    4    4    0    0 -0.29662431794E+00  0.33688754004E+01  0.29532762777E+01  0.44898940392E+01  0.51100000000E-03 0. -1.
        -11    1    4    4    0    0 -0.20693762872E+02  0.10335385452E+02 -0.22254950754E+02  0.32098829381E+02  0.51100000000E-03 0.  1.
        -12    1    4    4    0    0  0.85973042172E+01 -0.57713469676E+01 -0.14451405217E+02  0.17778222588E+02  0.00000000000E+00 0.  1.
</event>
<event>
 8    1  0.1262344E-006  0.9118800E+02  0.7816164E-02  0.1184000E+00
        -11   -1    0    0    0    0  0.00000000000E+00  0.00000000000E+00  0.45593999997E+02  0.45594000000E+02  0.51100000000E-03 0. -1.
         11   -1    0    0    0    0 -0.00000000000E+00 -0.00000000000E+00 -0.45593999997E+02  0.45594000000E+02  0.51100000000E-03 0.  1.
         23    2    1    2    0    0  0.00000000000E+00 -0.35527136788E-14  0.00000000000E+00  0.91188000000E+02  0.91188000000E+02 0.  0.
    9900012    2    3    3    0    0 -0.18320788266E+02  0.25875839897E+02 -0.18723765633E+02  0.54366949329E+02  0.39999692583E+02 0.  0.
         12    1    3    3    0    0  0.18320788266E+02 -0.25875839897E+02  0.18723765633E+02  0.36821050671E+02  0.00000000000E+00 0. -1.
         11    1    4    4    0    0 -0.12131527332E+02  0.34648535576E+02 -0.16635103222E+02  0.40304114336E+02  0.51100000000E-03 0. -1.
        -11    1    4    4    0    0 -0.17768765252E+01 -0.92901712318E+01 -0.16080327145E+01  0.95942869028E+01  0.51100000000E-03 0.  1.
         12    1    4    4    0    0 -0.44123844095E+01  0.51747555289E+00 -0.48062969674E+00  0.44685480897E+01  0.00000000000E+00 0. -1.
</event>
<event>
 8    1  0.1262344E-006  0.9118800E+02  0.7816164E-02  0.1184000E+00
        -11   -1    0    0    0    0  0.00000000000E+00  0.00000000000E+00  0.45593999997E+02  0.45594000000E+02  0.51100000000E-03 0. -1.
         11   -1    0    0    0    0 -0.00000000000E+00 -0.00000000000E+00 -0.45593999997E+02  0.45594000000E+02  0.51100000000E-03 0.  1.
         23    2    1    2    0    0  0.00000000000E+00  0.88817841970E-15 -0.11102230246E-14  0.91188000000E+02  0.91188000000E+02 0.  0.
    9900012    2    3    3    0    0 -0.36254701934E+02 -0.61298571638E+01  0.19496108353E+01  0.54367088230E+02  0.40000009239E+02 0.  0.
        -12    1    3    3    0    0  0.36254701934E+02  0.61298571638E+01 -0.19496108353E+01  0.36820911770E+02  0.00000000000E+00 0.  1.
         11    1    4    4    0    0  0.21377714367E+01 -0.10198765683E+02 -0.25864634011E+00  0.10423616760E+02  0.51100000000E-03 0.  1.
        -11    1    4    4    0    0 -0.85701373732E+01 -0.55062620809E+01  0.68557575766E+01  0.12278745413E+02  0.51100000000E-03 0. -1.
        -12    1    4    4    0    0 -0.29822335997E+02  0.95751705998E+01 -0.46475004013E+01  0.31664726058E+02  0.00000000000E+00 0.  1.
</event>
<event>
 8    1  0.1262344E-006  0.9118800E+02  0.7816164E-02  0.1184000E+00
        -11   -1    0    0    0    0  0.00000000000E+00  0.00000000000E+00  0.45593999997E+02  0.45594000000E+02  0.51100000000E-03 0. -1.
         11   -1    0    0    0    0 -0.00000000000E+00 -0.00000000000E+00 -0.45593999997E+02  0.45594000000E+02  0.51100000000E-03 0.  1.
         23    2    1    2    0    0  0.35527136788E-14  0.35527136788E-14  0.00000000000E+00  0.91188000000E+02  0.91188000000E+02 0.  0.
    9900012    2    3    3    0    0  0.26329741179E+02  0.21168906457E+02 -0.14642476660E+02  0.54367082115E+02  0.39999995298E+02 0.  0.
         12    1    3    3    0    0 -0.26329741179E+02 -0.21168906457E+02  0.14642476660E+02  0.36820917885E+02  0.00000000000E+00 0. -1.
         11    1    4    4    0    0  0.39083427633E+01 -0.77323440588E+01 -0.37609393068E+01  0.94450491015E+01  0.51100000000E-03 0. -1.
        -11    1    4    4    0    0  0.16468994413E+02  0.21591461746E+02  0.38556165138E+01  0.27427810271E+02  0.51100000000E-03 0.  1.
         12    1    4    4    0    0  0.59524040025E+01  0.73097887701E+01 -0.14737153867E+02  0.17494222743E+02  0.00000000000E+00 0. -1.
</event>
<event>
 8    1  0.1262344E-006  0.9118800E+02  0.7816164E-02  0.1184000E+00
        -11   -1    0    0    0    0  0.00000000000E+00  0.00000000000E+00  0.45593999997E+02  0.45594000000E+02  0.51100000000E-03 0.  1.
         11   -1    0    0    0    0 -0.00000000000E+00 -0.00000000000E+00 -0.45593999997E+02  0.45594000000E+02  0.51100000000E-03 0. -1.
         23    2    1    2    0    0  0.22204460493E-15 -0.35527136788E-14  0.35527136788E-14  0.91188000000E+02  0.91188000000E+02 0.  0.
    9900012    2    3    3    0    0  0.11534038835E+01 -0.30951904417E+02 -0.19910519481E+02  0.54367088638E+02  0.40000010167E+02 0.  0.
        -12    1    3    3    0    0 -0.11534038835E+01  0.30951904417E+02  0.19910519481E+02  0.36820911362E+02  0.00000000000E+00 0.  1.
         11    1    4    4    0    0 -0.11943842555E+01 -0.16106985435E+02  0.34641354521E+00  0.16154922970E+02  0.51100000000E-03 0. -1.
        -11    1    4    4    0    0 -0.69961660823E+01  0.61270209967E+01 -0.74966242329E+01  0.11945128769E+02  0.51100000000E-03 0.  1.
         12    1    4    4    0    0  0.93439542214E+01 -0.20971939978E+02 -0.12760308794E+02  0.26267036899E+02  0.00000000000E+00 0. -1.
</event>
<event>
 8    1  0.1262344E-006  0.9118800E+02  0.7816164E-02  0.1184000E+00
        -11   -1    0    0    0    0  0.00000000000E+00  0.00000000000E+00  0.45593999997E+02  0.45594000000E+02  0.51100000000E-03 0. -1.
         11   -1    0    0    0    0 -0.00000000000E+00 -0.00000000000E+00 -0.45593999997E+02  0.45594000000E+02  0.51100000000E-03 0.  1.
         23    2    1    2    0    0  0.00000000000E+00  0.00000000000E+00  0.00000000000E+00  0.91188000000E+02  0.91188000000E+02 0.  0.
    9900012    2    3    3    0    0  0.13326500426E+02  0.76938034701E+00  0.34316046202E+02  0.54367101224E+02  0.40000038860E+02 0.  0.
        -12    1    3    3    0    0 -0.13326500426E+02 -0.76938034701E+00 -0.34316046202E+02  0.36820898776E+02  0.00000000000E+00 0.  1.
         11    1    4    4    0    0  0.21214246822E+01  0.37492872813E+01  0.16887713302E+02  0.17428495593E+02  0.51100000000E-03 0. -1.
        -11    1    4    4    0    0 -0.54379917509E+00 -0.15385995954E+02  0.96066391054E+01  0.18146958539E+02  0.51100000000E-03 0.  1.
        -12    1    4    4    0    0  0.11748874919E+02  0.12406089020E+02  0.78216937950E+01  0.18791647093E+02  0.00000000000E+00 0.  1.
</event>
<event>
 8    1  0.1262344E-006  0.9118800E+02  0.7816164E-02  0.1184000E+00
        -11   -1    0    0    0    0  0.00000000000E+00  0.00000000000E+00  0.45593999997E+02  0.45594000000E+02  0.51100000000E-03 0.  1.
         11   -1    0    0    0    0 -0.00000000000E+00 -0.00000000000E+00 -0.45593999997E+02  0.45594000000E+02  0.51100000000E-03 0. -1.
         23    2    1    2    0    0 -0.13322676296E-14 -0.71054273576E-14  0.00000000000E+00  0.91188000000E+02  0.91188000000E+02 0.  0.
    9900012    2    3    3    0    0 -0.35269064419E+01  0.32814886220E+02  0.16325561855E+02  0.54367084795E+02  0.40000001407E+02 0.  0.
        -12    1    3    3    0    0  0.35269064419E+01 -0.32814886220E+02 -0.16325561855E+02  0.36820915205E+02  0.00000000000E+00 0.  1.
         11    1    4    4    0    0 -0.96832910062E+01  0.12924375801E+02  0.85570253989E+01  0.18276441078E+02  0.51100000000E-03 0. -1.
        -11    1    4    4    0    0 -0.34362214496E+01  0.22599757467E+01  0.14381541734E+02  0.14958069766E+02  0.51100000000E-03 0.  1.
         12    1    4    4    0    0  0.95926060139E+01  0.17630534672E+02 -0.66130052778E+01  0.21132573951E+02  0.00000000000E+00 0. -1.
</event>
<event>
 8    1  0.1262344E-006  0.9118800E+02  0.7816164E-02  0.1184000E+00
        -11   -1    0    0    0    0  0.00000000000E+00  0.00000000000E+00  0.45593999997E+02  0.45594000000E+02  0.51100000000E-03 0.  1.
         11   -1    0    0    0    0 -0.00000000000E+00 -0.00000000000E+00 -0.45593999997E+02  0.45594000000E+02  0.51100000000E-03 0. -1.
         23    2    1    2    0    0 -0.44408920985E-15  0.00000000000E+00  0.00000000000E+00  0.91188000000E+02  0.91188000000E+02 0.  0.
    9900012    2    3    3    0    0 -0.37675558547E+01 -0.36186893940E+02 -0.56651008056E+01  0.54367093747E+02  0.40000021815E+02 0.  0.
        -12    1    3    3    0    0  0.37675558547E+01  0.36186893940E+02  0.56651008056E+01  0.36820906253E+02  0.00000000000E+00 0.  1.
         11    1    4    4    0    0 -0.16930594861E+02 -0.23652292562E+02 -0.47756004022E+01  0.29476810297E+02  0.51100000000E-03 0. -1.
        -11    1    4    4    0    0  0.23888238916E+01  0.33202244434E+01  0.33155150714E+01  0.52652645128E+01  0.51100000000E-03 0.  1.
         12    1    4    4    0    0  0.10774215115E+02 -0.15854825821E+02 -0.42050154747E+01  0.19625018938E+02  0.00000000000E+00 0. -1.
</event>
<event>
 8    1  0.1262344E-006  0.9118800E+02  0.7816164E-02  0.1184000E+00
        -11   -1    0    0    0    0  0.00000000000E+00  0.00000000000E+00  0.45593999997E+02  0.45594000000E+02  0.51100000000E-03 0.  1.
         11   -1    0    0    0    0 -0.00000000000E+00 -0.00000000000E+00 -0.45593999997E+02  0.45594000000E+02  0.51100000000E-03 0. -1.
         23    2    1    2    0    0  0.35527136788E-14 -0.35527136788E-14  0.00000000000E+00  0.91188000000E+02  0.91188000000E+02 0.  0.
    9900012    2    3    3    0    0 -0.30817221413E+02  0.17916853661E+02  0.92231631709E+01  0.54367061397E+02  0.39999948066E+02 0.  0.
         12    1    3    3    0    0  0.30817221413E+02 -0.17916853661E+02 -0.92231631709E+01  0.36820938603E+02  0.00000000000E+00 0. -1.
         11    1    4    4    0    0 -0.54937589365E+01 -0.77464368075E+01  0.61441339132E+01  0.11311014644E+02  0.51100000000E-03 0. -1.
        -11    1    4    4    0    0 -0.24392943226E+02  0.11596438191E+02 -0.39615790554E+01  0.27298116543E+02  0.51100000000E-03 0.  1.
         12    1    4    4    0    0 -0.93051925132E+00  0.14066852278E+02  0.70406083131E+01  0.15757930210E+02  0.00000000000E+00 0. -1.
</event>
<event>
 8    1  0.1262344E-006  0.9118800E+02  0.7816164E-02  0.1184000E+00
        -11   -1    0    0    0    0  0.00000000000E+00  0.00000000000E+00  0.45593999997E+02  0.45594000000E+02  0.51100000000E-03 0.  1.
         11   -1    0    0    0    0 -0.00000000000E+00 -0.00000000000E+00 -0.45593999997E+02  0.45594000000E+02  0.51100000000E-03 0. -1.
         23    2    1    2    0    0  0.00000000000E+00 -0.44408920985E-15  0.00000000000E+00  0.91188000000E+02  0.91188000000E+02 0.  0.
    9900012    2    3    3    0    0  0.22745204269E+02  0.30676094622E+01  0.28792813441E+02  0.54367073194E+02  0.39999974960E+02 0.  0.
         12    1    3    3    0    0 -0.22745204269E+02 -0.30676094622E+01 -0.28792813441E+02  0.36820926806E+02  0.00000000000E+00 0. -1.
         11    1    4    4    0    0  0.19623938176E+02  0.67017655750E+01  0.88201959646E+01  0.22534606020E+02  0.51100000000E-03 0. -1.
        -11    1    4    4    0    0  0.46785118082E+01 -0.10597850972E+02  0.10771974755E+01  0.11634572301E+02  0.51100000000E-03 0.  1.
         12    1    4    4    0    0 -0.15572457157E+01  0.69636948588E+01  0.18895420001E+02  0.20197894873E+02  0.00000000000E+00 0. -1.
</event>
<event>
 8    1  0.1262344E-006  0.9118800E+02  0.7816164E-02  0.1184000E+00
        -11   -1    0    0    0    0  0.00000000000E+00  0.00000000000E+00  0.45593999997E+02  0.45594000000E+02  0.51100000000E-03 0.  1.
         11   -1    0    0    0    0 -0.00000000000E+00 -0.00000000000E+00 -0.45593999997E+02  0.45594000000E+02  0.51100000000E-03 0. -1.
         23    2    1    2    0    0 -0.17763568394E-14  0.00000000000E+00 -0.71054273576E-14  0.91188000000E+02  0.91188000000E+02 0.  0.
    9900012    2    3    3    0    0  0.42149331152E+01  0.96317522040E+01 -0.35288011912E+02  0.54367080723E+02  0.39999992125E+02 0.  0.
        -12    1    3    3    0    0 -0.42149331152E+01 -0.96317522040E+01  0.35288011912E+02  0.36820919277E+02  0.00000000000E+00 0.  1.
         11    1    4    4    0    0 -0.42638096075E+01  0.16846496112E+02 -0.15143933287E+02  0.23050449438E+02  0.51100000000E-03 0. -1.
        -11    1    4    4    0    0  0.11683158177E+02 -0.99419088668E+01 -0.21915453913E+02  0.26751165533E+02  0.51100000000E-03 0.  1.
         12    1    4    4    0    0 -0.32044154548E+01  0.27271649586E+01  0.17713752887E+01  0.45654657519E+01  0.00000000000E+00 0. -1.
</event>
<event>
 8    1  0.1262344E-006  0.9118800E+02  0.7816164E-02  0.1184000E+00
        -11   -1    0    0    0    0  0.00000000000E+00  0.00000000000E+00  0.45593999997E+02  0.45594000000E+02  0.51100000000E-03 0. -1.
         11   -1    0    0    0    0 -0.00000000000E+00 -0.00000000000E+00 -0.45593999997E+02  0.45594000000E+02  0.51100000000E-03 0.  1.
         23    2    1    2    0    0  0.00000000000E+00 -0.88817841970E-15 -0.88817841970E-15  0.91188000000E+02  0.91188000000E+02 0.  0.
    9900012    2    3    3    0    0 -0.35985671299E+02  0.12442558744E+01 -0.76981715913E+01  0.54367101622E+02  0.40000039767E+02 0.  0.
        -12    1    3    3    0    0  0.35985671299E+02 -0.12442558744E+01  0.76981715913E+01  0.36820898378E+02  0.00000000000E+00 0.  1.
         11    1    4    4    0    0 -0.51860211200E+01  0.14961461490E+02  0.29466195938E+01  0.16106604616E+02  0.51100000000E-03 0. -1.
        -11    1    4    4    0    0 -0.21683382565E+02 -0.35887127233E+01 -0.18808920389E+01  0.22058687485E+02  0.51100000000E-03 0.  1.
        -12    1    4    4    0    0 -0.91162676143E+01 -0.10128492892E+02 -0.87638991462E+01  0.16201809520E+02  0.00000000000E+00 0.  1.
</event>
<event>
 8    1  0.1262344E-006  0.9118800E+02  0.7816164E-02  0.1184000E+00
        -11   -1    0    0    0    0  0.00000000000E+00  0.00000000000E+00  0.45593999997E+02  0.45594000000E+02  0.51100000000E-03 0.  1.
         11   -1    0    0    0    0 -0.00000000000E+00 -0.00000000000E+00 -0.45593999997E+02  0.45594000000E+02  0.51100000000E-03 0. -1.
         23    2    1    2    0    0  0.00000000000E+00  0.00000000000E+00  0.35527136788E-14  0.91188000000E+02  0.91188000000E+02 0.  0.
    9900012    2    3    3    0    0 -0.21934631000E+02 -0.20678803633E+01  0.29502130243E+02  0.54367083999E+02  0.39999999592E+02 0.  0.
         12    1    3    3    0    0  0.21934631000E+02  0.20678803633E+01 -0.29502130243E+02  0.36820916001E+02  0.00000000000E+00 0. -1.
         11    1    4    4    0    0 -0.41520801422E+01  0.15696169811E+01  0.20465776533E+00  0.44435742411E+01  0.51100000000E-03 0. -1.
        -11    1    4    4    0    0 -0.21683471932E+02 -0.85411675437E+00  0.35789489611E+02  0.41854390897E+02  0.51100000000E-03 0.  1.
        -12    1    4    4    0    0  0.39009210738E+01 -0.27833805900E+01 -0.64920171334E+01  0.80691188610E+01  0.00000000000E+00 0.  1.
</event>
<event>
 8    1  0.1262344E-006  0.9118800E+02  0.7816164E-02  0.1184000E+00
        -11   -1    0    0    0    0  0.00000000000E+00  0.00000000000E+00  0.45593999997E+02  0.45594000000E+02  0.51100000000E-03 0. -1.
         11   -1    0    0    0    0 -0.00000000000E+00 -0.00000000000E+00 -0.45593999997E+02  0.45594000000E+02  0.51100000000E-03 0.  1.
         23    2    1    2    0    0 -0.88817841970E-15 -0.71054273576E-14  0.44408920985E-15  0.91188000000E+02  0.91188000000E+02 0.  0.
    9900012    2    3    3    0    0  0.39270982730E+01  0.36507486943E+02  0.27496119442E+01  0.54367094667E+02  0.40000023912E+02 0.  0.
         12    1    3    3    0    0 -0.39270982730E+01 -0.36507486943E+02 -0.27496119442E+01  0.36820905333E+02  0.00000000000E+00 0. -1.
         11    1    4    4    0    0  0.69922979958E+01  0.24998490290E+02  0.73140880694E+00  0.25968282714E+02  0.51100000000E-03 0. -1.
        -11    1    4    4    0    0  0.72049358767E+01  0.11694970804E+02 -0.63659962003E+01  0.15139661522E+02  0.51100000000E-03 0.  1.
         12    1    4    4    0    0 -0.10270135599E+02 -0.18597415128E+00  0.83841993376E+01  0.13259150431E+02  0.00000000000E+00 0. -1.
</event>
<event>
 8    1  0.1262344E-006  0.9118800E+02  0.7816164E-02  0.1184000E+00
        -11   -1    0    0    0    0  0.00000000000E+00  0.00000000000E+00  0.45593999997E+02  0.45594000000E+02  0.51100000000E-03 0. -1.
         11   -1    0    0    0    0 -0.00000000000E+00 -0.00000000000E+00 -0.45593999997E+02  0.45594000000E+02  0.51100000000E-03 0.  1.
         23    2    1    2    0    0  0.00000000000E+00  0.00000000000E+00  0.35527136788E-14  0.91188000000E+02  0.91188000000E+02 0.  0.
    9900012    2    3    3    0    0 -0.23907212364E+02  0.20968704373E+02 -0.18561758703E+02  0.54367078607E+02  0.39999987300E+02 0.  0.
        -12    1    3    3    0    0  0.23907212364E+02 -0.20968704373E+02  0.18561758703E+02  0.36820921393E+02  0.00000000000E+00 0.  1.
         11    1    4    4    0    0 -0.88369667863E+01  0.22646184941E+01 -0.17794893460E+02  0.19996967581E+02  0.51100000000E-03 0.  1.
        -11    1    4    4    0    0 -0.10693083735E+02  0.22987317025E+02  0.51321629884E+01  0.25866926392E+02  0.51100000000E-03 0. -1.
         12    1    4    4    0    0 -0.43771618424E+01 -0.42832311463E+01 -0.58990282311E+01  0.85031846339E+01  0.00000000000E+00 0. -1.
</event>
<event>
 8    1  0.1262344E-006  0.9118800E+02  0.7816164E-02  0.1184000E+00
        -11   -1    0    0    0    0  0.00000000000E+00  0.00000000000E+00  0.45593999997E+02  0.45594000000E+02  0.51100000000E-03 0.  1.
         11   -1    0    0    0    0 -0.00000000000E+00 -0.00000000000E+00 -0.45593999997E+02  0.45594000000E+02  0.51100000000E-03 0. -1.
         23    2    1    2    0    0 -0.35527136788E-14  0.17763568394E-14  0.00000000000E+00  0.91188000000E+02  0.91188000000E+02 0.  0.
    9900012    2    3    3    0    0 -0.29161965402E+02 -0.14686235628E+02  0.17019817756E+02  0.54367082854E+02  0.39999996982E+02 0.  0.
         12    1    3    3    0    0  0.29161965402E+02  0.14686235628E+02 -0.17019817756E+02  0.36820917146E+02  0.00000000000E+00 0. -1.
         11    1    4    4    0    0 -0.32327654615E+02 -0.83721036572E+01  0.22790754611E+02  0.40430036712E+02  0.51100000000E-03 0.  1.
        -11    1    4    4    0    0 -0.17526305083E+01 -0.62651685488E+01 -0.20452206916E+00  0.65089077564E+01  0.51100000000E-03 0. -1.
         12    1    4    4    0    0  0.49183197215E+01 -0.48963422321E-01 -0.55664147860E+01  0.74281383852E+01  0.00000000000E+00 0. -1.
</event>
<event>
 8    1  0.1262344E-006  0.9118800E+02  0.7816164E-02  0.1184000E+00
        -11   -1    0    0    0    0  0.00000000000E+00  0.00000000000E+00  0.45593999997E+02  0.45594000000E+02  0.51100000000E-03 0. -1.
         11   -1    0    0    0    0 -0.00000000000E+00 -0.00000000000E+00 -0.45593999997E+02  0.45594000000E+02  0.51100000000E-03 0.  1.
         23    2    1    2    0    0  0.35527136788E-14  0.00000000000E+00  0.00000000000E+00  0.91188000000E+02  0.91188000000E+02 0.  0.
    9900012    2    3    3    0    0 -0.23304627373E+02 -0.27001404660E+02 -0.91433048500E+01  0.54367061199E+02  0.39999947615E+02 0.  0.
        -12    1    3    3    0    0  0.23304627373E+02  0.27001404660E+02  0.91433048500E+01  0.36820938801E+02  0.00000000000E+00 0.  1.
         11    1    4    4    0    0 -0.31667191585E+01 -0.28614656247E+02 -0.10700064082E+02  0.30713482934E+02  0.51100000000E-03 0. -1.
        -11    1    4    4    0    0 -0.12711111536E+02 -0.23107265953E+01 -0.40677367552E+01  0.13544677791E+02  0.51100000000E-03 0.  1.
         12    1    4    4    0    0 -0.74267966789E+01  0.39239781821E+01  0.56244959874E+01  0.10108900474E+02  0.00000000000E+00 0. -1.
</event>
<event>
 8    1  0.1262344E-006  0.9118800E+02  0.7816164E-02  0.1184000E+00
        -11   -1    0    0    0    0  0.00000000000E+00  0.00000000000E+00  0.45593999997E+02  0.45594000000E+02  0.51100000000E-03 0. -1.
         11   -1    0    0    0    0 -0.00000000000E+00 -0.00000000000E+00 -0.45593999997E+02  0.45594000000E+02  0.51100000000E-03 0.  1.
         23    2    1    2    0    0  0.00000000000E+00  0.00000000000E+00  0.00000000000E+00  0.91188000000E+02  0.91188000000E+02 0.  0.
    9900012    2    3    3    0    0 -0.19154908857E+02  0.13242293528E+02 -0.28522117526E+02  0.54367081226E+02  0.39999993272E+02 0.  0.
         12    1    3    3    0    0  0.19154908857E+02 -0.13242293528E+02  0.28522117526E+02  0.36820918774E+02  0.00000000000E+00 0. -1.
         11    1    4    4    0    0 -0.12524777588E+02  0.12774351604E+02 -0.58485632776E+01  0.18821790701E+02  0.51100000000E-03 0. -1.
        -11    1    4    4    0    0 -0.13507481961E+02  0.76800256652E+01 -0.19809402204E+02  0.25176323780E+02  0.51100000000E-03 0.  1.
         12    1    4    4    0    0  0.68773506924E+01 -0.72120837406E+01 -0.28641520441E+01  0.10368966745E+02  0.00000000000E+00 0. -1.
</event>
<event>
 8    1  0.1262344E-006  0.9118800E+02  0.7816164E-02  0.1184000E+00
        -11   -1    0    0    0    0  0.00000000000E+00  0.00000000000E+00  0.45593999997E+02  0.45594000000E+02  0.51100000000E-03 0.  1.
         11   -1    0    0    0    0 -0.00000000000E+00 -0.00000000000E+00 -0.45593999997E+02  0.45594000000E+02  0.51100000000E-03 0. -1.
         23    2    1    2    0    0  0.00000000000E+00  0.35527136788E-14  0.00000000000E+00  0.91188000000E+02  0.91188000000E+02 0.  0.
    9900012    2    3    3    0    0  0.25375952329E+02 -0.24871483578E+02  0.96565794460E+01  0.54367093186E+02  0.40000020536E+02 0.  0.
         12    1    3    3    0    0 -0.25375952329E+02  0.24871483578E+02 -0.96565794460E+01  0.36820906814E+02  0.00000000000E+00 0. -1.
         11    1    4    4    0    0 -0.54308302785E+01  0.31901903280E+01  0.11645127688E+01  0.64052573791E+01  0.51100000000E-03 0. -1.
        -11    1    4    4    0    0 -0.14579301154E+01 -0.21626388521E+01  0.59660353387E+01  0.65112322144E+01  0.51100000000E-03 0.  1.
         12    1    4    4    0    0  0.32264712723E+02 -0.25899035054E+02  0.25260313385E+01  0.41450603592E+02  0.00000000000E+00 0. -1.
</event>
<event>
 8    1  0.1262344E-006  0.9118800E+02  0.7816164E-02  0.1184000E+00
        -11   -1    0    0    0    0  0.00000000000E+00  0.00000000000E+00  0.45593999997E+02  0.45594000000E+02  0.51100000000E-03 0. -1.
         11   -1    0    0    0    0 -0.00000000000E+00 -0.00000000000E+00 -0.45593999997E+02  0.45594000000E+02  0.51100000000E-03 0.  1.
         23    2    1    2    0    0  0.00000000000E+00  0.00000000000E+00 -0.88817841970E-15  0.91188000000E+02  0.91188000000E+02 0.  0.
    9900012    2    3    3    0    0  0.80243103594E+01  0.35912077060E+02 -0.13083090895E+01  0.54367102290E+02  0.40000041291E+02 0.  0.
        -12    1    3    3    0    0 -0.80243103594E+01 -0.35912077060E+02  0.13083090895E+01  0.36820897710E+02  0.00000000000E+00 0.  1.
         11    1    4    4    0    0  0.17297171828E+02  0.46440357370E+01  0.61892460689E+01  0.18949036607E+02  0.51100000000E-03 0. -1.
        -11    1    4    4    0    0 -0.10250071185E+02  0.15368779760E+02 -0.59780182934E+01  0.19416489219E+02  0.51100000000E-03 0.  1.
         12    1    4    4    0    0  0.97720971675E+00  0.15899261562E+02 -0.15195368651E+01  0.16001576464E+02  0.00000000000E+00 0. -1.
</event>
<event>
 8    1  0.1262344E-006  0.9118800E+02  0.7816164E-02  0.1184000E+00
        -11   -1    0    0    0    0  0.00000000000E+00  0.00000000000E+00  0.45593999997E+02  0.45594000000E+02  0.51100000000E-03 0.  1.
         11   -1    0    0    0    0 -0.00000000000E+00 -0.00000000000E+00 -0.45593999997E+02  0.45594000000E+02  0.51100000000E-03 0. -1.
         23    2    1    2    0    0  0.00000000000E+00  0.00000000000E+00  0.71054273576E-14  0.91188000000E+02  0.91188000000E+02 0.  0.
    9900012    2    3    3    0    0 -0.89011689127E+01  0.10202908978E+02 -0.34241056110E+02  0.54367080903E+02  0.39999992535E+02 0.  0.
        -12    1    3    3    0    0  0.89011689127E+01 -0.10202908978E+02  0.34241056110E+02  0.36820919097E+02  0.00000000000E+00 0.  1.
         11    1    4    4    0    0  0.22419565566E+01 -0.19035958273E+01 -0.36485235351E+02  0.36603585141E+02  0.51100000000E-03 0. -1.
        -11    1    4    4    0    0 -0.40371066158E+01  0.88447632030E+01  0.20819154378E+01  0.99429592223E+01  0.51100000000E-03 0.  1.
         12    1    4    4    0    0 -0.71060188535E+01  0.32617416025E+01  0.16226380400E+00  0.78205365397E+01  0.00000000000E+00 0. -1.
</event>
<event>
 8    1  0.1262344E-006  0.9118800E+02  0.7816164E-02  0.1184000E+00
        -11   -1    0    0    0    0  0.00000000000E+00  0.00000000000E+00  0.45593999997E+02  0.45594000000E+02  0.51100000000E-03 0.  1.
         11   -1    0    0    0    0 -0.00000000000E+00 -0.00000000000E+00 -0.45593999997E+02  0.45594000000E+02  0.51100000000E-03 0. -1.
         23    2    1    2    0    0  0.71054273576E-14  0.00000000000E+00  0.00000000000E+00  0.91188000000E+02  0.91188000000E+02 0.  0.
    9900012    2    3    3    0    0  0.34321087198E+02 -0.98281629296E+01  0.90139020048E+01  0.54367078741E+02  0.39999987605E+02 0.  0.
         12    1    3    3    0    0 -0.34321087198E+02  0.98281629296E+01 -0.90139020048E+01  0.36820921259E+02  0.00000000000E+00 0. -1.
         11    1    4    4    0    0  0.11737357725E+01 -0.81647585462E+01  0.25302749770E+01  0.86280489974E+01  0.51100000000E-03 0. -1.
        -11    1    4    4    0    0  0.14068423277E+02  0.11775423253E+02  0.11788163515E+02  0.21806923800E+02  0.51100000000E-03 0.  1.
         12    1    4    4    0    0  0.19078928149E+02 -0.13438827637E+02 -0.53045364870E+01  0.23932105943E+02  0.00000000000E+00 0. -1.
</event>
<event>
 8    1  0.1262344E-006  0.9118800E+02  0.7816164E-02  0.1184000E+00
        -11   -1    0    0    0    0  0.00000000000E+00  0.00000000000E+00  0.45593999997E+02  0.45594000000E+02  0.51100000000E-03 0.  1.
         11   -1    0    0    0    0 -0.00000000000E+00 -0.00000000000E+00 -0.45593999997E+02  0.45594000000E+02  0.51100000000E-03 0. -1.
         23    2    1    2    0    0 -0.71054273576E-14 -0.66613381478E-15 -0.35527136788E-14  0.91188000000E+02  0.91188000000E+02 0.  0.
    9900012    2    3    3    0    0 -0.27464964314E+02  0.19983548495E+01  0.24443212586E+02  0.54366968939E+02  0.39999737290E+02 0.  0.
         12    1    3    3    0    0  0.27464964314E+02 -0.19983548495E+01 -0.24443212586E+02  0.36821031061E+02  0.00000000000E+00 0. -1.
         11    1    4    4    0    0 -0.13877202126E+01  0.13547687944E+01 -0.22684623248E+01  0.29844744018E+01  0.51100000000E-03 0. -1.
        -11    1    4    4    0    0  0.85953525534E+01 -0.27184212347E+01  0.45834798423E+01  0.10113267882E+02  0.51100000000E-03 0.  1.
        -12    1    4    4    0    0 -0.34672596654E+02  0.33620072898E+01  0.22128195068E+02  0.41269226656E+02  0.00000000000E+00 0.  1.
</event>
<event>
 8    1  0.1262344E-006  0.9118800E+02  0.7816164E-02  0.1184000E+00
        -11   -1    0    0    0    0  0.00000000000E+00  0.00000000000E+00  0.45593999997E+02  0.45594000000E+02  0.51100000000E-03 0. -1.
         11   -1    0    0    0    0 -0.00000000000E+00 -0.00000000000E+00 -0.45593999997E+02  0.45594000000E+02  0.51100000000E-03 0.  1.
         23    2    1    2    0    0  0.00000000000E+00  0.17763568394E-14 -0.35527136788E-14  0.91188000000E+02  0.91188000000E+02 0.  0.
    9900012    2    3    3    0    0  0.27490495799E+02 -0.13396767358E+02  0.20508015331E+02  0.54367089803E+02  0.40000012824E+02 0.  0.
        -12    1    3    3    0    0 -0.27490495799E+02  0.13396767358E+02 -0.20508015331E+02  0.36820910197E+02  0.00000000000E+00 0.  1.
         11    1    4    4    0    0 -0.23317554808E+01 -0.77748440711E+01  0.89567822780E+01  0.12087565222E+02  0.51100000000E-03 0. -1.
        -11    1    4    4    0    0 -0.16839141379E+00 -0.87972241327E+01 -0.22970669677E+01  0.90937354824E+01  0.51100000000E-03 0.  1.
         12    1    4    4    0    0  0.29990642693E+02  0.31753008462E+01  0.13848300021E+02  0.33185789099E+02  0.00000000000E+00 0. -1.
</event>
<event>
 8    1  0.1262344E-006  0.9118800E+02  0.7816164E-02  0.1184000E+00
        -11   -1    0    0    0    0  0.00000000000E+00  0.00000000000E+00  0.45593999997E+02  0.45594000000E+02  0.51100000000E-03 0.  1.
         11   -1    0    0    0    0 -0.00000000000E+00 -0.00000000000E+00 -0.45593999997E+02  0.45594000000E+02  0.51100000000E-03 0. -1.
         23    2    1    2    0    0  0.00000000000E+00  0.33306690739E-15  0.00000000000E+00  0.91188000000E+02  0.91188000000E+02 0.  0.
    9900012    2    3    3    0    0 -0.33548930822E+02 -0.74752782082E+00  0.15155530380E+02  0.54367086673E+02  0.40000005688E+02 0.  0.
         12    1    3    3    0    0  0.33548930822E+02  0.74752782082E+00 -0.15155530380E+02  0.36820913327E+02  0.00000000000E+00 0. -1.
         11    1    4    4    0    0 -0.39464627287E+01 -0.21894901201E+00 -0.18496408621E+01  0.43639063141E+01  0.51100000000E-03 0. -1.
        -11    1    4    4    0    0 -0.19195391227E+02  0.26691534714E+01 -0.93280013456E+01  0.21508115538E+02  0.51100000000E-03 0.  1.
        -12    1    4    4    0    0 -0.10407076866E+02 -0.31977322802E+01  0.26333172588E+02  0.28495064821E+02  0.00000000000E+00 0.  1.
</event>
<event>
 8    1  0.1262344E-006  0.9118800E+02  0.7816164E-02  0.1184000E+00
        -11   -1    0    0    0    0  0.00000000000E+00  0.00000000000E+00  0.45593999997E+02  0.45594000000E+02  0.51100000000E-03 0.  1.
         11   -1    0    0    0    0 -0.00000000000E+00 -0.00000000000E+00 -0.45593999997E+02  0.45594000000E+02  0.51100000000E-03 0. -1.
         23    2    1    2    0    0  0.88817841970E-15  0.00000000000E+00 -0.35527136788E-14  0.91188000000E+02  0.91188000000E+02 0.  0.
    9900012    2    3    3    0    0  0.70244595951E+01  0.29117895093E+02  0.21414566432E+02  0.54367102364E+02  0.40000041459E+02 0.  0.
         12    1    3    3    0    0 -0.70244595951E+01 -0.29117895093E+02 -0.21414566432E+02  0.36820897636E+02  0.00000000000E+00 0. -1.
         11    1    4    4    0    0 -0.48252643513E+01 -0.38934133411E+01  0.69732115767E+00  0.62392387807E+01  0.51100000000E-03 0. -1.
        -11    1    4    4    0    0  0.29825389692E+01 -0.26564537316E+01  0.85091975587E+01  0.93999323660E+01  0.51100000000E-03 0.  1.
        -12    1    4    4    0    0  0.88671849772E+01  0.35667762166E+02  0.12208047716E+02  0.38727931217E+02  0.00000000000E+00 0.  1.
</event>
<event>
 8    1  0.1262344E-006  0.9118800E+02  0.7816164E-02  0.1184000E+00
        -11   -1    0    0    0    0  0.00000000000E+00  0.00000000000E+00  0.45593999997E+02  0.45594000000E+02  0.51100000000E-03 0. -1.
         11   -1    0    0    0    0 -0.00000000000E+00 -0.00000000000E+00 -0.45593999997E+02  0.45594000000E+02  0.51100000000E-03 0.  1.
         23    2    1    2    0    0  0.00000000000E+00 -0.24980018054E-15  0.00000000000E+00  0.91188000000E+02  0.91188000000E+02 0.  0.
    9900012    2    3    3    0    0 -0.36134186333E+02  0.12775697273E+00 -0.70770452126E+01  0.54367077786E+02  0.39999985428E+02 0.  0.
        -12    1    3    3    0    0  0.36134186333E+02 -0.12775697273E+00  0.70770452126E+01  0.36820922214E+02  0.00000000000E+00 0.  1.
         11    1    4    4    0    0 -0.19189936773E+02  0.80242654317E+00  0.19446489295E+00  0.19207690609E+02  0.51100000000E-03 0. -1.
        -11    1    4    4    0    0 -0.14333581930E+00  0.12677438639E+02 -0.62644598380E+00  0.12693716179E+02  0.51100000000E-03 0.  1.
        -12    1    4    4    0    0 -0.16800913741E+02 -0.13352108209E+02 -0.66450641217E+01  0.22465670997E+02  0.00000000000E+00 0.  1.
</event>
<event>
 8    1  0.1262344E-006  0.9118800E+02  0.7816164E-02  0.1184000E+00
        -11   -1    0    0    0    0  0.00000000000E+00  0.00000000000E+00  0.45593999997E+02  0.45594000000E+02  0.51100000000E-03 0.  1.
         11   -1    0    0    0    0 -0.00000000000E+00 -0.00000000000E+00 -0.45593999997E+02  0.45594000000E+02  0.51100000000E-03 0. -1.
         23    2    1    2    0    0  0.00000000000E+00  0.00000000000E+00  0.00000000000E+00  0.91188000000E+02  0.91188000000E+02 0.  0.
    9900012    2    3    3    0    0 -0.11316001573E+02  0.25053821939E+02  0.24495597180E+02  0.54367079770E+02  0.39999989952E+02 0.  0.
         12    1    3    3    0    0  0.11316001573E+02 -0.25053821939E+02 -0.24495597180E+02  0.36820920230E+02  0.00000000000E+00 0. -1.
         11    1    4    4    0    0 -0.56022401979E+01  0.69756864055E+01  0.22018392472E+02  0.23766676322E+02  0.51100000000E-03 0. -1.
        -11    1    4    4    0    0 -0.44812066254E+01  0.16534112546E+02 -0.87255261265E+01  0.19224799010E+02  0.51100000000E-03 0.  1.
        -12    1    4    4    0    0 -0.12325547500E+01  0.15440229868E+01  0.11202730835E+02  0.11375604439E+02  0.00000000000E+00 0.  1.
</event>
<event>
 8    1  0.1262344E-006  0.9118800E+02  0.7816164E-02  0.1184000E+00
        -11   -1    0    0    0    0  0.00000000000E+00  0.00000000000E+00  0.45593999997E+02  0.45594000000E+02  0.51100000000E-03 0. -1.
         11   -1    0    0    0    0 -0.00000000000E+00 -0.00000000000E+00 -0.45593999997E+02  0.45594000000E+02  0.51100000000E-03 0.  1.
         23    2    1    2    0    0 -0.17763568394E-14 -0.88817841970E-15  0.00000000000E+00  0.91188000000E+02  0.91188000000E+02 0.  0.
    9900012    2    3    3    0    0 -0.89220428518E+01 -0.61034963461E+01 -0.35198355575E+02  0.54367085407E+02  0.40000002803E+02 0.  0.
         12    1    3    3    0    0  0.89220428518E+01  0.61034963461E+01  0.35198355575E+02  0.36820914593E+02  0.00000000000E+00 0. -1.
         11    1    4    4    0    0  0.68576854354E+01  0.61790684302E+01 -0.14253381265E+02  0.16981390224E+02  0.51100000000E-03 0. -1.
        -11    1    4    4    0    0  0.20623712574E+01 -0.12668013954E+02 -0.11297423278E+02  0.17098646898E+02  0.51100000000E-03 0.  1.
        -12    1    4    4    0    0 -0.17842099545E+02  0.38544917798E+00 -0.96475510318E+01  0.20287048286E+02  0.00000000000E+00 0.  1.
</event>
<event>
 8    1  0.1262344E-006  0.9118800E+02  0.7816164E-02  0.1184000E+00
        -11   -1    0    0    0    0  0.00000000000E+00  0.00000000000E+00  0.45593999997E+02  0.45594000000E+02  0.51100000000E-03 0.  1.
         11   -1    0    0    0    0 -0.00000000000E+00 -0.00000000000E+00 -0.45593999997E+02  0.45594000000E+02  0.51100000000E-03 0. -1.
         23    2    1    2    0    0  0.00000000000E+00  0.00000000000E+00  0.00000000000E+00  0.91188000000E+02  0.91188000000E+02 0.  0.
    9900012    2    3    3    0    0 -0.24486171685E+02  0.25691654551E+02 -0.98054648698E+01  0.54367070372E+02  0.39999968527E+02 0.  0.
         12    1    3    3    0    0  0.24486171685E+02 -0.25691654551E+02  0.98054648698E+01  0.36820929628E+02  0.00000000000E+00 0. -1.
         11    1    4    4    0    0 -0.52151181108E+01  0.33072042373E+01 -0.10699222819E+02  0.12353478295E+02  0.51100000000E-03 0. -1.
        -11    1    4    4    0    0 -0.19627108716E+01  0.20543659034E+02 -0.84007199660E+01  0.22281522764E+02  0.51100000000E-03 0.  1.
        -12    1    4    4    0    0 -0.17308342703E+02  0.18407912792E+01  0.92944779155E+01  0.19732069313E+02  0.00000000000E+00 0.  1.
</event>
<event>
 8    1  0.1262344E-006  0.9118800E+02  0.7816164E-02  0.1184000E+00
        -11   -1    0    0    0    0  0.00000000000E+00  0.00000000000E+00  0.45593999997E+02  0.45594000000E+02  0.51100000000E-03 0. -1.
         11   -1    0    0    0    0 -0.00000000000E+00 -0.00000000000E+00 -0.45593999997E+02  0.45594000000E+02  0.51100000000E-03 0.  1.
         23    2    1    2    0    0 -0.35527136788E-14  0.17763568394E-14 -0.35527136788E-14  0.91188000000E+02  0.91188000000E+02 0.  0.
    9900012    2    3    3    0    0 -0.22937864913E+02  0.15521576981E+02 -0.24263451684E+02  0.54367080859E+02  0.39999992435E+02 0.  0.
         12    1    3    3    0    0  0.22937864913E+02 -0.15521576981E+02  0.24263451684E+02  0.36820919141E+02  0.00000000000E+00 0. -1.
         11    1    4    4    0    0 -0.19901813919E+02  0.11099183775E+02  0.41519537731E+01  0.23162745911E+02  0.51100000000E-03 0. -1.
        -11    1    4    4    0    0 -0.51992449841E+01 -0.22062811125E+01 -0.15961853093E+02  0.16931644314E+02  0.51100000000E-03 0.  1.
         12    1    4    4    0    0  0.21631939905E+01  0.66286743185E+01 -0.12453552364E+02  0.14272690635E+02  0.00000000000E+00 0. -1.
</event>
<event>
 8    1  0.1262344E-006  0.9118800E+02  0.7816164E-02  0.1184000E+00
        -11   -1    0    0    0    0  0.00000000000E+00  0.00000000000E+00  0.45593999997E+02  0.45594000000E+02  0.51100000000E-03 0.  1.
         11   -1    0    0    0    0 -0.00000000000E+00 -0.00000000000E+00 -0.45593999997E+02  0.45594000000E+02  0.51100000000E-03 0. -1.
         23    2    1    2    0    0  0.00000000000E+00  0.00000000000E+00  0.71054273576E-14  0.91188000000E+02  0.91188000000E+02 0.  0.
    9900012    2    3    3    0    0  0.15431281536E+02  0.94143770082E+01  0.32078435995E+02  0.54367068450E+02  0.39999964145E+02 0.  0.
         12    1    3    3    0    0 -0.15431281536E+02 -0.94143770082E+01 -0.32078435995E+02  0.36820931550E+02  0.00000000000E+00 0. -1.
         11    1    4    4    0    0 -0.84653458234E+01 -0.56341432863E+01  0.16445235748E+02  0.19335238026E+02  0.51100000000E-03 0.  1.
        -11    1    4    4    0    0  0.10473020251E+02  0.27701300529E+01  0.12552389872E+02  0.16580719690E+02  0.51100000000E-03 0. -1.
         12    1    4    4    0    0  0.13423607109E+02  0.12278390242E+02  0.30808103762E+01  0.18451110734E+02  0.00000000000E+00 0. -1.
</event>
<event>
 8    1  0.1262344E-006  0.9118800E+02  0.7816164E-02  0.1184000E+00
        -11   -1    0    0    0    0  0.00000000000E+00  0.00000000000E+00  0.45593999997E+02  0.45594000000E+02  0.51100000000E-03 0. -1.
         11   -1    0    0    0    0 -0.00000000000E+00 -0.00000000000E+00 -0.45593999997E+02  0.45594000000E+02  0.51100000000E-03 0.  1.
         23    2    1    2    0    0 -0.35527136788E-14  0.00000000000E+00  0.00000000000E+00  0.91188000000E+02  0.91188000000E+02 0.  0.
    9900012    2    3    3    0    0 -0.24447820466E+02 -0.49962695825E+01  0.27076207644E+02  0.54367086707E+02  0.40000005767E+02 0.  0.
        -12    1    3    3    0    0  0.24447820466E+02  0.49962695825E+01 -0.27076207644E+02  0.36820913293E+02  0.00000000000E+00 0.  1.
         11    1    4    4    0    0 -0.24642929319E+02 -0.48042664018E+01  0.13167479722E+02  0.28350263907E+02  0.51100000000E-03 0. -1.
        -11    1    4    4    0    0 -0.10877113867E+02 -0.72848574465E+00  0.69480261280E+01  0.12927388170E+02  0.51100000000E-03 0.  1.
        -12    1    4    4    0    0  0.11072222720E+02  0.53648256398E+00  0.69607017941E+01  0.13089434631E+02  0.00000000000E+00 0.  1.
</event>
<event>
 8    1  0.1262344E-006  0.9118800E+02  0.7816164E-02  0.1184000E+00
        -11   -1    0    0    0    0  0.00000000000E+00  0.00000000000E+00  0.45593999997E+02  0.45594000000E+02  0.51100000000E-03 0. -1.
         11   -1    0    0    0    0 -0.00000000000E+00 -0.00000000000E+00 -0.45593999997E+02  0.45594000000E+02  0.51100000000E-03 0.  1.
         23    2    1    2    0    0  0.00000000000E+00  0.00000000000E+00 -0.17763568394E-14  0.91188000000E+02  0.91188000000E+02 0.  0.
    9900012    2    3    3    0    0 -0.17489174376E+02  0.30480141183E+02  0.10994113409E+02  0.54367071759E+02  0.39999971689E+02 0.  0.
        -12    1    3    3    0    0  0.17489174376E+02 -0.30480141183E+02 -0.10994113409E+02  0.36820928241E+02  0.00000000000E+00 0.  1.
         11    1    4    4    0    0 -0.12266014138E+02  0.31759397061E+02  0.11532063305E+02  0.35945832705E+02  0.51100000000E-03 0. -1.
        -11    1    4    4    0    0 -0.20031648075E+01 -0.27444588344E+01 -0.88002612166E+01  0.94334151441E+01  0.51100000000E-03 0.  1.
        -12    1    4    4    0    0 -0.32199954307E+01  0.14652029560E+01  0.82623113205E+01  0.89878239097E+01  0.00000000000E+00 0.  1.
</event>
<event>
 8    1  0.1262344E-006  0.9118800E+02  0.7816164E-02  0.1184000E+00
        -11   -1    0    0    0    0  0.00000000000E+00  0.00000000000E+00  0.45593999997E+02  0.45594000000E+02  0.51100000000E-03 0. -1.
         11   -1    0    0    0    0 -0.00000000000E+00 -0.00000000000E+00 -0.45593999997E+02  0.45594000000E+02  0.51100000000E-03 0.  1.
         23    2    1    2    0    0 -0.35527136788E-14 -0.71054273576E-14 -0.88817841970E-15  0.91188000000E+02  0.91188000000E+02 0.  0.
    9900012    2    3    3    0    0  0.19333397327E+02  0.30900131588E+02  0.52135490730E+01  0.54367089116E+02  0.40000011258E+02 0.  0.
         12    1    3    3    0    0 -0.19333397327E+02 -0.30900131588E+02 -0.52135490730E+01  0.36820910884E+02  0.00000000000E+00 0. -1.
         11    1    4    4    0    0  0.65774460417E+01  0.68701570673E+01  0.12866363014E+02  0.16000161000E+02  0.51100000000E-03 0. -1.
        -11    1    4    4    0    0  0.18397613168E+02  0.14183445750E+02  0.22055061807E+01  0.23334664373E+02  0.51100000000E-03 0.  1.
        -12    1    4    4    0    0 -0.56416618825E+01  0.98465287712E+01 -0.98583201217E+01  0.15032263744E+02  0.00000000000E+00 0.  1.
</event>
<event>
 8    1  0.1262344E-006  0.9118800E+02  0.7816164E-02  0.1184000E+00
        -11   -1    0    0    0    0  0.00000000000E+00  0.00000000000E+00  0.45593999997E+02  0.45594000000E+02  0.51100000000E-03 0.  1.
         11   -1    0    0    0    0 -0.00000000000E+00 -0.00000000000E+00 -0.45593999997E+02  0.45594000000E+02  0.51100000000E-03 0. -1.
         23    2    1    2    0    0  0.00000000000E+00  0.35527136788E-14  0.00000000000E+00  0.91188000000E+02  0.91188000000E+02 0.  0.
    9900012    2    3    3    0    0  0.18992840875E+02 -0.27258624458E+02  0.15875108691E+02  0.54367086271E+02  0.40000004773E+02 0.  0.
         12    1    3    3    0    0 -0.18992840875E+02  0.27258624458E+02 -0.15875108691E+02  0.36820913729E+02  0.00000000000E+00 0. -1.
         11    1    4    4    0    0  0.79560795872E+01 -0.18329191641E+02 -0.28588454237E+01  0.20184931658E+02  0.51100000000E-03 0. -1.
        -11    1    4    4    0    0  0.17523439125E+01 -0.35761103567E+01  0.22479319960E+02  0.22829347354E+02  0.51100000000E-03 0.  1.
        -12    1    4    4    0    0  0.92844173753E+01 -0.53533224605E+01 -0.37453658452E+01  0.11352807260E+02  0.00000000000E+00 0.  1.
</event>
<event>
 8    1  0.1262344E-006  0.9118800E+02  0.7816164E-02  0.1184000E+00
        -11   -1    0    0    0    0  0.00000000000E+00  0.00000000000E+00  0.45593999997E+02  0.45594000000E+02  0.51100000000E-03 0. -1.
         11   -1    0    0    0    0 -0.00000000000E+00 -0.00000000000E+00 -0.45593999997E+02  0.45594000000E+02  0.51100000000E-03 0.  1.
         23    2    1    2    0    0 -0.88817841970E-15  0.17763568394E-14  0.00000000000E+00  0.91188000000E+02  0.91188000000E+02 0.  0.
    9900012    2    3    3    0    0 -0.43801408562E+01  0.13135854096E+02  0.34118089402E+02  0.54367077671E+02  0.39999985166E+02 0.  0.
        -12    1    3    3    0    0  0.43801408562E+01 -0.13135854096E+02 -0.34118089402E+02  0.36820922329E+02  0.00000000000E+00 0.  1.
         11    1    4    4    0    0  0.11396699270E+02  0.17073486440E+02  0.88966551946E+01  0.22372732676E+02  0.51100000000E-03 0. -1.
        -11    1    4    4    0    0 -0.70008925345E+00 -0.72476347387E+00 -0.10995660253E+01  0.14914599428E+01  0.51100000000E-03 0.  1.
         12    1    4    4    0    0 -0.15076750873E+02 -0.32128688701E+01  0.26321000232E+02  0.30502885052E+02  0.00000000000E+00 0. -1.
</event>
<event>
 8    1  0.1262344E-006  0.9118800E+02  0.7816164E-02  0.1184000E+00
        -11   -1    0    0    0    0  0.00000000000E+00  0.00000000000E+00  0.45593999997E+02  0.45594000000E+02  0.51100000000E-03 0. -1.
         11   -1    0    0    0    0 -0.00000000000E+00 -0.00000000000E+00 -0.45593999997E+02  0.45594000000E+02  0.51100000000E-03 0.  1.
         23    2    1    2    0    0  0.00000000000E+00  0.00000000000E+00  0.00000000000E+00  0.91188000000E+02  0.91188000000E+02 0.  0.
    9900012    2    3    3    0    0 -0.15771573627E+02  0.19237674876E+02  0.27146836934E+02  0.54367062685E+02  0.39999951002E+02 0.  0.
        -12    1    3    3    0    0  0.15771573627E+02 -0.19237674876E+02 -0.27146836934E+02  0.36820937315E+02  0.00000000000E+00 0.  1.
         11    1    4    4    0    0 -0.93005142958E+01  0.72957020688E+01  0.15605830857E+02  0.19577251897E+02  0.51100000000E-03 0. -1.
        -11    1    4    4    0    0  0.14991049248E+01  0.76434905926E+01  0.20574171937E+02  0.21999245786E+02  0.51100000000E-03 0.  1.
        -12    1    4    4    0    0 -0.79701642557E+01  0.42984822143E+01 -0.90331658598E+01  0.12790565002E+02  0.00000000000E+00 0.  1.
</event>
<event>
 8    1  0.1262344E-006  0.9118800E+02  0.7816164E-02  0.1184000E+00
        -11   -1    0    0    0    0  0.00000000000E+00  0.00000000000E+00  0.45593999997E+02  0.45594000000E+02  0.51100000000E-03 0.  1.
         11   -1    0    0    0    0 -0.00000000000E+00 -0.00000000000E+00 -0.45593999997E+02  0.45594000000E+02  0.51100000000E-03 0. -1.
         23    2    1    2    0    0 -0.35527136788E-14  0.00000000000E+00 -0.17763568394E-14  0.91188000000E+02  0.91188000000E+02 0.  0.
    9900012    2    3    3    0    0 -0.11779312270E+02 -0.33065000791E+02 -0.11123632638E+02  0.54367059247E+02  0.39999943166E+02 0.  0.
         12    1    3    3    0    0  0.11779312270E+02  0.33065000791E+02  0.11123632638E+02  0.36820940753E+02  0.00000000000E+00 0. -1.
         11    1    4    4    0    0 -0.12236661183E+02 -0.30348636129E+02 -0.79129908755E+01  0.33665873175E+02  0.51100000000E-03 0. -1.
        -11    1    4    4    0    0  0.90841995390E+01  0.82387090627E+00  0.28776272312E+01  0.95646318945E+01  0.51100000000E-03 0.  1.
        -12    1    4    4    0    0 -0.86268506264E+01 -0.35402355678E+01 -0.60882689936E+01  0.11136554177E+02  0.00000000000E+00 0.  1.
</event>
<event>
 8    1  0.1262344E-006  0.9118800E+02  0.7816164E-02  0.1184000E+00
        -11   -1    0    0    0    0  0.00000000000E+00  0.00000000000E+00  0.45593999997E+02  0.45594000000E+02  0.51100000000E-03 0. -1.
         11   -1    0    0    0    0 -0.00000000000E+00 -0.00000000000E+00 -0.45593999997E+02  0.45594000000E+02  0.51100000000E-03 0.  1.
         23    2    1    2    0    0  0.00000000000E+00 -0.88817841970E-15  0.00000000000E+00  0.91188000000E+02  0.91188000000E+02 0.  0.
    9900012    2    3    3    0    0  0.10218895851E+02  0.77980981661E+01 -0.34504325507E+02  0.54367018942E+02  0.39999851281E+02 0.  0.
         12    1    3    3    0    0 -0.10218895851E+02 -0.77980981661E+01  0.34504325507E+02  0.36820981058E+02  0.00000000000E+00 0. -1.
         11    1    4    4    0    0  0.63586822020E+01  0.37108878902E+01  0.45239521102E+00  0.73761907491E+01  0.51100000000E-03 0. -1.
        -11    1    4    4    0    0  0.17254104505E+02 -0.28898635976E+00 -0.20633430422E+02  0.26898440227E+02  0.51100000000E-03 0.  1.
         12    1    4    4    0    0 -0.13393890856E+02  0.43761966356E+01 -0.14323290296E+02  0.20092387966E+02  0.00000000000E+00 0. -1.
</event>
<event>
 8    1  0.1262344E-006  0.9118800E+02  0.7816164E-02  0.1184000E+00
        -11   -1    0    0    0    0  0.00000000000E+00  0.00000000000E+00  0.45593999997E+02  0.45594000000E+02  0.51100000000E-03 0. -1.
         11   -1    0    0    0    0 -0.00000000000E+00 -0.00000000000E+00 -0.45593999997E+02  0.45594000000E+02  0.51100000000E-03 0.  1.
         23    2    1    2    0    0  0.00000000000E+00  0.13322676296E-14  0.00000000000E+00  0.91188000000E+02  0.91188000000E+02 0.  0.
    9900012    2    3    3    0    0 -0.27575642605E+02 -0.37293502480E+01 -0.24113404904E+02  0.54367076405E+02  0.39999982280E+02 0.  0.
         12    1    3    3    0    0  0.27575642605E+02  0.37293502480E+01  0.24113404904E+02  0.36820923595E+02  0.00000000000E+00 0. -1.
         11    1    4    4    0    0 -0.18546096588E+02  0.12094285243E+02 -0.43233541186E+01  0.22559273599E+02  0.51100000000E-03 0. -1.
        -11    1    4    4    0    0 -0.85430675426E+01 -0.10845919631E+01 -0.12949306281E+02  0.15551362519E+02  0.51100000000E-03 0.  1.
         12    1    4    4    0    0 -0.48647847424E+00 -0.14739043528E+02 -0.68407445036E+01  0.16256440287E+02  0.00000000000E+00 0. -1.
</event>
<event>
 8    1  0.1262344E-006  0.9118800E+02  0.7816164E-02  0.1184000E+00
        -11   -1    0    0    0    0  0.00000000000E+00  0.00000000000E+00  0.45593999997E+02  0.45594000000E+02  0.51100000000E-03 0. -1.
         11   -1    0    0    0    0 -0.00000000000E+00 -0.00000000000E+00 -0.45593999997E+02  0.45594000000E+02  0.51100000000E-03 0.  1.
         23    2    1    2    0    0  0.88817841970E-15 -0.71054273576E-14  0.66613381478E-15  0.91188000000E+02  0.91188000000E+02 0.  0.
    9900012    2    3    3    0    0 -0.66608239012E+01  0.36163849840E+02 -0.18939658888E+01  0.54367113032E+02  0.40000065779E+02 0.  0.
         12    1    3    3    0    0  0.66608239012E+01 -0.36163849840E+02  0.18939658888E+01  0.36820886968E+02  0.00000000000E+00 0. -1.
         11    1    4    4    0    0 -0.51496224682E+01  0.36699805362E+01  0.71960553605E+01  0.95796963268E+01  0.51100000000E-03 0. -1.
        -11    1    4    4    0    0 -0.75391961359E+01 -0.26960508293E+01 -0.26854056714E+00  0.80112597479E+01  0.51100000000E-03 0.  1.
        -12    1    4    4    0    0  0.60279947029E+01  0.35189920133E+02 -0.88214806822E+01  0.36776156957E+02  0.00000000000E+00 0.  1.
</event>
<event>
 8    1  0.1262344E-006  0.9118800E+02  0.7816164E-02  0.1184000E+00
        -11   -1    0    0    0    0  0.00000000000E+00  0.00000000000E+00  0.45593999997E+02  0.45594000000E+02  0.51100000000E-03 0.  1.
         11   -1    0    0    0    0 -0.00000000000E+00 -0.00000000000E+00 -0.45593999997E+02  0.45594000000E+02  0.51100000000E-03 0. -1.
         23    2    1    2    0    0  0.00000000000E+00  0.88817841970E-15  0.00000000000E+00  0.91188000000E+02  0.91188000000E+02 0.  0.
    9900012    2    3    3    0    0 -0.31774653768E+02 -0.46037837083E+01  0.18026573517E+02  0.54367071179E+02  0.39999970366E+02 0.  0.
         12    1    3    3    0    0  0.31774653768E+02  0.46037837083E+01 -0.18026573517E+02  0.36820928821E+02  0.00000000000E+00 0. -1.
         11    1    4    4    0    0 -0.20740721157E+02 -0.28398841989E+01  0.17372427335E+02  0.27203744010E+02  0.51100000000E-03 0. -1.
        -11    1    4    4    0    0 -0.63317575408E+01 -0.11172984443E+02  0.72502261387E+01  0.14747627411E+02  0.51100000000E-03 0.  1.
         12    1    4    4    0    0 -0.47021750703E+01  0.94090849339E+01 -0.65960799570E+01  0.12415699758E+02  0.00000000000E+00 0. -1.
</event>
<event>
 8    1  0.1262344E-006  0.9118800E+02  0.7816164E-02  0.1184000E+00
        -11   -1    0    0    0    0  0.00000000000E+00  0.00000000000E+00  0.45593999997E+02  0.45594000000E+02  0.51100000000E-03 0. -1.
         11   -1    0    0    0    0 -0.00000000000E+00 -0.00000000000E+00 -0.45593999997E+02  0.45594000000E+02  0.51100000000E-03 0.  1.
         23    2    1    2    0    0  0.00000000000E+00  0.00000000000E+00  0.88817841970E-15  0.91188000000E+02  0.91188000000E+02 0.  0.
    9900012    2    3    3    0    0 -0.34342488981E+02  0.12120775656E+02  0.54276572474E+01  0.54367092691E+02  0.40000019407E+02 0.  0.
         12    1    3    3    0    0  0.34342488981E+02 -0.12120775656E+02 -0.54276572474E+01  0.36820907309E+02  0.00000000000E+00 0. -1.
         11    1    4    4    0    0  0.24952675357E+01 -0.54107644866E+00  0.87168505191E+00  0.26979545750E+01  0.51100000000E-03 0. -1.
        -11    1    4    4    0    0 -0.50235493366E+01  0.13347213242E+02 -0.92322313732E+01  0.16988768221E+02  0.51100000000E-03 0.  1.
        -12    1    4    4    0    0 -0.31814207180E+02 -0.68536113822E+00  0.13788203569E+02  0.34680369895E+02  0.00000000000E+00 0.  1.
</event>
<event>
 8    1  0.1262344E-006  0.9118800E+02  0.7816164E-02  0.1184000E+00
        -11   -1    0    0    0    0  0.00000000000E+00  0.00000000000E+00  0.45593999997E+02  0.45594000000E+02  0.51100000000E-03 0. -1.
         11   -1    0    0    0    0 -0.00000000000E+00 -0.00000000000E+00 -0.45593999997E+02  0.45594000000E+02  0.51100000000E-03 0.  1.
         23    2    1    2    0    0  0.44408920985E-15  0.00000000000E+00  0.00000000000E+00  0.91188000000E+02  0.91188000000E+02 0.  0.
    9900012    2    3    3    0    0 -0.88743661164E+00 -0.34336306200E+02 -0.13266901586E+02  0.54367080064E+02  0.39999990623E+02 0.  0.
         12    1    3    3    0    0  0.88743661164E+00  0.34336306200E+02  0.13266901586E+02  0.36820919936E+02  0.00000000000E+00 0. -1.
         11    1    4    4    0    0  0.60069110932E+01 -0.12595560065E+02 -0.15919578424E+02  0.21169886435E+02  0.51100000000E-03 0.  1.
        -11    1    4    4    0    0 -0.77253015746E+01  0.19035338975E+01 -0.35896674806E+01  0.87286561738E+01  0.51100000000E-03 0. -1.
        -12    1    4    4    0    0  0.83095386976E+00 -0.23644280033E+02  0.62423443185E+01  0.24468537455E+02  0.00000000000E+00 0.  1.
</event>
<event>
 8    1  0.1262344E-006  0.9118800E+02  0.7816164E-02  0.1184000E+00
        -11   -1    0    0    0    0  0.00000000000E+00  0.00000000000E+00  0.45593999997E+02  0.45594000000E+02  0.51100000000E-03 0.  1.
         11   -1    0    0    0    0 -0.00000000000E+00 -0.00000000000E+00 -0.45593999997E+02  0.45594000000E+02  0.51100000000E-03 0. -1.
         23    2    1    2    0    0  0.00000000000E+00  0.00000000000E+00  0.35527136788E-14  0.91188000000E+02  0.91188000000E+02 0.  0.
    9900012    2    3    3    0    0  0.18423116630E+02 -0.58197448621E+01  0.31344859868E+02  0.54367069855E+02  0.39999967347E+02 0.  0.
         12    1    3    3    0    0 -0.18423116630E+02  0.58197448621E+01 -0.31344859868E+02  0.36820930145E+02  0.00000000000E+00 0. -1.
         11    1    4    4    0    0 -0.32923301508E+00 -0.82096667500E+01  0.53763410990E+01  0.98189646297E+01  0.51100000000E-03 0. -1.
        -11    1    4    4    0    0  0.76070508477E+01 -0.14250783605E+02  0.12211076809E+02  0.20249998841E+02  0.51100000000E-03 0.  1.
        -12    1    4    4    0    0  0.11145298798E+02  0.16640705493E+02  0.13757441960E+02  0.24298106384E+02  0.00000000000E+00 0.  1.
</event>
<event>
 8    1  0.1262344E-006  0.9118800E+02  0.7816164E-02  0.1184000E+00
        -11   -1    0    0    0    0  0.00000000000E+00  0.00000000000E+00  0.45593999997E+02  0.45594000000E+02  0.51100000000E-03 0.  1.
         11   -1    0    0    0    0 -0.00000000000E+00 -0.00000000000E+00 -0.45593999997E+02  0.45594000000E+02  0.51100000000E-03 0. -1.
         23    2    1    2    0    0  0.00000000000E+00  0.00000000000E+00  0.00000000000E+00  0.91188000000E+02  0.91188000000E+02 0.  0.
    9900012    2    3    3    0    0  0.30908562189E+02  0.17327270387E+02 -0.10010285507E+02  0.54367091109E+02  0.40000015800E+02 0.  0.
        -12    1    3    3    0    0 -0.30908562189E+02 -0.17327270387E+02  0.10010285507E+02  0.36820908891E+02  0.00000000000E+00 0.  1.
         11    1    4    4    0    0  0.26495749070E+02  0.18103069731E+02  0.59495729187E+00  0.32095168280E+02  0.51100000000E-03 0. -1.
        -11    1    4    4    0    0  0.17306142338E+01  0.49363919620E+01  0.38527886312E+01  0.64966892897E+01  0.51100000000E-03 0.  1.
         12    1    4    4    0    0  0.26821988850E+01 -0.57121913059E+01 -0.14458031430E+02  0.15775233539E+02  0.00000000000E+00 0. -1.
</event>
<event>
 8    1  0.1262344E-006  0.9118800E+02  0.7816164E-02  0.1184000E+00
        -11   -1    0    0    0    0  0.00000000000E+00  0.00000000000E+00  0.45593999997E+02  0.45594000000E+02  0.51100000000E-03 0. -1.
         11   -1    0    0    0    0 -0.00000000000E+00 -0.00000000000E+00 -0.45593999997E+02  0.45594000000E+02  0.51100000000E-03 0.  1.
         23    2    1    2    0    0  0.00000000000E+00  0.00000000000E+00 -0.44408920985E-14  0.91188000000E+02  0.91188000000E+02 0.  0.
    9900012    2    3    3    0    0  0.31348619047E+02  0.18042399960E+02  0.68931806408E+01  0.54367081329E+02  0.39999993505E+02 0.  0.
         12    1    3    3    0    0 -0.31348619047E+02 -0.18042399960E+02 -0.68931806408E+01  0.36820918671E+02  0.00000000000E+00 0. -1.
         11    1    4    4    0    0  0.33818692405E+01  0.10991593536E+02  0.14525912994E+02  0.18527123808E+02  0.51100000000E-03 0. -1.
        -11    1    4    4    0    0  0.12887487334E+02  0.39257139771E+01 -0.13768263869E+02  0.19263012491E+02  0.51100000000E-03 0.  1.
        -12    1    4    4    0    0  0.15079262473E+02  0.31250924466E+01  0.61355315159E+01  0.16576945030E+02  0.00000000000E+00 0.  1.
</event>
<event>
 8    1  0.1262344E-006  0.9118800E+02  0.7816164E-02  0.1184000E+00
        -11   -1    0    0    0    0  0.00000000000E+00  0.00000000000E+00  0.45593999997E+02  0.45594000000E+02  0.51100000000E-03 0. -1.
         11   -1    0    0    0    0 -0.00000000000E+00 -0.00000000000E+00 -0.45593999997E+02  0.45594000000E+02  0.51100000000E-03 0.  1.
         23    2    1    2    0    0 -0.35527136788E-14 -0.22204460493E-15  0.00000000000E+00  0.91188000000E+02  0.91188000000E+02 0.  0.
    9900012    2    3    3    0    0  0.17556534960E+02  0.80859006653E+00 -0.32355750326E+02  0.54367077729E+02  0.39999985300E+02 0.  0.
         12    1    3    3    0    0 -0.17556534960E+02 -0.80859006653E+00  0.32355750326E+02  0.36820922271E+02  0.00000000000E+00 0. -1.
         11    1    4    4    0    0  0.15496918095E+01  0.18056429327E+01  0.16875672248E+01  0.29171517794E+01  0.51100000000E-03 0. -1.
        -11    1    4    4    0    0  0.22780671769E+02 -0.18883972021E+01 -0.37404014163E+02  0.43835890844E+02  0.51100000000E-03 0.  1.
        -12    1    4    4    0    0 -0.67738286186E+01  0.89134433592E+00  0.33606966126E+01  0.76140351064E+01  0.00000000000E+00 0.  1.
</event>
<event>
 8    1  0.1262344E-006  0.9118800E+02  0.7816164E-02  0.1184000E+00
        -11   -1    0    0    0    0  0.00000000000E+00  0.00000000000E+00  0.45593999997E+02  0.45594000000E+02  0.51100000000E-03 0.  1.
         11   -1    0    0    0    0 -0.00000000000E+00 -0.00000000000E+00 -0.45593999997E+02  0.45594000000E+02  0.51100000000E-03 0. -1.
         23    2    1    2    0    0  0.00000000000E+00  0.00000000000E+00  0.00000000000E+00  0.91188000000E+02  0.91188000000E+02 0.  0.
    9900012    2    3    3    0    0 -0.24025783670E+02 -0.90507501960E+01 -0.26393639328E+02  0.54367101627E+02  0.40000039778E+02 0.  0.
        -12    1    3    3    0    0  0.24025783670E+02  0.90507501960E+01  0.26393639328E+02  0.36820898373E+02  0.00000000000E+00 0.  1.
         11    1    4    4    0    0 -0.79266416422E+01 -0.92544941869E+00 -0.14213366839E+02  0.16300549117E+02  0.51100000000E-03 0. -1.
        -11    1    4    4    0    0 -0.33255632288E+01  0.11832229134E+02 -0.53651062256E+01  0.13410644360E+02  0.51100000000E-03 0.  1.
         12    1    4    4    0    0 -0.12773578799E+02 -0.19957529912E+02 -0.68151662628E+01  0.24655908150E+02  0.00000000000E+00 0. -1.
</event>
<event>
 8    1  0.1262344E-006  0.9118800E+02  0.7816164E-02  0.1184000E+00
        -11   -1    0    0    0    0  0.00000000000E+00  0.00000000000E+00  0.45593999997E+02  0.45594000000E+02  0.51100000000E-03 0.  1.
         11   -1    0    0    0    0 -0.00000000000E+00 -0.00000000000E+00 -0.45593999997E+02  0.45594000000E+02  0.51100000000E-03 0. -1.
         23    2    1    2    0    0  0.00000000000E+00  0.35527136788E-14  0.35527136788E-14  0.91188000000E+02  0.91188000000E+02 0.  0.
    9900012    2    3    3    0    0  0.11873348283E+02 -0.28234217451E+02 -0.20435951080E+02  0.54367142716E+02  0.40000133450E+02 0.  0.
         12    1    3    3    0    0 -0.11873348283E+02  0.28234217451E+02  0.20435951080E+02  0.36820857284E+02  0.00000000000E+00 0. -1.
         11    1    4    4    0    0 -0.26295420553E+01  0.38255327740E+01 -0.13826976211E+02  0.14585419563E+02  0.51100000000E-03 0. -1.
        -11    1    4    4    0    0  0.76715122438E+01 -0.70283455918E+01 -0.89571838521E+01  0.13728834061E+02  0.51100000000E-03 0.  1.
        -12    1    4    4    0    0  0.68313780949E+01 -0.25031404634E+02  0.23482089831E+01  0.26052889092E+02  0.00000000000E+00 0.  1.
</event>
<event>
 8    1  0.1262344E-006  0.9118800E+02  0.7816164E-02  0.1184000E+00
        -11   -1    0    0    0    0  0.00000000000E+00  0.00000000000E+00  0.45593999997E+02  0.45594000000E+02  0.51100000000E-03 0. -1.
         11   -1    0    0    0    0 -0.00000000000E+00 -0.00000000000E+00 -0.45593999997E+02  0.45594000000E+02  0.51100000000E-03 0.  1.
         23    2    1    2    0    0  0.00000000000E+00 -0.35527136788E-14  0.00000000000E+00  0.91188000000E+02  0.91188000000E+02 0.  0.
    9900012    2    3    3    0    0  0.19541145279E+02  0.24294282953E+02  0.19588509996E+02  0.54367105566E+02  0.40000048760E+02 0.  0.
        -12    1    3    3    0    0 -0.19541145279E+02 -0.24294282953E+02 -0.19588509996E+02  0.36820894434E+02  0.00000000000E+00 0.  1.
         11    1    4    4    0    0  0.25440743863E+01  0.74741867604E+00  0.22496323663E+02  0.22652053501E+02  0.51100000000E-03 0. -1.
        -11    1    4    4    0    0  0.12340880414E+02  0.23872305532E+02 -0.30452627350E+01  0.27045478849E+02  0.51100000000E-03 0.  1.
         12    1    4    4    0    0  0.46561904784E+01 -0.32544125425E+00  0.13744906745E+00  0.46695732168E+01  0.00000000000E+00 0. -1.
</event>
<event>
 8    1  0.1262344E-006  0.9118800E+02  0.7816164E-02  0.1184000E+00
        -11   -1    0    0    0    0  0.00000000000E+00  0.00000000000E+00  0.45593999997E+02  0.45594000000E+02  0.51100000000E-03 0. -1.
         11   -1    0    0    0    0 -0.00000000000E+00 -0.00000000000E+00 -0.45593999997E+02  0.45594000000E+02  0.51100000000E-03 0.  1.
         23    2    1    2    0    0  0.00000000000E+00  0.00000000000E+00  0.17763568394E-14  0.91188000000E+02  0.91188000000E+02 0.  0.
    9900012    2    3    3    0    0  0.30171926002E+01  0.35002798346E+02 -0.11021809440E+02  0.54367087103E+02  0.40000006669E+02 0.  0.
         12    1    3    3    0    0 -0.30171926002E+01 -0.35002798346E+02  0.11021809440E+02  0.36820912897E+02  0.00000000000E+00 0. -1.
         11    1    4    4    0    0  0.13553558517E+01  0.74206512335E+01  0.11993416200E+02  0.14168453925E+02  0.51100000000E-03 0. -1.
        -11    1    4    4    0    0  0.62824675921E+01  0.20822913735E+02 -0.81483334784E+01  0.23226245374E+02  0.51100000000E-03 0.  1.
        -12    1    4    4    0    0 -0.46206308436E+01  0.67592333778E+01 -0.14866892161E+02  0.16972387804E+02  0.00000000000E+00 0.  1.
</event>
<event>
 8    1  0.1262344E-006  0.9118800E+02  0.7816164E-02  0.1184000E+00
        -11   -1    0    0    0    0  0.00000000000E+00  0.00000000000E+00  0.45593999997E+02  0.45594000000E+02  0.51100000000E-03 0. -1.
         11   -1    0    0    0    0 -0.00000000000E+00 -0.00000000000E+00 -0.45593999997E+02  0.45594000000E+02  0.51100000000E-03 0.  1.
         23    2    1    2    0    0  0.00000000000E+00  0.35527136788E-14 -0.35527136788E-14  0.91188000000E+02  0.91188000000E+02 0.  0.
    9900012    2    3    3    0    0  0.16738765992E+02 -0.23394167016E+02  0.22984923847E+02  0.54367081196E+02  0.39999993203E+02 0.  0.
        -12    1    3    3    0    0 -0.16738765992E+02  0.23394167016E+02 -0.22984923847E+02  0.36820918804E+02  0.00000000000E+00 0.  1.
         11    1    4    4    0    0  0.10674856600E+02 -0.46618016291E+00  0.46265065557E+01  0.11643644212E+02  0.51100000000E-03 0. -1.
        -11    1    4    4    0    0  0.26206107092E+01  0.51640990130E+01 -0.36724486019E+01  0.68572879552E+01  0.51100000000E-03 0.  1.
         12    1    4    4    0    0  0.34432986827E+01 -0.28092085866E+02  0.22030865893E+02  0.35866149029E+02  0.00000000000E+00 0. -1.
</event>
<event>
 8    1  0.1262344E-006  0.9118800E+02  0.7816164E-02  0.1184000E+00
        -11   -1    0    0    0    0  0.00000000000E+00  0.00000000000E+00  0.45593999997E+02  0.45594000000E+02  0.51100000000E-03 0. -1.
         11   -1    0    0    0    0 -0.00000000000E+00 -0.00000000000E+00 -0.45593999997E+02  0.45594000000E+02  0.51100000000E-03 0.  1.
         23    2    1    2    0    0  0.00000000000E+00  0.35527136788E-14  0.17763568394E-14  0.91188000000E+02  0.91188000000E+02 0.  0.
    9900012    2    3    3    0    0  0.12519198461E+02  0.31058850161E+02  0.15310063041E+02  0.54367074784E+02  0.39999978584E+02 0.  0.
        -12    1    3    3    0    0 -0.12519198461E+02 -0.31058850161E+02 -0.15310063041E+02  0.36820925216E+02  0.00000000000E+00 0.  1.
         11    1    4    4    0    0 -0.72123230787E+01  0.24265396938E+02  0.12381732969E+02  0.28180390421E+02  0.51100000000E-03 0. -1.
        -11    1    4    4    0    0  0.34728414380E+01  0.60835316086E+01 -0.44700913330E+01  0.83097353311E+01  0.51100000000E-03 0.  1.
         12    1    4    4    0    0  0.16258680102E+02  0.70992161505E+00  0.73984214058E+01  0.17876949031E+02  0.00000000000E+00 0. -1.
</event>
<event>
 8    1  0.1262344E-006  0.9118800E+02  0.7816164E-02  0.1184000E+00
        -11   -1    0    0    0    0  0.00000000000E+00  0.00000000000E+00  0.45593999997E+02  0.45594000000E+02  0.51100000000E-03 0. -1.
         11   -1    0    0    0    0 -0.00000000000E+00 -0.00000000000E+00 -0.45593999997E+02  0.45594000000E+02  0.51100000000E-03 0.  1.
         23    2    1    2    0    0  0.35527136788E-14 -0.17763568394E-14  0.00000000000E+00  0.91188000000E+02  0.91188000000E+02 0.  0.
    9900012    2    3    3    0    0 -0.21564988906E+02  0.15766257593E+02  0.25340802428E+02  0.54367083489E+02  0.39999998429E+02 0.  0.
        -12    1    3    3    0    0  0.21564988906E+02 -0.15766257593E+02 -0.25340802428E+02  0.36820916511E+02  0.00000000000E+00 0.  1.
         11    1    4    4    0    0 -0.95858174618E+01  0.50383634900E+01  0.25820960434E+02  0.27999910733E+02  0.51100000000E-03 0. -1.
        -11    1    4    4    0    0  0.50226983973E+01  0.54118089802E+01  0.34114213632E+01  0.81334477073E+01  0.51100000000E-03 0.  1.
         12    1    4    4    0    0 -0.17001869842E+02  0.53160851228E+01 -0.38915793686E+01  0.18233725048E+02  0.00000000000E+00 0. -1.
</event>
<event>
 8    1  0.1262344E-006  0.9118800E+02  0.7816164E-02  0.1184000E+00
        -11   -1    0    0    0    0  0.00000000000E+00  0.00000000000E+00  0.45593999997E+02  0.45594000000E+02  0.51100000000E-03 0.  1.
         11   -1    0    0    0    0 -0.00000000000E+00 -0.00000000000E+00 -0.45593999997E+02  0.45594000000E+02  0.51100000000E-03 0. -1.
         23    2    1    2    0    0  0.00000000000E+00  0.00000000000E+00  0.00000000000E+00  0.91188000000E+02  0.91188000000E+02 0.  0.
    9900012    2    3    3    0    0 -0.13538451265E+02 -0.47368451197E+01 -0.33912164073E+02  0.54367323248E+02  0.40000545005E+02 0.  0.
        -12    1    3    3    0    0  0.13538451265E+02  0.47368451197E+01  0.33912164073E+02  0.36820676752E+02  0.00000000000E+00 0.  1.
         11    1    4    4    0    0  0.29248485811E+01 -0.65570242937E+01 -0.72043063921E+01  0.10171103070E+02  0.51100000000E-03 0. -1.
        -11    1    4    4    0    0 -0.19129983805E+02 -0.51340977006E+01 -0.30083843213E+02  0.36018784853E+02  0.51100000000E-03 0.  1.
        -12    1    4    4    0    0  0.26666839584E+01  0.69542768747E+01  0.33759855321E+01  0.81774353251E+01  0.00000000000E+00 0.  1.
</event>
<event>
 8    1  0.1262344E-006  0.9118800E+02  0.7816164E-02  0.1184000E+00
        -11   -1    0    0    0    0  0.00000000000E+00  0.00000000000E+00  0.45593999997E+02  0.45594000000E+02  0.51100000000E-03 0. -1.
         11   -1    0    0    0    0 -0.00000000000E+00 -0.00000000000E+00 -0.45593999997E+02  0.45594000000E+02  0.51100000000E-03 0.  1.
         23    2    1    2    0    0 -0.44408920985E-15  0.71054273576E-14 -0.88817841970E-15  0.91188000000E+02  0.91188000000E+02 0.  0.
    9900012    2    3    3    0    0 -0.35477474084E+01  0.35962438152E+02 -0.70637191291E+01  0.54367087499E+02  0.40000007570E+02 0.  0.
         12    1    3    3    0    0  0.35477474084E+01 -0.35962438152E+02  0.70637191291E+01  0.36820912501E+02  0.00000000000E+00 0. -1.
         11    1    4    4    0    0  0.11751342941E+02  0.37952366643E+01 -0.30047260141E+01  0.12709298208E+02  0.51100000000E-03 0. -1.
        -11    1    4    4    0    0 -0.18096978196E+02  0.22282218292E+02  0.34793116512E+01  0.28915454029E+02  0.51100000000E-03 0.  1.
        -12    1    4    4    0    0  0.27978878469E+01  0.98849831956E+01 -0.75383047663E+01  0.12742335262E+02  0.00000000000E+00 0.  1.
</event>
<event>
 8    1  0.1262344E-006  0.9118800E+02  0.7816164E-02  0.1184000E+00
        -11   -1    0    0    0    0  0.00000000000E+00  0.00000000000E+00  0.45593999997E+02  0.45594000000E+02  0.51100000000E-03 0.  1.
         11   -1    0    0    0    0 -0.00000000000E+00 -0.00000000000E+00 -0.45593999997E+02  0.45594000000E+02  0.51100000000E-03 0. -1.
         23    2    1    2    0    0  0.00000000000E+00  0.00000000000E+00  0.00000000000E+00  0.91188000000E+02  0.91188000000E+02 0.  0.
    9900012    2    3    3    0    0 -0.98373625478E+01  0.22660198751E+02 -0.27304202838E+02  0.54367111880E+02  0.40000063153E+02 0.  0.
        -12    1    3    3    0    0  0.98373625478E+01 -0.22660198751E+02  0.27304202838E+02  0.36820888120E+02  0.00000000000E+00 0.  1.
         11    1    4    4    0    0 -0.30732276536E+01  0.14083933182E+02 -0.12199987219E+01  0.14466869019E+02  0.51100000000E-03 0. -1.
        -11    1    4    4    0    0  0.51644937763E+01  0.13408532628E+02 -0.50296785483E+01  0.15223613558E+02  0.51100000000E-03 0.  1.
        -12    1    4    4    0    0 -0.11928628670E+02 -0.48322670581E+01 -0.21054525567E+02  0.24676629303E+02  0.00000000000E+00 0.  1.
</event>
<event>
 8    1  0.1262344E-006  0.9118800E+02  0.7816164E-02  0.1184000E+00
        -11   -1    0    0    0    0  0.00000000000E+00  0.00000000000E+00  0.45593999997E+02  0.45594000000E+02  0.51100000000E-03 0.  1.
         11   -1    0    0    0    0 -0.00000000000E+00 -0.00000000000E+00 -0.45593999997E+02  0.45594000000E+02  0.51100000000E-03 0. -1.
         23    2    1    2    0    0  0.00000000000E+00  0.00000000000E+00  0.00000000000E+00  0.91188000000E+02  0.91188000000E+02 0.  0.
    9900012    2    3    3    0    0  0.28587681980E+02 -0.18499610045E+02 -0.14010233059E+02  0.54367112406E+02  0.40000064353E+02 0.  0.
        -12    1    3    3    0    0 -0.28587681980E+02  0.18499610045E+02  0.14010233059E+02  0.36820887594E+02  0.00000000000E+00 0.  1.
         11    1    4    4    0    0  0.27422379196E+02 -0.16015448828E+02 -0.10406998836E+02  0.33418364816E+02  0.51100000000E-03 0. -1.
        -11    1    4    4    0    0  0.27348833925E+01 -0.36797892306E+01 -0.11725643284E+02  0.12590120994E+02  0.51100000000E-03 0.  1.
        -12    1    4    4    0    0 -0.15695806084E+01  0.11956280136E+01  0.81224090609E+01  0.83586265968E+01  0.00000000000E+00 0.  1.
</event>
<event>
 8    1  0.1262344E-006  0.9118800E+02  0.7816164E-02  0.1184000E+00
        -11   -1    0    0    0    0  0.00000000000E+00  0.00000000000E+00  0.45593999997E+02  0.45594000000E+02  0.51100000000E-03 0. -1.
         11   -1    0    0    0    0 -0.00000000000E+00 -0.00000000000E+00 -0.45593999997E+02  0.45594000000E+02  0.51100000000E-03 0.  1.
         23    2    1    2    0    0  0.71054273576E-14 -0.88817841970E-15  0.00000000000E+00  0.91188000000E+02  0.91188000000E+02 0.  0.
    9900012    2    3    3    0    0 -0.23977375760E+02  0.54876191270E+01  0.27399835847E+02  0.54367088599E+02  0.40000010078E+02 0.  0.
        -12    1    3    3    0    0  0.23977375760E+02 -0.54876191270E+01 -0.27399835847E+02  0.36820911401E+02  0.00000000000E+00 0.  1.
         11    1    4    4    0    0 -0.13592800627E+02 -0.26442690509E+01  0.82390296516E+00  0.13872101645E+02  0.51100000000E-03 0. -1.
        -11    1    4    4    0    0  0.91357564482E+01 -0.10959935931E+00  0.58117599377E+01  0.10828232161E+02  0.51100000000E-03 0.  1.
        -12    1    4    4    0    0 -0.19520331581E+02  0.82414875371E+01  0.20764172944E+02  0.29666754792E+02  0.00000000000E+00 0.  1.
</event>
<event>
 8    1  0.1262344E-006  0.9118800E+02  0.7816164E-02  0.1184000E+00
        -11   -1    0    0    0    0  0.00000000000E+00  0.00000000000E+00  0.45593999997E+02  0.45594000000E+02  0.51100000000E-03 0.  1.
         11   -1    0    0    0    0 -0.00000000000E+00 -0.00000000000E+00 -0.45593999997E+02  0.45594000000E+02  0.51100000000E-03 0. -1.
         23    2    1    2    0    0  0.44408920985E-15  0.00000000000E+00  0.00000000000E+00  0.91188000000E+02  0.91188000000E+02 0.  0.
    9900012    2    3    3    0    0  0.20156015771E+01 -0.19708579186E+01 -0.36712893273E+02  0.54367035005E+02  0.39999887902E+02 0.  0.
        -12    1    3    3    0    0 -0.20156015771E+01  0.19708579186E+01  0.36712893273E+02  0.36820964995E+02  0.00000000000E+00 0.  1.
         11    1    4    4    0    0 -0.34894622802E+01 -0.16045837088E+01 -0.47319432927E+01  0.60944502189E+01  0.51100000000E-03 0. -1.
        -11    1    4    4    0    0 -0.14505142462E+02  0.49254959902E+01 -0.11506702206E+02  0.19158910839E+02  0.51100000000E-03 0.  1.
        -12    1    4    4    0    0  0.20010206320E+02 -0.52917701999E+01 -0.20474247775E+02  0.29113673948E+02  0.00000000000E+00 0.  1.
</event>
<event>
 8    1  0.1262344E-006  0.9118800E+02  0.7816164E-02  0.1184000E+00
        -11   -1    0    0    0    0  0.00000000000E+00  0.00000000000E+00  0.45593999997E+02  0.45594000000E+02  0.51100000000E-03 0.  1.
         11   -1    0    0    0    0 -0.00000000000E+00 -0.00000000000E+00 -0.45593999997E+02  0.45594000000E+02  0.51100000000E-03 0. -1.
         23    2    1    2    0    0  0.00000000000E+00 -0.22204460493E-15  0.00000000000E+00  0.91188000000E+02  0.91188000000E+02 0.  0.
    9900012    2    3    3    0    0 -0.31038282943E+02  0.24050118267E+00 -0.19807746033E+02  0.54367086761E+02  0.40000005888E+02 0.  0.
         12    1    3    3    0    0  0.31038282943E+02 -0.24050118267E+00  0.19807746033E+02  0.36820913239E+02  0.00000000000E+00 0. -1.
         11    1    4    4    0    0 -0.38627015627E+02  0.59241596107E+01 -0.16660431279E+02  0.42481901723E+02  0.51100000000E-03 0. -1.
        -11    1    4    4    0    0  0.72598275169E+01 -0.22156386079E+01 -0.68913062757E+00  0.76216173676E+01  0.51100000000E-03 0.  1.
         12    1    4    4    0    0  0.32890516652E+00 -0.34680198202E+01 -0.24581841257E+01  0.42635676701E+01  0.00000000000E+00 0. -1.
</event>
<event>
 8    1  0.1262344E-006  0.9118800E+02  0.7816164E-02  0.1184000E+00
        -11   -1    0    0    0    0  0.00000000000E+00  0.00000000000E+00  0.45593999997E+02  0.45594000000E+02  0.51100000000E-03 0.  1.
         11   -1    0    0    0    0 -0.00000000000E+00 -0.00000000000E+00 -0.45593999997E+02  0.45594000000E+02  0.51100000000E-03 0. -1.
         23    2    1    2    0    0  0.14210854715E-13  0.17763568394E-14  0.88817841970E-15  0.91188000000E+02  0.91188000000E+02 0.  0.
    9900012    2    3    3    0    0 -0.32706348335E+02 -0.15768079631E+02  0.61190052854E+01  0.54367084988E+02  0.40000001847E+02 0.  0.
         12    1    3    3    0    0  0.32706348335E+02  0.15768079631E+02 -0.61190052854E+01  0.36820915012E+02  0.00000000000E+00 0. -1.
         11    1    4    4    0    0 -0.85269270537E+01 -0.24392008183E+00 -0.10129492051E+02  0.13242907213E+02  0.51100000000E-03 0. -1.
        -11    1    4    4    0    0 -0.16003936929E+02  0.25048752376E+01  0.13601609132E+02  0.21151930607E+02  0.51100000000E-03 0.  1.
         12    1    4    4    0    0 -0.81754843522E+01 -0.18029034787E+02  0.26468882043E+01  0.19972247167E+02  0.00000000000E+00 0. -1.
</event>
<event>
 8    1  0.1262344E-006  0.9118800E+02  0.7816164E-02  0.1184000E+00
        -11   -1    0    0    0    0  0.00000000000E+00  0.00000000000E+00  0.45593999997E+02  0.45594000000E+02  0.51100000000E-03 0.  1.
         11   -1    0    0    0    0 -0.00000000000E+00 -0.00000000000E+00 -0.45593999997E+02  0.45594000000E+02  0.51100000000E-03 0. -1.
         23    2    1    2    0    0  0.00000000000E+00  0.00000000000E+00 -0.17763568394E-14  0.91188000000E+02  0.91188000000E+02 0.  0.
    9900012    2    3    3    0    0 -0.91436952620E+01  0.33719890700E+02  0.11625230535E+02  0.54367025313E+02  0.39999865807E+02 0.  0.
         12    1    3    3    0    0  0.91436952620E+01 -0.33719890700E+02 -0.11625230535E+02  0.36820974687E+02  0.00000000000E+00 0. -1.
         11    1    4    4    0    0 -0.11226839006E+02  0.11670387640E+02 -0.65373866035E+01  0.17463598873E+02  0.51100000000E-03 0. -1.
        -11    1    4    4    0    0 -0.88406630618E+01  0.23714355205E+01  0.82044336135E+01  0.12292020216E+02  0.51100000000E-03 0.  1.
        -12    1    4    4    0    0  0.10923806806E+02  0.19678067540E+02  0.99581835249E+01  0.24611406225E+02  0.00000000000E+00 0.  1.
</event>
<event>
 8    1  0.1262344E-006  0.9118800E+02  0.7816164E-02  0.1184000E+00
        -11   -1    0    0    0    0  0.00000000000E+00  0.00000000000E+00  0.45593999997E+02  0.45594000000E+02  0.51100000000E-03 0. -1.
         11   -1    0    0    0    0 -0.00000000000E+00 -0.00000000000E+00 -0.45593999997E+02  0.45594000000E+02  0.51100000000E-03 0.  1.
         23    2    1    2    0    0 -0.35527136788E-14  0.00000000000E+00 -0.88817841970E-15  0.91188000000E+02  0.91188000000E+02 0.  0.
    9900012    2    3    3    0    0 -0.22518434526E+02  0.28751755340E+02 -0.46941967110E+01  0.54367098172E+02  0.40000031903E+02 0.  0.
        -12    1    3    3    0    0  0.22518434526E+02 -0.28751755340E+02  0.46941967110E+01  0.36820901828E+02  0.00000000000E+00 0.  1.
         11    1    4    4    0    0 -0.18243164695E+02  0.16222130384E+01 -0.53594183885E+01  0.19083186290E+02  0.51100000000E-03 0. -1.
        -11    1    4    4    0    0  0.53119967207E+01  0.18228501947E+02  0.76309180914E+01  0.20462807813E+02  0.51100000000E-03 0.  1.
        -12    1    4    4    0    0 -0.95872665512E+01  0.89010403547E+01 -0.69656964140E+01  0.14821104070E+02  0.00000000000E+00 0.  1.
</event>
<event>
 8    1  0.1262344E-006  0.9118800E+02  0.7816164E-02  0.1184000E+00
        -11   -1    0    0    0    0  0.00000000000E+00  0.00000000000E+00  0.45593999997E+02  0.45594000000E+02  0.51100000000E-03 0. -1.
         11   -1    0    0    0    0 -0.00000000000E+00 -0.00000000000E+00 -0.45593999997E+02  0.45594000000E+02  0.51100000000E-03 0.  1.
         23    2    1    2    0    0 -0.33306690739E-15 -0.44408920985E-15  0.00000000000E+00  0.91188000000E+02  0.91188000000E+02 0.  0.
    9900012    2    3    3    0    0  0.38373782724E+00  0.36461180902E+01  0.36637941114E+02  0.54367079847E+02  0.39999990128E+02 0.  0.
        -12    1    3    3    0    0 -0.38373782724E+00 -0.36461180902E+01 -0.36637941114E+02  0.36820920153E+02  0.00000000000E+00 0.  1.
         11    1    4    4    0    0  0.18056380745E+01  0.58797101536E+01 -0.54560859981E+01  0.82219337766E+01  0.51100000000E-03 0. -1.
        -11    1    4    4    0    0 -0.46747873074E+01 -0.10758958319E+01  0.99218224245E+00  0.48985318284E+01  0.51100000000E-03 0.  1.
         12    1    4    4    0    0  0.32528870601E+01 -0.11576962316E+01  0.41101844869E+02  0.41246614242E+02  0.00000000000E+00 0. -1.
</event>
<event>
 8    1  0.1262344E-006  0.9118800E+02  0.7816164E-02  0.1184000E+00
        -11   -1    0    0    0    0  0.00000000000E+00  0.00000000000E+00  0.45593999997E+02  0.45594000000E+02  0.51100000000E-03 0.  1.
         11   -1    0    0    0    0 -0.00000000000E+00 -0.00000000000E+00 -0.45593999997E+02  0.45594000000E+02  0.51100000000E-03 0. -1.
         23    2    1    2    0    0  0.00000000000E+00 -0.13322676296E-14  0.00000000000E+00  0.91188000000E+02  0.91188000000E+02 0.  0.
    9900012    2    3    3    0    0  0.33856831586E+02  0.21779408321E+01  0.14309134147E+02  0.54367084865E+02  0.40000001567E+02 0.  0.
         12    1    3    3    0    0 -0.33856831586E+02 -0.21779408321E+01 -0.14309134147E+02  0.36820915135E+02  0.00000000000E+00 0. -1.
         11    1    4    4    0    0  0.14145229128E+02  0.78123325874E+01 -0.30950305400E+01  0.16452940827E+02  0.51100000000E-03 0. -1.
        -11    1    4    4    0    0  0.34504202280E+01  0.70817913127E+01  0.15243255859E+02  0.17158496944E+02  0.51100000000E-03 0.  1.
         12    1    4    4    0    0  0.16261182230E+02 -0.12716183068E+02  0.21609088278E+01  0.20755647094E+02  0.00000000000E+00 0. -1.
</event>
<event>
 8    1  0.1262344E-006  0.9118800E+02  0.7816164E-02  0.1184000E+00
        -11   -1    0    0    0    0  0.00000000000E+00  0.00000000000E+00  0.45593999997E+02  0.45594000000E+02  0.51100000000E-03 0.  1.
         11   -1    0    0    0    0 -0.00000000000E+00 -0.00000000000E+00 -0.45593999997E+02  0.45594000000E+02  0.51100000000E-03 0. -1.
         23    2    1    2    0    0  0.00000000000E+00  0.00000000000E+00  0.88817841970E-15  0.91188000000E+02  0.91188000000E+02 0.  0.
    9900012    2    3    3    0    0 -0.25480816678E+02 -0.25463549725E+02  0.76232839789E+01  0.54367097759E+02  0.40000030962E+02 0.  0.
        -12    1    3    3    0    0  0.25480816678E+02  0.25463549725E+02 -0.76232839789E+01  0.36820902241E+02  0.00000000000E+00 0.  1.
         11    1    4    4    0    0  0.25819429353E+01 -0.14537686189E+01  0.89549849069E+01  0.94324772707E+01  0.51100000000E-03 0. -1.
        -11    1    4    4    0    0 -0.14606810104E+01  0.13560718371E+00  0.77426665298E+01  0.78804101147E+01  0.51100000000E-03 0.  1.
         12    1    4    4    0    0 -0.26602078603E+02 -0.24145388290E+02 -0.90743674577E+01  0.37054210374E+02  0.00000000000E+00 0. -1.
</event>
<event>
 8    1  0.1262344E-006  0.9118800E+02  0.7816164E-02  0.1184000E+00
        -11   -1    0    0    0    0  0.00000000000E+00  0.00000000000E+00  0.45593999997E+02  0.45594000000E+02  0.51100000000E-03 0.  1.
         11   -1    0    0    0    0 -0.00000000000E+00 -0.00000000000E+00 -0.45593999997E+02  0.45594000000E+02  0.51100000000E-03 0. -1.
         23    2    1    2    0    0  0.00000000000E+00  0.00000000000E+00  0.00000000000E+00  0.91188000000E+02  0.91188000000E+02 0.  0.
    9900012    2    3    3    0    0  0.33772594330E+02 -0.93239763038E+01 -0.11324874150E+02  0.54367116844E+02  0.40000074469E+02 0.  0.
        -12    1    3    3    0    0 -0.33772594330E+02  0.93239763038E+01  0.11324874150E+02  0.36820883156E+02  0.00000000000E+00 0.  1.
         11    1    4    4    0    0  0.11954967764E+02 -0.54013283409E+00 -0.58590222446E+00  0.11981497377E+02  0.51100000000E-03 0. -1.
        -11    1    4    4    0    0 -0.41072157401E+01 -0.87321286726E+01 -0.13192292023E+02  0.16344903223E+02  0.51100000000E-03 0.  1.
        -12    1    4    4    0    0  0.25924842305E+02 -0.51714797114E-01  0.24533200971E+01  0.26040716244E+02  0.00000000000E+00 0.  1.
</event>
<event>
 8    1  0.1262344E-006  0.9118800E+02  0.7816164E-02  0.1184000E+00
        -11   -1    0    0    0    0  0.00000000000E+00  0.00000000000E+00  0.45593999997E+02  0.45594000000E+02  0.51100000000E-03 0.  1.
         11   -1    0    0    0    0 -0.00000000000E+00 -0.00000000000E+00 -0.45593999997E+02  0.45594000000E+02  0.51100000000E-03 0. -1.
         23    2    1    2    0    0  0.35527136788E-14  0.35527136788E-14  0.00000000000E+00  0.91188000000E+02  0.91188000000E+02 0.  0.
    9900012    2    3    3    0    0  0.21929277757E+02  0.26001110356E+02 -0.14100648525E+02  0.54367092196E+02  0.40000018279E+02 0.  0.
        -12    1    3    3    0    0 -0.21929277757E+02 -0.26001110356E+02  0.14100648525E+02  0.36820907804E+02  0.00000000000E+00 0.  1.
         11    1    4    4    0    0 -0.12950672995E+00 -0.41248333679E+01  0.40952365607E+01  0.58139474590E+01  0.51100000000E-03 0.  1.
        -11    1    4    4    0    0  0.20844128305E+02  0.13827848015E+02 -0.13018735677E+01  0.25047593509E+02  0.51100000000E-03 0. -1.
         12    1    4    4    0    0  0.12146561820E+01  0.16298095709E+02 -0.16894011518E+02  0.23505551228E+02  0.00000000000E+00 0. -1.
</event>
<event>
 8    1  0.1262344E-006  0.9118800E+02  0.7816164E-02  0.1184000E+00
        -11   -1    0    0    0    0  0.00000000000E+00  0.00000000000E+00  0.45593999997E+02  0.45594000000E+02  0.51100000000E-03 0. -1.
         11   -1    0    0    0    0 -0.00000000000E+00 -0.00000000000E+00 -0.45593999997E+02  0.45594000000E+02  0.51100000000E-03 0.  1.
         23    2    1    2    0    0  0.35527136788E-14  0.35527136788E-14  0.00000000000E+00  0.91188000000E+02  0.91188000000E+02 0.  0.
    9900012    2    3    3    0    0  0.19681532361E+02 -0.22891058560E+02 -0.21081152292E+02  0.54367105659E+02  0.40000048972E+02 0.  0.
         12    1    3    3    0    0 -0.19681532361E+02  0.22891058560E+02  0.21081152292E+02  0.36820894341E+02  0.00000000000E+00 0. -1.
         11    1    4    4    0    0  0.15072474029E+02 -0.19272659795E+02 -0.74195953070E+00  0.24477855158E+02  0.51100000000E-03 0.  1.
        -11    1    4    4    0    0 -0.77071340353E+01  0.10099255311E+01 -0.35138405379E+01  0.85303540491E+01  0.51100000000E-03 0. -1.
        -12    1    4    4    0    0  0.12316192368E+02 -0.46283242961E+01 -0.16825352223E+02  0.21358896453E+02  0.00000000000E+00 0.  1.
</event>
<event>
 8    1  0.1262344E-006  0.9118800E+02  0.7816164E-02  0.1184000E+00
        -11   -1    0    0    0    0  0.00000000000E+00  0.00000000000E+00  0.45593999997E+02  0.45594000000E+02  0.51100000000E-03 0. -1.
         11   -1    0    0    0    0 -0.00000000000E+00 -0.00000000000E+00 -0.45593999997E+02  0.45594000000E+02  0.51100000000E-03 0.  1.
         23    2    1    2    0    0  0.00000000000E+00 -0.35527136788E-14  0.71054273576E-14  0.91188000000E+02  0.91188000000E+02 0.  0.
    9900012    2    3    3    0    0 -0.16464452289E+02 -0.23394345427E+02  0.23182027372E+02  0.54367082301E+02  0.39999995722E+02 0.  0.
        -12    1    3    3    0    0  0.16464452289E+02  0.23394345427E+02 -0.23182027372E+02  0.36820917699E+02  0.00000000000E+00 0.  1.
         11    1    4    4    0    0 -0.95491737443E+01 -0.66855367304E+01  0.17614430624E+02  0.21122293603E+02  0.51100000000E-03 0. -1.
        -11    1    4    4    0    0 -0.11573393579E+02 -0.38691547306E+01 -0.75151562855E+01  0.14331481833E+02  0.51100000000E-03 0.  1.
        -12    1    4    4    0    0  0.46581150350E+01 -0.12839653966E+02  0.13082753034E+02  0.18913306865E+02  0.00000000000E+00 0.  1.
</event>
<event>
 8    1  0.1262344E-006  0.9118800E+02  0.7816164E-02  0.1184000E+00
        -11   -1    0    0    0    0  0.00000000000E+00  0.00000000000E+00  0.45593999997E+02  0.45594000000E+02  0.51100000000E-03 0.  1.
         11   -1    0    0    0    0 -0.00000000000E+00 -0.00000000000E+00 -0.45593999997E+02  0.45594000000E+02  0.51100000000E-03 0. -1.
         23    2    1    2    0    0  0.00000000000E+00 -0.35527136788E-14  0.35527136788E-14  0.91188000000E+02  0.91188000000E+02 0.  0.
    9900012    2    3    3    0    0  0.16682330631E+02 -0.26856899333E+02 -0.18872953514E+02  0.54367060693E+02  0.39999946463E+02 0.  0.
        -12    1    3    3    0    0 -0.16682330631E+02  0.26856899333E+02  0.18872953514E+02  0.36820939307E+02  0.00000000000E+00 0.  1.
         11    1    4    4    0    0  0.27376575842E+01 -0.42141414492E+01 -0.87946023782E+01  0.10129106005E+02  0.51100000000E-03 0. -1.
        -11    1    4    4    0    0 -0.29279648541E+01 -0.24504360745E+02 -0.11454193672E+02  0.27207264226E+02  0.51100000000E-03 0.  1.
         12    1    4    4    0    0  0.16872637901E+02  0.18616028618E+01  0.13758425357E+01  0.17030690463E+02  0.00000000000E+00 0. -1.
</event>
<event>
 8    1  0.1262344E-006  0.9118800E+02  0.7816164E-02  0.1184000E+00
        -11   -1    0    0    0    0  0.00000000000E+00  0.00000000000E+00  0.45593999997E+02  0.45594000000E+02  0.51100000000E-03 0.  1.
         11   -1    0    0    0    0 -0.00000000000E+00 -0.00000000000E+00 -0.45593999997E+02  0.45594000000E+02  0.51100000000E-03 0. -1.
         23    2    1    2    0    0 -0.17763568394E-14  0.35527136788E-14 -0.35527136788E-14  0.91188000000E+02  0.91188000000E+02 0.  0.
    9900012    2    3    3    0    0 -0.11961786995E+02  0.16122609445E+02 -0.30866752093E+02  0.54367091970E+02  0.40000017763E+02 0.  0.
        -12    1    3    3    0    0  0.11961786995E+02 -0.16122609445E+02  0.30866752093E+02  0.36820908030E+02  0.00000000000E+00 0.  1.
         11    1    4    4    0    0 -0.13241639264E+02 -0.76361850561E+01 -0.19503664129E+01  0.15409615894E+02  0.51100000000E-03 0. -1.
        -11    1    4    4    0    0 -0.78784296988E+00 -0.99315172898E+00 -0.14395005984E+01  0.19181264650E+01  0.51100000000E-03 0.  1.
         12    1    4    4    0    0  0.20676952383E+01  0.24751946230E+02 -0.27476885081E+02  0.37039349610E+02  0.00000000000E+00 0. -1.
</event>
<event>
 8    1  0.1262344E-006  0.9118800E+02  0.7816164E-02  0.1184000E+00
        -11   -1    0    0    0    0  0.00000000000E+00  0.00000000000E+00  0.45593999997E+02  0.45594000000E+02  0.51100000000E-03 0. -1.
         11   -1    0    0    0    0 -0.00000000000E+00 -0.00000000000E+00 -0.45593999997E+02  0.45594000000E+02  0.51100000000E-03 0.  1.
         23    2    1    2    0    0 -0.17763568394E-14  0.00000000000E+00  0.17763568394E-14  0.91188000000E+02  0.91188000000E+02 0.  0.
    9900012    2    3    3    0    0 -0.15695637019E+02  0.32085096000E+02 -0.89427721949E+01  0.54367087718E+02  0.40000008070E+02 0.  0.
         12    1    3    3    0    0  0.15695637019E+02 -0.32085096000E+02  0.89427721949E+01  0.36820912282E+02  0.00000000000E+00 0. -1.
         11    1    4    4    0    0 -0.13893092036E+02 -0.22411400888E+01  0.13851478468E+01  0.14140698357E+02  0.51100000000E-03 0. -1.
        -11    1    4    4    0    0 -0.23506598757E+01  0.20709605870E+02  0.31268523478E+01  0.21075829355E+02  0.51100000000E-03 0.  1.
         12    1    4    4    0    0  0.54811489260E+00  0.13616630219E+02 -0.13454772390E+02  0.19150560005E+02  0.00000000000E+00 0. -1.
</event>
<event>
 8    1  0.1262344E-006  0.9118800E+02  0.7816164E-02  0.1184000E+00
        -11   -1    0    0    0    0  0.00000000000E+00  0.00000000000E+00  0.45593999997E+02  0.45594000000E+02  0.51100000000E-03 0.  1.
         11   -1    0    0    0    0 -0.00000000000E+00 -0.00000000000E+00 -0.45593999997E+02  0.45594000000E+02  0.51100000000E-03 0. -1.
         23    2    1    2    0    0 -0.35527136788E-14  0.17763568394E-14 -0.71054273576E-14  0.91188000000E+02  0.91188000000E+02 0.  0.
    9900012    2    3    3    0    0  0.15163857919E+02 -0.10147559942E+02  0.31982242815E+02  0.54367089973E+02  0.40000013211E+02 0.  0.
         12    1    3    3    0    0 -0.15163857919E+02  0.10147559942E+02 -0.31982242815E+02  0.36820910027E+02  0.00000000000E+00 0. -1.
         11    1    4    4    0    0 -0.47756361719E+01  0.55891792610E+01 -0.41158324289E+00  0.73630854053E+01  0.51100000000E-03 0. -1.
        -11    1    4    4    0    0  0.20774288294E+02 -0.20204844900E+02  0.24745976436E+02  0.38107350493E+02  0.51100000000E-03 0.  1.
        -12    1    4    4    0    0 -0.83479420339E+00  0.44681056968E+01  0.76478496218E+01  0.88966540743E+01  0.00000000000E+00 0.  1.
</event>
<event>
 8    1  0.1262344E-006  0.9118800E+02  0.7816164E-02  0.1184000E+00
        -11   -1    0    0    0    0  0.00000000000E+00  0.00000000000E+00  0.45593999997E+02  0.45594000000E+02  0.51100000000E-03 0. -1.
         11   -1    0    0    0    0 -0.00000000000E+00 -0.00000000000E+00 -0.45593999997E+02  0.45594000000E+02  0.51100000000E-03 0.  1.
         23    2    1    2    0    0  0.00000000000E+00  0.35527136788E-14  0.00000000000E+00  0.91188000000E+02  0.91188000000E+02 0.  0.
    9900012    2    3    3    0    0  0.10308499599E+02 -0.24714743486E+02  0.25272437830E+02  0.54367084430E+02  0.40000000575E+02 0.  0.
        -12    1    3    3    0    0 -0.10308499599E+02  0.24714743486E+02 -0.25272437830E+02  0.36820915570E+02  0.00000000000E+00 0.  1.
         11    1    4    4    0    0  0.87635703302E+00 -0.21470238526E+02  0.45235346561E+01  0.21959087187E+02  0.51100000000E-03 0. -1.
        -11    1    4    4    0    0  0.41169874821E+01 -0.18517943293E+01 -0.46150005684E+01  0.64557694099E+01  0.51100000000E-03 0.  1.
         12    1    4    4    0    0  0.53151550834E+01 -0.13927106304E+01  0.25363903742E+02  0.25952227833E+02  0.00000000000E+00 0. -1.
</event>
<event>
 8    1  0.1262344E-006  0.9118800E+02  0.7816164E-02  0.1184000E+00
        -11   -1    0    0    0    0  0.00000000000E+00  0.00000000000E+00  0.45593999997E+02  0.45594000000E+02  0.51100000000E-03 0. -1.
         11   -1    0    0    0    0 -0.00000000000E+00 -0.00000000000E+00 -0.45593999997E+02  0.45594000000E+02  0.51100000000E-03 0.  1.
         23    2    1    2    0    0  0.35527136788E-14  0.00000000000E+00 -0.35527136788E-14  0.91188000000E+02  0.91188000000E+02 0.  0.
    9900012    2    3    3    0    0  0.30529145048E+02 -0.11578657588E+02 -0.17020263196E+02  0.54367036295E+02  0.39999890841E+02 0.  0.
         12    1    3    3    0    0 -0.30529145048E+02  0.11578657588E+02  0.17020263196E+02  0.36820963705E+02  0.00000000000E+00 0. -1.
         11    1    4    4    0    0  0.23494759736E+00 -0.31223371084E+01  0.62694199758E+00  0.31933126877E+01  0.51100000000E-03 0. -1.
        -11    1    4    4    0    0  0.21630401775E+02 -0.11569348119E+02 -0.28062920275E+02  0.37272665473E+02  0.51100000000E-03 0.  1.
         12    1    4    4    0    0  0.86637956757E+01  0.31130276386E+01  0.10415715081E+02  0.13901058134E+02  0.00000000000E+00 0. -1.
</event>
<event>
 8    1  0.1262344E-006  0.9118800E+02  0.7816164E-02  0.1184000E+00
        -11   -1    0    0    0    0  0.00000000000E+00  0.00000000000E+00  0.45593999997E+02  0.45594000000E+02  0.51100000000E-03 0. -1.
         11   -1    0    0    0    0 -0.00000000000E+00 -0.00000000000E+00 -0.45593999997E+02  0.45594000000E+02  0.51100000000E-03 0.  1.
         23    2    1    2    0    0  0.00000000000E+00 -0.17763568394E-14 -0.17763568394E-14  0.91188000000E+02  0.91188000000E+02 0.  0.
    9900012    2    3    3    0    0 -0.33411146259E+02  0.12858187564E+02  0.86105466634E+01  0.54367092955E+02  0.40000020009E+02 0.  0.
        -12    1    3    3    0    0  0.33411146259E+02 -0.12858187564E+02 -0.86105466634E+01  0.36820907045E+02  0.00000000000E+00 0.  1.
         11    1    4    4    0    0 -0.27153151561E+02 -0.75706565858E+01 -0.31714427817E+01  0.28366644680E+02  0.51100000000E-03 0.  1.
        -11    1    4    4    0    0  0.23430625758E+01  0.45680557810E+01  0.25083540498E+01  0.57139230090E+01  0.51100000000E-03 0. -1.
        -12    1    4    4    0    0 -0.86010572740E+01  0.15860788369E+02  0.92736353953E+01  0.20286525266E+02  0.00000000000E+00 0.  1.
</event>
<event>
 8    1  0.1262344E-006  0.9118800E+02  0.7816164E-02  0.1184000E+00
        -11   -1    0    0    0    0  0.00000000000E+00  0.00000000000E+00  0.45593999997E+02  0.45594000000E+02  0.51100000000E-03 0. -1.
         11   -1    0    0    0    0 -0.00000000000E+00 -0.00000000000E+00 -0.45593999997E+02  0.45594000000E+02  0.51100000000E-03 0.  1.
         23    2    1    2    0    0  0.00000000000E+00 -0.71054273576E-14  0.88817841970E-15  0.91188000000E+02  0.91188000000E+02 0.  0.
    9900012    2    3    3    0    0 -0.33793187574E+01  0.36523691800E+02 -0.32216811497E+01  0.54367094425E+02  0.40000023361E+02 0.  0.
        -12    1    3    3    0    0  0.33793187574E+01 -0.36523691800E+02  0.32216811497E+01  0.36820905575E+02  0.00000000000E+00 0.  1.
         11    1    4    4    0    0  0.16267090202E+01 -0.98383669610E+00 -0.60498983804E+00  0.19950262771E+01  0.51100000000E-03 0.  1.
        -11    1    4    4    0    0 -0.17170694717E+02  0.21253245183E+02  0.92621888987E+01  0.28849979745E+02  0.51100000000E-03 0. -1.
         12    1    4    4    0    0  0.12164666939E+02  0.16254283313E+02 -0.11878880210E+02  0.23522088403E+02  0.00000000000E+00 0. -1.
</event>
<event>
 8    1  0.1262344E-006  0.9118800E+02  0.7816164E-02  0.1184000E+00
        -11   -1    0    0    0    0  0.00000000000E+00  0.00000000000E+00  0.45593999997E+02  0.45594000000E+02  0.51100000000E-03 0. -1.
         11   -1    0    0    0    0 -0.00000000000E+00 -0.00000000000E+00 -0.45593999997E+02  0.45594000000E+02  0.51100000000E-03 0.  1.
         23    2    1    2    0    0  0.00000000000E+00  0.00000000000E+00 -0.71054273576E-14  0.91188000000E+02  0.91188000000E+02 0.  0.
    9900012    2    3    3    0    0  0.17805978554E+02  0.69372118595E+01  0.31473829627E+02  0.54367085671E+02  0.40000003404E+02 0.  0.
        -12    1    3    3    0    0 -0.17805978554E+02 -0.69372118595E+01 -0.31473829627E+02  0.36820914329E+02  0.00000000000E+00 0.  1.
         11    1    4    4    0    0 -0.67823126242E+00 -0.71974278489E+01 -0.32416182721E+01  0.79228186000E+01  0.51100000000E-03 0. -1.
        -11    1    4    4    0    0  0.17908267656E+02  0.82538082158E+01  0.12248581364E+02  0.23213339833E+02  0.51100000000E-03 0.  1.
         12    1    4    4    0    0  0.57594216015E+00  0.58808314926E+01  0.22466866535E+02  0.23230927238E+02  0.00000000000E+00 0. -1.
</event>
<event>
 8    1  0.1262344E-006  0.9118800E+02  0.7816164E-02  0.1184000E+00
        -11   -1    0    0    0    0  0.00000000000E+00  0.00000000000E+00  0.45593999997E+02  0.45594000000E+02  0.51100000000E-03 0.  1.
         11   -1    0    0    0    0 -0.00000000000E+00 -0.00000000000E+00 -0.45593999997E+02  0.45594000000E+02  0.51100000000E-03 0. -1.
         23    2    1    2    0    0 -0.66613381478E-15  0.49960036108E-15  0.71054273576E-14  0.91188000000E+02  0.91188000000E+02 0.  0.
    9900012    2    3    3    0    0 -0.14399524786E+01 -0.32375035727E+00 -0.36791347977E+02  0.54367060802E+02  0.39999946711E+02 0.  0.
        -12    1    3    3    0    0  0.14399524786E+01  0.32375035727E+00  0.36791347977E+02  0.36820939198E+02  0.00000000000E+00 0.  1.
         11    1    4    4    0    0 -0.87456281621E+01 -0.50146094616E+01 -0.35396336214E+02  0.36803979916E+02  0.51100000000E-03 0. -1.
        -11    1    4    4    0    0 -0.45205616320E+01 -0.47833796741E+00  0.24666285094E+00  0.45524858597E+01  0.51100000000E-03 0.  1.
        -12    1    4    4    0    0  0.11826237315E+02  0.51691970718E+01 -0.16416746134E+01  0.13010595027E+02  0.00000000000E+00 0.  1.
</event>
<event>
 8    1  0.1262344E-006  0.9118800E+02  0.7816164E-02  0.1184000E+00
        -11   -1    0    0    0    0  0.00000000000E+00  0.00000000000E+00  0.45593999997E+02  0.45594000000E+02  0.51100000000E-03 0. -1.
         11   -1    0    0    0    0 -0.00000000000E+00 -0.00000000000E+00 -0.45593999997E+02  0.45594000000E+02  0.51100000000E-03 0.  1.
         23    2    1    2    0    0 -0.35527136788E-14  0.88817841970E-15  0.35527136788E-14  0.91188000000E+02  0.91188000000E+02 0.  0.
    9900012    2    3    3    0    0 -0.21834311478E+02  0.26466207943E+01  0.29530257502E+02  0.54367110989E+02  0.40000061123E+02 0.  0.
        -12    1    3    3    0    0  0.21834311478E+02 -0.26466207943E+01 -0.29530257502E+02  0.36820889011E+02  0.00000000000E+00 0.  1.
         11    1    4    4    0    0 -0.82049769857E+01  0.21149205409E+01  0.72716574678E+01  0.11165640995E+02  0.51100000000E-03 0. -1.
        -11    1    4    4    0    0  0.61827918917E+00  0.14677756658E+02  0.22604513647E+01  0.14863662076E+02  0.51100000000E-03 0.  1.
         12    1    4    4    0    0 -0.14247613682E+02 -0.14146056405E+02  0.19998148670E+02  0.28337807919E+02  0.00000000000E+00 0. -1.
</event>
<event>
 8    1  0.1262344E-006  0.9118800E+02  0.7816164E-02  0.1184000E+00
        -11   -1    0    0    0    0  0.00000000000E+00  0.00000000000E+00  0.45593999997E+02  0.45594000000E+02  0.51100000000E-03 0.  1.
         11   -1    0    0    0    0 -0.00000000000E+00 -0.00000000000E+00 -0.45593999997E+02  0.45594000000E+02  0.51100000000E-03 0. -1.
         23    2    1    2    0    0 -0.17763568394E-14  0.35527136788E-14 -0.35527136788E-14  0.91188000000E+02  0.91188000000E+02 0.  0.
    9900012    2    3    3    0    0  0.14196235220E+02  0.24702617243E+02 -0.23324381738E+02  0.54367093214E+02  0.40000020600E+02 0.  0.
        -12    1    3    3    0    0 -0.14196235220E+02 -0.24702617243E+02  0.23324381738E+02  0.36820906786E+02  0.00000000000E+00 0.  1.
         11    1    4    4    0    0  0.17970313623E+01 -0.27745233636E+00 -0.99791285760E+01  0.10143436741E+02  0.51100000000E-03 0.  1.
        -11    1    4    4    0    0  0.46571693065E+01  0.13054014423E+02  0.98595869961E+01  0.17009055661E+02  0.51100000000E-03 0. -1.
         12    1    4    4    0    0  0.77420345513E+01  0.11926055157E+02 -0.23204840158E+02  0.27214600812E+02  0.00000000000E+00 0. -1.
</event>
<event>
 8    1  0.1262344E-006  0.9118800E+02  0.7816164E-02  0.1184000E+00
        -11   -1    0    0    0    0  0.00000000000E+00  0.00000000000E+00  0.45593999997E+02  0.45594000000E+02  0.51100000000E-03 0. -1.
         11   -1    0    0    0    0 -0.00000000000E+00 -0.00000000000E+00 -0.45593999997E+02  0.45594000000E+02  0.51100000000E-03 0.  1.
         23    2    1    2    0    0  0.00000000000E+00  0.00000000000E+00  0.17763568394E-14  0.91188000000E+02  0.91188000000E+02 0.  0.
    9900012    2    3    3    0    0 -0.33736169937E+02 -0.88187441963E+01  0.11827088685E+02  0.54367089664E+02  0.40000012507E+02 0.  0.
        -12    1    3    3    0    0  0.33736169937E+02  0.88187441963E+01 -0.11827088685E+02  0.36820910336E+02  0.00000000000E+00 0.  1.
         11    1    4    4    0    0 -0.31970354965E+02 -0.20209442338E+02  0.15627164037E+02  0.40923506843E+02  0.51100000000E-03 0. -1.
        -11    1    4    4    0    0  0.19716373142E+01  0.59726286630E+01 -0.22632108518E+01  0.66844424200E+01  0.51100000000E-03 0.  1.
         12    1    4    4    0    0 -0.37374522863E+01  0.54180694787E+01 -0.15368645009E+01  0.67591404011E+01  0.00000000000E+00 0. -1.
</event>
<event>
 8    1  0.1262344E-006  0.9118800E+02  0.7816164E-02  0.1184000E+00
        -11   -1    0    0    0    0  0.00000000000E+00  0.00000000000E+00  0.45593999997E+02  0.45594000000E+02  0.51100000000E-03 0. -1.
         11   -1    0    0    0    0 -0.00000000000E+00 -0.00000000000E+00 -0.45593999997E+02  0.45594000000E+02  0.51100000000E-03 0.  1.
         23    2    1    2    0    0  0.66613381478E-15 -0.13322676296E-14  0.00000000000E+00  0.91188000000E+02  0.91188000000E+02 0.  0.
    9900012    2    3    3    0    0 -0.81401714693E+00  0.16629180982E+01  0.36774340354E+02  0.54367081639E+02  0.39999994212E+02 0.  0.
        -12    1    3    3    0    0  0.81401714693E+00 -0.16629180982E+01 -0.36774340354E+02  0.36820918361E+02  0.00000000000E+00 0.  1.
         11    1    4    4    0    0  0.30349777929E+01 -0.17614233618E+00  0.44470108924E-01  0.30404101989E+01  0.51100000000E-03 0. -1.
        -11    1    4    4    0    0  0.47987565745E+01  0.13106178185E+02  0.23831221966E+01  0.14159069282E+02  0.51100000000E-03 0.  1.
         12    1    4    4    0    0 -0.86477515143E+01 -0.11267117750E+02  0.34346748048E+02  0.37167602158E+02  0.00000000000E+00 0. -1.
</event>
<event>
 8    1  0.1262344E-006  0.9118800E+02  0.7816164E-02  0.1184000E+00
        -11   -1    0    0    0    0  0.00000000000E+00  0.00000000000E+00  0.45593999997E+02  0.45594000000E+02  0.51100000000E-03 0. -1.
         11   -1    0    0    0    0 -0.00000000000E+00 -0.00000000000E+00 -0.45593999997E+02  0.45594000000E+02  0.51100000000E-03 0.  1.
         23    2    1    2    0    0  0.00000000000E+00  0.00000000000E+00  0.00000000000E+00  0.91188000000E+02  0.91188000000E+02 0.  0.
    9900012    2    3    3    0    0  0.35045193181E+02  0.61744613392E+01  0.94599047616E+01  0.54367091048E+02  0.40000015663E+02 0.  0.
        -12    1    3    3    0    0 -0.35045193181E+02 -0.61744613392E+01 -0.94599047616E+01  0.36820908952E+02  0.00000000000E+00 0.  1.
         11    1    4    4    0    0  0.79586979789E+01  0.30996031183E+01  0.13060641543E+02  0.15605408383E+02  0.51100000000E-03 0. -1.
        -11    1    4    4    0    0  0.18037839170E+02  0.22252774869E+00  0.11161873820E+02  0.21213217294E+02  0.51100000000E-03 0.  1.
        -12    1    4    4    0    0  0.90486560321E+01  0.28523304722E+01 -0.14762610602E+02  0.17548465371E+02  0.00000000000E+00 0.  1.
</event>
<event>
 8    1  0.1262344E-006  0.9118800E+02  0.7816164E-02  0.1184000E+00
        -11   -1    0    0    0    0  0.00000000000E+00  0.00000000000E+00  0.45593999997E+02  0.45594000000E+02  0.51100000000E-03 0. -1.
         11   -1    0    0    0    0 -0.00000000000E+00 -0.00000000000E+00 -0.45593999997E+02  0.45594000000E+02  0.51100000000E-03 0.  1.
         23    2    1    2    0    0 -0.66613381478E-15  0.35527136788E-14  0.00000000000E+00  0.91188000000E+02  0.91188000000E+02 0.  0.
    9900012    2    3    3    0    0  0.18029271465E+01  0.31575326163E+02 -0.18855443775E+02  0.54367088434E+02  0.40000009703E+02 0.  0.
        -12    1    3    3    0    0 -0.18029271465E+01 -0.31575326163E+02  0.18855443775E+02  0.36820911566E+02  0.00000000000E+00 0.  1.
         11    1    4    4    0    0 -0.13640804699E+02  0.21441401479E+02 -0.12130236780E+02  0.28159330511E+02  0.51100000000E-03 0. -1.
        -11    1    4    4    0    0  0.48336867502E+01  0.12940348766E+02 -0.64096618493E+01  0.15228293373E+02  0.51100000000E-03 0.  1.
        -12    1    4    4    0    0  0.10610045096E+02 -0.28064240816E+01 -0.31554514563E+00  0.10979464550E+02  0.00000000000E+00 0.  1.
</event>
<event>
 8    1  0.1262344E-006  0.9118800E+02  0.7816164E-02  0.1184000E+00
        -11   -1    0    0    0    0  0.00000000000E+00  0.00000000000E+00  0.45593999997E+02  0.45594000000E+02  0.51100000000E-03 0.  1.
         11   -1    0    0    0    0 -0.00000000000E+00 -0.00000000000E+00 -0.45593999997E+02  0.45594000000E+02  0.51100000000E-03 0. -1.
         23    2    1    2    0    0  0.13322676296E-14  0.00000000000E+00  0.35527136788E-14  0.91188000000E+02  0.91188000000E+02 0.  0.
    9900012    2    3    3    0    0 -0.38098633051E+01  0.30398651928E+02 -0.20425146967E+02  0.54367085752E+02  0.40000003589E+02 0.  0.
        -12    1    3    3    0    0  0.38098633051E+01 -0.30398651928E+02  0.20425146967E+02  0.36820914248E+02  0.00000000000E+00 0.  1.
         11    1    4    4    0    0 -0.16464551312E+02  0.16696464678E+01 -0.37662065063E+01  0.16972138373E+02  0.51100000000E-03 0. -1.
        -11    1    4    4    0    0  0.23881863887E+01  0.19622525533E+01  0.15245500198E+01  0.34464651941E+01  0.51100000000E-03 0.  1.
        -12    1    4    4    0    0  0.10266501618E+02  0.26766752907E+02 -0.18183490480E+02  0.33948482185E+02  0.00000000000E+00 0.  1.
</event>
<event>
 8    1  0.1262344E-006  0.9118800E+02  0.7816164E-02  0.1184000E+00
        -11   -1    0    0    0    0  0.00000000000E+00  0.00000000000E+00  0.45593999997E+02  0.45594000000E+02  0.51100000000E-03 0.  1.
         11   -1    0    0    0    0 -0.00000000000E+00 -0.00000000000E+00 -0.45593999997E+02  0.45594000000E+02  0.51100000000E-03 0. -1.
         23    2    1    2    0    0  0.17763568394E-14  0.00000000000E+00  0.00000000000E+00  0.91188000000E+02  0.91188000000E+02 0.  0.
    9900012    2    3    3    0    0  0.10811942728E+02 -0.22987911119E+02 -0.26654028179E+02  0.54367090433E+02  0.40000014260E+02 0.  0.
        -12    1    3    3    0    0 -0.10811942728E+02  0.22987911119E+02  0.26654028179E+02  0.36820909567E+02  0.00000000000E+00 0.  1.
         11    1    4    4    0    0  0.27462255488E+01  0.55327296720E+01 -0.94554782656E+01  0.11294198594E+02  0.51100000000E-03 0.  1.
        -11    1    4    4    0    0  0.76204347038E+01  0.28343833412E+01 -0.33831327632E+01  0.88062671748E+01  0.51100000000E-03 0. -1.
        -12    1    4    4    0    0  0.44528247557E+00 -0.31355024132E+02 -0.13815417150E+02  0.34266624664E+02  0.00000000000E+00 0.  1.
</event>
<event>
 8    1  0.1262344E-006  0.9118800E+02  0.7816164E-02  0.1184000E+00
        -11   -1    0    0    0    0  0.00000000000E+00  0.00000000000E+00  0.45593999997E+02  0.45594000000E+02  0.51100000000E-03 0.  1.
         11   -1    0    0    0    0 -0.00000000000E+00 -0.00000000000E+00 -0.45593999997E+02  0.45594000000E+02  0.51100000000E-03 0. -1.
         23    2    1    2    0    0  0.35527136788E-14 -0.88817841970E-15 -0.35527136788E-14  0.91188000000E+02  0.91188000000E+02 0.  0.
    9900012    2    3    3    0    0  0.29044187620E+02 -0.56438011860E+01 -0.21917245456E+02  0.54367041638E+02  0.39999903022E+02 0.  0.
        -12    1    3    3    0    0 -0.29044187620E+02  0.56438011860E+01  0.21917245456E+02  0.36820958362E+02  0.00000000000E+00 0.  1.
         11    1    4    4    0    0  0.10332055731E+02  0.90340106698E+01 -0.69076718016E+01  0.15364916348E+02  0.51100000000E-03 0. -1.
        -11    1    4    4    0    0  0.23797298241E+02 -0.16647301682E+02 -0.16429257345E+02  0.33367117856E+02  0.51100000000E-03 0.  1.
         12    1    4    4    0    0 -0.50851663515E+01  0.19694898261E+01  0.14196836904E+01  0.56350074338E+01  0.00000000000E+00 0. -1.
</event>
<event>
 8    1  0.1262344E-006  0.9118800E+02  0.7816164E-02  0.1184000E+00
        -11   -1    0    0    0    0  0.00000000000E+00  0.00000000000E+00  0.45593999997E+02  0.45594000000E+02  0.51100000000E-03 0.  1.
         11   -1    0    0    0    0 -0.00000000000E+00 -0.00000000000E+00 -0.45593999997E+02  0.45594000000E+02  0.51100000000E-03 0. -1.
         23    2    1    2    0    0  0.22204460493E-14  0.00000000000E+00  0.00000000000E+00  0.91188000000E+02  0.91188000000E+02 0.  0.
    9900012    2    3    3    0    0 -0.29782780252E+01  0.24737767740E+02 -0.27110006307E+02  0.54367085635E+02  0.40000003322E+02 0.  0.
        -12    1    3    3    0    0  0.29782780252E+01 -0.24737767740E+02  0.27110006307E+02  0.36820914365E+02  0.00000000000E+00 0.  1.
         11    1    4    4    0    0  0.78982535007E+01  0.23542182955E+02 -0.19214583560E+02  0.31397722979E+02  0.51100000000E-03 0. -1.
        -11    1    4    4    0    0 -0.13713240473E+02 -0.19427104024E+00  0.77994665836E+00  0.13736776280E+02  0.51100000000E-03 0.  1.
         12    1    4    4    0    0  0.28367089475E+01  0.13898558254E+01 -0.86753694049E+01  0.92325863754E+01  0.00000000000E+00 0. -1.
</event>
<event>
 8    1  0.1262344E-006  0.9118800E+02  0.7816164E-02  0.1184000E+00
        -11   -1    0    0    0    0  0.00000000000E+00  0.00000000000E+00  0.45593999997E+02  0.45594000000E+02  0.51100000000E-03 0.  1.
         11   -1    0    0    0    0 -0.00000000000E+00 -0.00000000000E+00 -0.45593999997E+02  0.45594000000E+02  0.51100000000E-03 0. -1.
         23    2    1    2    0    0  0.00000000000E+00  0.00000000000E+00  0.00000000000E+00  0.91188000000E+02  0.91188000000E+02 0.  0.
    9900012    2    3    3    0    0 -0.13001075091E+02 -0.28344452553E+01 -0.34332432413E+02  0.54367109886E+02  0.40000058606E+02 0.  0.
        -12    1    3    3    0    0  0.13001075091E+02  0.28344452553E+01  0.34332432413E+02  0.36820890114E+02  0.00000000000E+00 0.  1.
         11    1    4    4    0    0 -0.99702362077E+01 -0.68588631235E+01 -0.21556450577E+02  0.24721047210E+02  0.51100000000E-03 0. -1.
        -11    1    4    4    0    0 -0.85970962180E+01 -0.76708000601E+01 -0.98709595985E-01  0.11522195138E+02  0.51100000000E-03 0.  1.
        -12    1    4    4    0    0  0.55662573348E+01  0.11695217928E+02 -0.12677272240E+02  0.18123867538E+02  0.00000000000E+00 0.  1.
</event>
<event>
 8    1  0.1262344E-006  0.9118800E+02  0.7816164E-02  0.1184000E+00
        -11   -1    0    0    0    0  0.00000000000E+00  0.00000000000E+00  0.45593999997E+02  0.45594000000E+02  0.51100000000E-03 0.  1.
         11   -1    0    0    0    0 -0.00000000000E+00 -0.00000000000E+00 -0.45593999997E+02  0.45594000000E+02  0.51100000000E-03 0. -1.
         23    2    1    2    0    0 -0.35527136788E-14  0.00000000000E+00  0.35527136788E-14  0.91188000000E+02  0.91188000000E+02 0.  0.
    9900012    2    3    3    0    0  0.16584816989E+02 -0.23830767359E+02 -0.22645490396E+02  0.54367083895E+02  0.39999999356E+02 0.  0.
        -12    1    3    3    0    0 -0.16584816989E+02  0.23830767359E+02  0.22645490396E+02  0.36820916105E+02  0.00000000000E+00 0.  1.
         11    1    4    4    0    0 -0.66671182586E+01 -0.80485140473E+01 -0.82596724969E+01  0.13321082323E+02  0.51100000000E-03 0. -1.
        -11    1    4    4    0    0  0.57795999746E+01  0.73408249402E+01 -0.49073623057E+01  0.10553373476E+02  0.51100000000E-03 0.  1.
         12    1    4    4    0    0  0.17472335273E+02 -0.23123078252E+02 -0.94784555936E+01  0.30492628096E+02  0.00000000000E+00 0. -1.
</event>
<event>
 8    1  0.1262344E-006  0.9118800E+02  0.7816164E-02  0.1184000E+00
        -11   -1    0    0    0    0  0.00000000000E+00  0.00000000000E+00  0.45593999997E+02  0.45594000000E+02  0.51100000000E-03 0. -1.
         11   -1    0    0    0    0 -0.00000000000E+00 -0.00000000000E+00 -0.45593999997E+02  0.45594000000E+02  0.51100000000E-03 0.  1.
         23    2    1    2    0    0 -0.17763568394E-14  0.71054273576E-14  0.17763568394E-14  0.91188000000E+02  0.91188000000E+02 0.  0.
    9900012    2    3    3    0    0  0.83443120716E+01  0.32442310806E+02 -0.15285581092E+02  0.54367081167E+02  0.39999993136E+02 0.  0.
         12    1    3    3    0    0 -0.83443120716E+01 -0.32442310806E+02  0.15285581092E+02  0.36820918833E+02  0.00000000000E+00 0. -1.
         11    1    4    4    0    0 -0.51568209610E+01  0.34265210131E+01  0.41605976768E+01  0.74595188830E+01  0.51100000000E-03 0. -1.
        -11    1    4    4    0    0  0.19150771099E+02  0.80189187186E+01 -0.11659154717E+02  0.23811572398E+02  0.51100000000E-03 0.  1.
        -12    1    4    4    0    0 -0.56496380665E+01  0.20996871075E+02 -0.77870240513E+01  0.23095989885E+02  0.00000000000E+00 0.  1.
</event>
<event>
 8    1  0.1262344E-006  0.9118800E+02  0.7816164E-02  0.1184000E+00
        -11   -1    0    0    0    0  0.00000000000E+00  0.00000000000E+00  0.45593999997E+02  0.45594000000E+02  0.51100000000E-03 0.  1.
         11   -1    0    0    0    0 -0.00000000000E+00 -0.00000000000E+00 -0.45593999997E+02  0.45594000000E+02  0.51100000000E-03 0. -1.
         23    2    1    2    0    0  0.00000000000E+00 -0.17763568394E-14  0.35527136788E-14  0.91188000000E+02  0.91188000000E+02 0.  0.
    9900012    2    3    3    0    0 -0.20491438224E+02 -0.13281339929E+02  0.27558763150E+02  0.54367102983E+02  0.40000042870E+02 0.  0.
         12    1    3    3    0    0  0.20491438224E+02  0.13281339929E+02 -0.27558763150E+02  0.36820897017E+02  0.00000000000E+00 0. -1.
         11    1    4    4    0    0 -0.13224082388E+02 -0.35259145178E+01 -0.14148936751E+01  0.13759009869E+02  0.51100000000E-03 0. -1.
        -11    1    4    4    0    0 -0.15819454106E+02 -0.47854966139E+01  0.24954658690E+02  0.29931439936E+02  0.51100000000E-03 0.  1.
        -12    1    4    4    0    0  0.85520982700E+01 -0.49699287973E+01  0.40189981345E+01  0.10676653178E+02  0.00000000000E+00 0.  1.
</event>
<event>
 8    1  0.1262344E-006  0.9118800E+02  0.7816164E-02  0.1184000E+00
        -11   -1    0    0    0    0  0.00000000000E+00  0.00000000000E+00  0.45593999997E+02  0.45594000000E+02  0.51100000000E-03 0.  1.
         11   -1    0    0    0    0 -0.00000000000E+00 -0.00000000000E+00 -0.45593999997E+02  0.45594000000E+02  0.51100000000E-03 0. -1.
         23    2    1    2    0    0  0.88817841970E-15  0.00000000000E+00  0.00000000000E+00  0.91188000000E+02  0.91188000000E+02 0.  0.
    9900012    2    3    3    0    0 -0.58892981616E+01  0.34535348815E+02  0.11331669572E+02  0.54367070002E+02  0.39999967684E+02 0.  0.
         12    1    3    3    0    0  0.58892981616E+01 -0.34535348815E+02 -0.11331669572E+02  0.36820929998E+02  0.00000000000E+00 0. -1.
         11    1    4    4    0    0 -0.72937669011E+01  0.29507211393E+02  0.74232070756E+00  0.30404368109E+02  0.51100000000E-03 0. -1.
        -11    1    4    4    0    0 -0.36593250073E+01  0.11782403018E+02  0.92395239115E+01  0.15413775747E+02  0.51100000000E-03 0.  1.
        -12    1    4    4    0    0  0.50637937468E+01 -0.67542655965E+01  0.13498249530E+01  0.85489261467E+01  0.00000000000E+00 0.  1.
</event>
<event>
 8    1  0.1262344E-006  0.9118800E+02  0.7816164E-02  0.1184000E+00
        -11   -1    0    0    0    0  0.00000000000E+00  0.00000000000E+00  0.45593999997E+02  0.45594000000E+02  0.51100000000E-03 0.  1.
         11   -1    0    0    0    0 -0.00000000000E+00 -0.00000000000E+00 -0.45593999997E+02  0.45594000000E+02  0.51100000000E-03 0. -1.
         23    2    1    2    0    0 -0.44408920985E-15  0.35527136788E-14  0.00000000000E+00  0.91188000000E+02  0.91188000000E+02 0.  0.
    9900012    2    3    3    0    0  0.26704772122E+01  0.27943855842E+02  0.23828337893E+02  0.54367079118E+02  0.39999988465E+02 0.  0.
         12    1    3    3    0    0 -0.26704772122E+01 -0.27943855842E+02 -0.23828337893E+02  0.36820920882E+02  0.00000000000E+00 0. -1.
         11    1    4    4    0    0 -0.50211631795E+00 -0.54129809016E+01 -0.24492159965E+01  0.59624778655E+01  0.51100000000E-03 0. -1.
        -11    1    4    4    0    0  0.12452056045E+02  0.14009534081E+02  0.86889330588E+01  0.20659581382E+02  0.51100000000E-03 0.  1.
        -12    1    4    4    0    0 -0.92794625151E+01  0.19347302662E+02  0.17588620831E+02  0.27745019870E+02  0.00000000000E+00 0.  1.
</event>
<event>
 8    1  0.1262344E-006  0.9118800E+02  0.7816164E-02  0.1184000E+00
        -11   -1    0    0    0    0  0.00000000000E+00  0.00000000000E+00  0.45593999997E+02  0.45594000000E+02  0.51100000000E-03 0. -1.
         11   -1    0    0    0    0 -0.00000000000E+00 -0.00000000000E+00 -0.45593999997E+02  0.45594000000E+02  0.51100000000E-03 0.  1.
         23    2    1    2    0    0  0.00000000000E+00  0.00000000000E+00 -0.88817841970E-15  0.91188000000E+02  0.91188000000E+02 0.  0.
    9900012    2    3    3    0    0 -0.11487504762E+02  0.34163615290E+02  0.75275739885E+01  0.54367085488E+02  0.40000002988E+02 0.  0.
         12    1    3    3    0    0  0.11487504762E+02 -0.34163615290E+02 -0.75275739885E+01  0.36820914512E+02  0.00000000000E+00 0. -1.
         11    1    4    4    0    0 -0.77976774901E+01  0.12454913590E+02  0.15316845989E+01  0.14774122808E+02  0.51100000000E-03 0. -1.
        -11    1    4    4    0    0  0.66632016077E+01  0.26292860810E+02  0.80172053200E+00  0.27135871854E+02  0.51100000000E-03 0.  1.
        -12    1    4    4    0    0 -0.10353028879E+02 -0.45841591098E+01  0.51941688576E+01  0.12457090826E+02  0.00000000000E+00 0.  1.
</event>
<event>
 8    1  0.1262344E-006  0.9118800E+02  0.7816164E-02  0.1184000E+00
        -11   -1    0    0    0    0  0.00000000000E+00  0.00000000000E+00  0.45593999997E+02  0.45594000000E+02  0.51100000000E-03 0.  1.
         11   -1    0    0    0    0 -0.00000000000E+00 -0.00000000000E+00 -0.45593999997E+02  0.45594000000E+02  0.51100000000E-03 0. -1.
         23    2    1    2    0    0  0.35527136788E-14 -0.35527136788E-14  0.00000000000E+00  0.91188000000E+02  0.91188000000E+02 0.  0.
    9900012    2    3    3    0    0 -0.22830146661E+02  0.17918051645E+02  0.22660662204E+02  0.54367112140E+02  0.40000063745E+02 0.  0.
         12    1    3    3    0    0  0.22830146661E+02 -0.17918051645E+02 -0.22660662204E+02  0.36820887860E+02  0.00000000000E+00 0. -1.
         11    1    4    4    0    0 -0.30853629905E+01  0.61841885115E+01 -0.69639346302E+01  0.98112200120E+01  0.51100000000E-03 0. -1.
        -11    1    4    4    0    0  0.30353171426E+01  0.58956861366E+01 -0.12730110510E+00  0.66323804935E+01  0.51100000000E-03 0.  1.
        -12    1    4    4    0    0 -0.22780100813E+02  0.58381769968E+01  0.29751897939E+02  0.37923511634E+02  0.00000000000E+00 0.  1.
</event>
<event>
 8    1  0.1262344E-006  0.9118800E+02  0.7816164E-02  0.1184000E+00
        -11   -1    0    0    0    0  0.00000000000E+00  0.00000000000E+00  0.45593999997E+02  0.45594000000E+02  0.51100000000E-03 0.  1.
         11   -1    0    0    0    0 -0.00000000000E+00 -0.00000000000E+00 -0.45593999997E+02  0.45594000000E+02  0.51100000000E-03 0. -1.
         23    2    1    2    0    0 -0.26645352591E-14 -0.35527136788E-14  0.00000000000E+00  0.91188000000E+02  0.91188000000E+02 0.  0.
    9900012    2    3    3    0    0 -0.14640022124E+01 -0.24070156536E+02 -0.27825621342E+02  0.54367069251E+02  0.39999965972E+02 0.  0.
        -12    1    3    3    0    0  0.14640022124E+01  0.24070156536E+02  0.27825621342E+02  0.36820930749E+02  0.00000000000E+00 0.  1.
         11    1    4    4    0    0 -0.60881960961E+01 -0.13730438005E+02 -0.27960539604E+02  0.31739294805E+02  0.51100000000E-03 0. -1.
        -11    1    4    4    0    0  0.12131234186E+02 -0.64822945731E+01  0.22235038581E+01  0.13933088512E+02  0.51100000000E-03 0.  1.
        -12    1    4    4    0    0 -0.75070403028E+01 -0.38574239579E+01 -0.20885855957E+01  0.86946859339E+01  0.00000000000E+00 0.  1.
</event>
<event>
 8    1  0.1262344E-006  0.9118800E+02  0.7816164E-02  0.1184000E+00
        -11   -1    0    0    0    0  0.00000000000E+00  0.00000000000E+00  0.45593999997E+02  0.45594000000E+02  0.51100000000E-03 0. -1.
         11   -1    0    0    0    0 -0.00000000000E+00 -0.00000000000E+00 -0.45593999997E+02  0.45594000000E+02  0.51100000000E-03 0.  1.
         23    2    1    2    0    0  0.00000000000E+00  0.00000000000E+00  0.00000000000E+00  0.91188000000E+02  0.91188000000E+02 0.  0.
    9900012    2    3    3    0    0 -0.15072078749E+02 -0.33457430874E+02  0.30350634385E+01  0.54367097668E+02  0.40000030753E+02 0.  0.
        -12    1    3    3    0    0  0.15072078749E+02  0.33457430874E+02 -0.30350634385E+01  0.36820902332E+02  0.00000000000E+00 0.  1.
         11    1    4    4    0    0 -0.44465470543E+01 -0.17696405114E+02  0.15112261198E+02  0.23692086727E+02  0.51100000000E-03 0. -1.
        -11    1    4    4    0    0  0.24465006475E+01 -0.10725279227E+02 -0.12511316200E+02  0.16659832330E+02  0.51100000000E-03 0.  1.
        -12    1    4    4    0    0 -0.13072032342E+02 -0.50357465322E+01  0.43411844079E+00  0.14015178611E+02  0.00000000000E+00 0.  1.
</event>
<event>
 8    1  0.1262344E-006  0.9118800E+02  0.7816164E-02  0.1184000E+00
        -11   -1    0    0    0    0  0.00000000000E+00  0.00000000000E+00  0.45593999997E+02  0.45594000000E+02  0.51100000000E-03 0.  1.
         11   -1    0    0    0    0 -0.00000000000E+00 -0.00000000000E+00 -0.45593999997E+02  0.45594000000E+02  0.51100000000E-03 0. -1.
         23    2    1    2    0    0  0.00000000000E+00 -0.17763568394E-14  0.00000000000E+00  0.91188000000E+02  0.91188000000E+02 0.  0.
    9900012    2    3    3    0    0  0.15724501991E+02  0.55194870244E+01  0.32833751769E+02  0.54367082642E+02  0.39999996498E+02 0.  0.
         12    1    3    3    0    0 -0.15724501991E+02 -0.55194870244E+01 -0.32833751769E+02  0.36820917358E+02  0.00000000000E+00 0. -1.
         11    1    4    4    0    0 -0.78118684124E+01  0.34454252546E+01  0.75847869284E+01  0.11420386871E+02  0.51100000000E-03 0. -1.
        -11    1    4    4    0    0  0.31262592117E+01 -0.10149437389E+02  0.51511771970E+01  0.11803355572E+02  0.51100000000E-03 0.  1.
        -12    1    4    4    0    0  0.20410111191E+02  0.12223499159E+02  0.20097787644E+02  0.31143340198E+02  0.00000000000E+00 0.  1.
</event>
<event>
 8    1  0.1262344E-006  0.9118800E+02  0.7816164E-02  0.1184000E+00
        -11   -1    0    0    0    0  0.00000000000E+00  0.00000000000E+00  0.45593999997E+02  0.45594000000E+02  0.51100000000E-03 0. -1.
         11   -1    0    0    0    0 -0.00000000000E+00 -0.00000000000E+00 -0.45593999997E+02  0.45594000000E+02  0.51100000000E-03 0.  1.
         23    2    1    2    0    0 -0.88817841970E-15  0.00000000000E+00  0.00000000000E+00  0.91188000000E+02  0.91188000000E+02 0.  0.
    9900012    2    3    3    0    0  0.68205739078E+01 -0.25072883405E+02  0.26088499748E+02  0.54367088417E+02  0.40000009665E+02 0.  0.
        -12    1    3    3    0    0 -0.68205739078E+01  0.25072883405E+02 -0.26088499748E+02  0.36820911583E+02  0.00000000000E+00 0.  1.
         11    1    4    4    0    0 -0.17121858199E+01 -0.23278551024E+02  0.11010488414E+02  0.25808009870E+02  0.51100000000E-03 0. -1.
        -11    1    4    4    0    0 -0.43433448751E+01  0.72712204369E+01  0.45244574011E+01  0.96023958668E+01  0.51100000000E-03 0.  1.
         12    1    4    4    0    0  0.12876104603E+02 -0.90655528183E+01  0.10553553933E+02  0.18956682681E+02  0.00000000000E+00 0. -1.
</event>
<event>
 8    1  0.1262344E-006  0.9118800E+02  0.7816164E-02  0.1184000E+00
        -11   -1    0    0    0    0  0.00000000000E+00  0.00000000000E+00  0.45593999997E+02  0.45594000000E+02  0.51100000000E-03 0. -1.
         11   -1    0    0    0    0 -0.00000000000E+00 -0.00000000000E+00 -0.45593999997E+02  0.45594000000E+02  0.51100000000E-03 0.  1.
         23    2    1    2    0    0  0.00000000000E+00  0.88817841970E-15 -0.35527136788E-14  0.91188000000E+02  0.91188000000E+02 0.  0.
    9900012    2    3    3    0    0  0.23389544193E+02 -0.49229739643E+01  0.28008401124E+02  0.54367122990E+02  0.40000088481E+02 0.  0.
        -12    1    3    3    0    0 -0.23389544193E+02  0.49229739643E+01 -0.28008401124E+02  0.36820877010E+02  0.00000000000E+00 0.  1.
         11    1    4    4    0    0  0.32736926970E+02 -0.41755019979E+01  0.19647841824E+02  0.38408057657E+02  0.51100000000E-03 0.  1.
        -11    1    4    4    0    0 -0.21608084182E+01  0.27951864442E+01 -0.96674759539E+00  0.36628897680E+01  0.51100000000E-03 0. -1.
        -12    1    4    4    0    0 -0.71865743582E+01 -0.35426584106E+01  0.93273068956E+01  0.12296175566E+02  0.00000000000E+00 0.  1.
</event>
<event>
 8    1  0.1262344E-006  0.9118800E+02  0.7816164E-02  0.1184000E+00
        -11   -1    0    0    0    0  0.00000000000E+00  0.00000000000E+00  0.45593999997E+02  0.45594000000E+02  0.51100000000E-03 0. -1.
         11   -1    0    0    0    0 -0.00000000000E+00 -0.00000000000E+00 -0.45593999997E+02  0.45594000000E+02  0.51100000000E-03 0.  1.
         23    2    1    2    0    0  0.00000000000E+00  0.00000000000E+00  0.35527136788E-14  0.91188000000E+02  0.91188000000E+02 0.  0.
    9900012    2    3    3    0    0  0.18698176467E+02 -0.96932369587E+01 -0.30202635720E+02  0.54367084064E+02  0.39999999741E+02 0.  0.
         12    1    3    3    0    0 -0.18698176467E+02  0.96932369587E+01  0.30202635720E+02  0.36820915936E+02  0.00000000000E+00 0. -1.
         11    1    4    4    0    0  0.18087825248E+02 -0.32726809192E+01 -0.18394081948E+02  0.26004271064E+02  0.51100000000E-03 0.  1.
        -11    1    4    4    0    0  0.11388517560E+02 -0.43591891588E+00 -0.11261967460E+02  0.16022492592E+02  0.51100000000E-03 0. -1.
         12    1    4    4    0    0 -0.10778166341E+02 -0.59846371237E+01 -0.54658631200E+00  0.12340320408E+02  0.00000000000E+00 0. -1.
</event>
<event>
 8    1  0.1262344E-006  0.9118800E+02  0.7816164E-02  0.1184000E+00
        -11   -1    0    0    0    0  0.00000000000E+00  0.00000000000E+00  0.45593999997E+02  0.45594000000E+02  0.51100000000E-03 0.  1.
         11   -1    0    0    0    0 -0.00000000000E+00 -0.00000000000E+00 -0.45593999997E+02  0.45594000000E+02  0.51100000000E-03 0. -1.
         23    2    1    2    0    0  0.35527136788E-14 -0.71054273576E-14  0.17763568394E-14  0.91188000000E+02  0.91188000000E+02 0.  0.
    9900012    2    3    3    0    0  0.18140547735E+02 -0.29207674258E+02  0.13176230819E+02  0.54367071627E+02  0.39999971388E+02 0.  0.
        -12    1    3    3    0    0 -0.18140547735E+02  0.29207674258E+02 -0.13176230819E+02  0.36820928373E+02  0.00000000000E+00 0.  1.
         11    1    4    4    0    0  0.23805838752E+02 -0.14523078458E+02  0.56521564347E+01  0.28453200860E+02  0.51100000000E-03 0. -1.
        -11    1    4    4    0    0 -0.77844524951E+01 -0.14233004859E+00  0.80625441486E+01  0.11208147791E+02  0.51100000000E-03 0.  1.
        -12    1    4    4    0    0  0.21191614784E+01 -0.14542265751E+02 -0.53846976452E+00  0.14705722976E+02  0.00000000000E+00 0.  1.
</event>
<event>
 8    1  0.1262344E-006  0.9118800E+02  0.7816164E-02  0.1184000E+00
        -11   -1    0    0    0    0  0.00000000000E+00  0.00000000000E+00  0.45593999997E+02  0.45594000000E+02  0.51100000000E-03 0.  1.
         11   -1    0    0    0    0 -0.00000000000E+00 -0.00000000000E+00 -0.45593999997E+02  0.45594000000E+02  0.51100000000E-03 0. -1.
         23    2    1    2    0    0  0.35527136788E-14  0.00000000000E+00  0.00000000000E+00  0.91188000000E+02  0.91188000000E+02 0.  0.
    9900012    2    3    3    0    0  0.22105907074E+02 -0.25849749757E+02  0.14103165583E+02  0.54367082446E+02  0.39999996053E+02 0.  0.
         12    1    3    3    0    0 -0.22105907074E+02  0.25849749757E+02 -0.14103165583E+02  0.36820917554E+02  0.00000000000E+00 0. -1.
         11    1    4    4    0    0  0.42146732099E+01 -0.26435782022E+01  0.12609020950E+02  0.13555050187E+02  0.51100000000E-03 0.  1.
        -11    1    4    4    0    0  0.87559151321E+01 -0.23939683228E+02  0.10860461939E+02  0.27707834932E+02  0.51100000000E-03 0. -1.
         12    1    4    4    0    0  0.91353187316E+01  0.73351167318E+00 -0.93663173063E+01  0.13104197327E+02  0.00000000000E+00 0. -1.
</event>
<event>
 8    1  0.1262344E-006  0.9118800E+02  0.7816164E-02  0.1184000E+00
        -11   -1    0    0    0    0  0.00000000000E+00  0.00000000000E+00  0.45593999997E+02  0.45594000000E+02  0.51100000000E-03 0. -1.
         11   -1    0    0    0    0 -0.00000000000E+00 -0.00000000000E+00 -0.45593999997E+02  0.45594000000E+02  0.51100000000E-03 0.  1.
         23    2    1    2    0    0 -0.11102230246E-15  0.00000000000E+00 -0.17763568394E-14  0.91188000000E+02  0.91188000000E+02 0.  0.
    9900012    2    3    3    0    0  0.64025200725E+00 -0.34852097017E+02 -0.11861800141E+02  0.54367069923E+02  0.39999967503E+02 0.  0.
         12    1    3    3    0    0 -0.64025200725E+00  0.34852097017E+02  0.11861800141E+02  0.36820930077E+02  0.00000000000E+00 0. -1.
         11    1    4    4    0    0  0.71626291627E+01  0.49340194867E+01 -0.48570159366E+01  0.99618476643E+01  0.51100000000E-03 0. -1.
        -11    1    4    4    0    0  0.44174771493E+01 -0.27036549780E+01 -0.10947855753E+01  0.52936197750E+01  0.51100000000E-03 0.  1.
        -12    1    4    4    0    0 -0.10939854305E+02 -0.37082461526E+02 -0.59099986295E+01  0.39111602484E+02  0.00000000000E+00 0.  1.
</event>
<event>
 8    1  0.1262344E-006  0.9118800E+02  0.7816164E-02  0.1184000E+00
        -11   -1    0    0    0    0  0.00000000000E+00  0.00000000000E+00  0.45593999997E+02  0.45594000000E+02  0.51100000000E-03 0.  1.
         11   -1    0    0    0    0 -0.00000000000E+00 -0.00000000000E+00 -0.45593999997E+02  0.45594000000E+02  0.51100000000E-03 0. -1.
         23    2    1    2    0    0 -0.17763568394E-14  0.00000000000E+00 -0.71054273576E-14  0.91188000000E+02  0.91188000000E+02 0.  0.
    9900012    2    3    3    0    0 -0.96604254762E+01 -0.11289364815E+02 -0.33689815728E+02  0.54367119210E+02  0.40000079864E+02 0.  0.
        -12    1    3    3    0    0  0.96604254762E+01  0.11289364815E+02  0.33689815728E+02  0.36820880790E+02  0.00000000000E+00 0.  1.
         11    1    4    4    0    0 -0.11608607577E+02  0.26017348970E+01 -0.15719865828E+02  0.19714029935E+02  0.51100000000E-03 0. -1.
        -11    1    4    4    0    0 -0.75847871478E+01  0.13319804142E+01  0.18348355915E+01  0.79164253176E+01  0.51100000000E-03 0.  1.
         12    1    4    4    0    0  0.95329692484E+01 -0.15223080127E+02 -0.19804785492E+02  0.26736663958E+02  0.00000000000E+00 0. -1.
</event>
<event>
 8    1  0.1262344E-006  0.9118800E+02  0.7816164E-02  0.1184000E+00
        -11   -1    0    0    0    0  0.00000000000E+00  0.00000000000E+00  0.45593999997E+02  0.45594000000E+02  0.51100000000E-03 0. -1.
         11   -1    0    0    0    0 -0.00000000000E+00 -0.00000000000E+00 -0.45593999997E+02  0.45594000000E+02  0.51100000000E-03 0.  1.
         23    2    1    2    0    0  0.00000000000E+00  0.00000000000E+00  0.00000000000E+00  0.91188000000E+02  0.91188000000E+02 0.  0.
    9900012    2    3    3    0    0  0.28197068903E+02  0.17726625100E+02  0.15699407656E+02  0.54367091091E+02  0.40000015760E+02 0.  0.
        -12    1    3    3    0    0 -0.28197068903E+02 -0.17726625100E+02 -0.15699407656E+02  0.36820908909E+02  0.00000000000E+00 0.  1.
         11    1    4    4    0    0  0.51961842663E+01  0.19383747521E+02  0.43492465379E+00  0.20072846300E+02  0.51100000000E-03 0. -1.
        -11    1    4    4    0    0  0.10637203185E+02 -0.10928650958E+01  0.18618971648E+02  0.21471156261E+02  0.51100000000E-03 0.  1.
         12    1    4    4    0    0  0.12363681452E+02 -0.56425732472E+00 -0.33544886456E+01  0.12823088530E+02  0.00000000000E+00 0. -1.
</event>
<event>
 8    1  0.1262344E-006  0.9118800E+02  0.7816164E-02  0.1184000E+00
        -11   -1    0    0    0    0  0.00000000000E+00  0.00000000000E+00  0.45593999997E+02  0.45594000000E+02  0.51100000000E-03 0.  1.
         11   -1    0    0    0    0 -0.00000000000E+00 -0.00000000000E+00 -0.45593999997E+02  0.45594000000E+02  0.51100000000E-03 0. -1.
         23    2    1    2    0    0 -0.88817841970E-15  0.00000000000E+00  0.00000000000E+00  0.91188000000E+02  0.91188000000E+02 0.  0.
    9900012    2    3    3    0    0  0.54201930620E+01  0.55872083676E+01 -0.35988668318E+02  0.54367086955E+02  0.40000006332E+02 0.  0.
        -12    1    3    3    0    0 -0.54201930620E+01 -0.55872083676E+01  0.35988668318E+02  0.36820913045E+02  0.00000000000E+00 0.  1.
         11    1    4    4    0    0  0.82627775082E+00  0.16809892720E+01 -0.18610393447E+02  0.18704416708E+02  0.51100000000E-03 0. -1.
        -11    1    4    4    0    0  0.80723289751E+00 -0.12917572857E+02 -0.31867300197E+01  0.13329312134E+02  0.51100000000E-03 0.  1.
        -12    1    4    4    0    0  0.37866824136E+01  0.16823791953E+02 -0.14191544851E+02  0.22333358114E+02  0.00000000000E+00 0.  1.
</event>
<event>
 8    1  0.1262344E-006  0.9118800E+02  0.7816164E-02  0.1184000E+00
        -11   -1    0    0    0    0  0.00000000000E+00  0.00000000000E+00  0.45593999997E+02  0.45594000000E+02  0.51100000000E-03 0. -1.
         11   -1    0    0    0    0 -0.00000000000E+00 -0.00000000000E+00 -0.45593999997E+02  0.45594000000E+02  0.51100000000E-03 0.  1.
         23    2    1    2    0    0  0.00000000000E+00  0.35527136788E-14  0.00000000000E+00  0.91188000000E+02  0.91188000000E+02 0.  0.
    9900012    2    3    3    0    0  0.49382215534E+01 -0.20984990706E+02 -0.29849792331E+02  0.54367272560E+02  0.40000429452E+02 0.  0.
         12    1    3    3    0    0 -0.49382215534E+01  0.20984990706E+02  0.29849792331E+02  0.36820727440E+02  0.00000000000E+00 0. -1.
         11    1    4    4    0    0  0.37355552340E+01 -0.54808040648E+01 -0.10716984872E+02  0.12603465837E+02  0.51100000000E-03 0. -1.
        -11    1    4    4    0    0 -0.10706396291E+02 -0.21244535546E+02 -0.13844267497E+02  0.27524915166E+02  0.51100000000E-03 0.  1.
         12    1    4    4    0    0  0.11909062611E+02  0.57403489049E+01 -0.52885399622E+01  0.14238891556E+02  0.00000000000E+00 0. -1.
</event>
<event>
 8    1  0.1262344E-006  0.9118800E+02  0.7816164E-02  0.1184000E+00
        -11   -1    0    0    0    0  0.00000000000E+00  0.00000000000E+00  0.45593999997E+02  0.45594000000E+02  0.51100000000E-03 0. -1.
         11   -1    0    0    0    0 -0.00000000000E+00 -0.00000000000E+00 -0.45593999997E+02  0.45594000000E+02  0.51100000000E-03 0.  1.
         23    2    1    2    0    0 -0.17763568394E-14  0.00000000000E+00  0.00000000000E+00  0.91188000000E+02  0.91188000000E+02 0.  0.
    9900012    2    3    3    0    0 -0.14972429031E+02 -0.49022497394E+01 -0.33280275532E+02  0.54367049129E+02  0.39999920098E+02 0.  0.
         12    1    3    3    0    0  0.14972429031E+02  0.49022497394E+01  0.33280275532E+02  0.36820950871E+02  0.00000000000E+00 0. -1.
         11    1    4    4    0    0  0.41410249592E+00 -0.10562436260E+02 -0.20450070567E+02  0.23020467568E+02  0.51100000000E-03 0.  1.
        -11    1    4    4    0    0 -0.29512182508E+01 -0.87272788974E+01 -0.66087424110E+01  0.11338014052E+02  0.51100000000E-03 0. -1.
         12    1    4    4    0    0 -0.12435313276E+02  0.14387465418E+02 -0.62214625542E+01  0.20008567509E+02  0.00000000000E+00 0. -1.
</event>
<event>
 8    1  0.1262344E-006  0.9118800E+02  0.7816164E-02  0.1184000E+00
        -11   -1    0    0    0    0  0.00000000000E+00  0.00000000000E+00  0.45593999997E+02  0.45594000000E+02  0.51100000000E-03 0. -1.
         11   -1    0    0    0    0 -0.00000000000E+00 -0.00000000000E+00 -0.45593999997E+02  0.45594000000E+02  0.51100000000E-03 0.  1.
         23    2    1    2    0    0  0.71054273576E-14  0.00000000000E+00 -0.17763568394E-14  0.91188000000E+02  0.91188000000E+02 0.  0.
    9900012    2    3    3    0    0 -0.33553192245E+02 -0.39973160413E+01  0.14628231421E+02  0.54367076602E+02  0.39999982730E+02 0.  0.
        -12    1    3    3    0    0  0.33553192245E+02  0.39973160413E+01 -0.14628231421E+02  0.36820923398E+02  0.00000000000E+00 0.  1.
         11    1    4    4    0    0 -0.61275910796E+01 -0.31669037782E+01  0.12667543002E+02  0.14423706110E+02  0.51100000000E-03 0. -1.
        -11    1    4    4    0    0  0.31017400157E+01  0.68388481827E+01 -0.29856403055E+01  0.80811313494E+01  0.51100000000E-03 0.  1.
         12    1    4    4    0    0 -0.30527341181E+02 -0.76692604459E+01  0.49463287246E+01  0.31862239143E+02  0.00000000000E+00 0. -1.
</event>
<event>
 8    1  0.1262344E-006  0.9118800E+02  0.7816164E-02  0.1184000E+00
        -11   -1    0    0    0    0  0.00000000000E+00  0.00000000000E+00  0.45593999997E+02  0.45594000000E+02  0.51100000000E-03 0. -1.
         11   -1    0    0    0    0 -0.00000000000E+00 -0.00000000000E+00 -0.45593999997E+02  0.45594000000E+02  0.51100000000E-03 0.  1.
         23    2    1    2    0    0  0.88817841970E-15  0.17763568394E-14  0.71054273576E-14  0.91188000000E+02  0.91188000000E+02 0.  0.
    9900012    2    3    3    0    0 -0.55205497958E+01 -0.15586820989E+02 -0.32899152936E+02  0.54367085800E+02  0.40000003699E+02 0.  0.
         12    1    3    3    0    0  0.55205497958E+01  0.15586820989E+02  0.32899152936E+02  0.36820914200E+02  0.00000000000E+00 0. -1.
         11    1    4    4    0    0 -0.15797065154E+01 -0.71403358465E+01 -0.41783038715E+01  0.84224754188E+01  0.51100000000E-03 0. -1.
        -11    1    4    4    0    0 -0.14631179084E+02 -0.96902776865E+01 -0.26609121873E+01  0.17749741885E+02  0.51100000000E-03 0.  1.
        -12    1    4    4    0    0  0.10690335804E+02  0.12437925438E+01 -0.26059936877E+02  0.28194868497E+02  0.00000000000E+00 0.  1.
</event>
<event>
 8    1  0.1262344E-006  0.9118800E+02  0.7816164E-02  0.1184000E+00
        -11   -1    0    0    0    0  0.00000000000E+00  0.00000000000E+00  0.45593999997E+02  0.45594000000E+02  0.51100000000E-03 0.  1.
         11   -1    0    0    0    0 -0.00000000000E+00 -0.00000000000E+00 -0.45593999997E+02  0.45594000000E+02  0.51100000000E-03 0. -1.
         23    2    1    2    0    0 -0.22204460493E-15 -0.71054273576E-14 -0.12212453271E-14  0.91188000000E+02  0.91188000000E+02 0.  0.
    9900012    2    3    3    0    0 -0.18071541190E+01  0.36766952258E+02  0.83971836536E+00  0.54367085953E+02  0.40000004046E+02 0.  0.
         12    1    3    3    0    0  0.18071541190E+01 -0.36766952258E+02 -0.83971836536E+00  0.36820914047E+02  0.00000000000E+00 0. -1.
         11    1    4    4    0    0 -0.21166353479E+01 -0.53243095214E+01 -0.43302787643E+01  0.71819030565E+01  0.51100000000E-03 0. -1.
        -11    1    4    4    0    0  0.10432269516E+02  0.18779498667E+02  0.20706896419E+01  0.21582158680E+02  0.51100000000E-03 0.  1.
         12    1    4    4    0    0 -0.10122788287E+02  0.23311763112E+02  0.30993074877E+01  0.25603024216E+02  0.00000000000E+00 0. -1.
</event>
<event>
 8    1  0.1262344E-006  0.9118800E+02  0.7816164E-02  0.1184000E+00
        -11   -1    0    0    0    0  0.00000000000E+00  0.00000000000E+00  0.45593999997E+02  0.45594000000E+02  0.51100000000E-03 0. -1.
         11   -1    0    0    0    0 -0.00000000000E+00 -0.00000000000E+00 -0.45593999997E+02  0.45594000000E+02  0.51100000000E-03 0.  1.
         23    2    1    2    0    0  0.00000000000E+00 -0.13322676296E-14  0.00000000000E+00  0.91188000000E+02  0.91188000000E+02 0.  0.
    9900012    2    3    3    0    0  0.56706888805E+00  0.23355831802E+01 -0.36742389569E+02  0.54367086009E+02  0.40000004174E+02 0.  0.
         12    1    3    3    0    0 -0.56706888805E+00 -0.23355831802E+01  0.36742389569E+02  0.36820913991E+02  0.00000000000E+00 0. -1.
         11    1    4    4    0    0  0.23101249583E+01  0.17490927626E+02 -0.17623392685E+02  0.24936984512E+02  0.51100000000E-03 0. -1.
        -11    1    4    4    0    0  0.15712746291E+01 -0.17297600894E+02 -0.18601717991E+02  0.25449947212E+02  0.51100000000E-03 0.  1.
        -12    1    4    4    0    0 -0.33143306994E+01  0.21422564478E+01 -0.51727889321E+00  0.39801542842E+01  0.00000000000E+00 0.  1.
</event>
<event>
 8    1  0.1262344E-006  0.9118800E+02  0.7816164E-02  0.1184000E+00
        -11   -1    0    0    0    0  0.00000000000E+00  0.00000000000E+00  0.45593999997E+02  0.45594000000E+02  0.51100000000E-03 0.  1.
         11   -1    0    0    0    0 -0.00000000000E+00 -0.00000000000E+00 -0.45593999997E+02  0.45594000000E+02  0.51100000000E-03 0. -1.
         23    2    1    2    0    0  0.44408920985E-15  0.00000000000E+00  0.00000000000E+00  0.91188000000E+02  0.91188000000E+02 0.  0.
    9900012    2    3    3    0    0  0.31143929337E+01  0.26966470125E+02 -0.24877504429E+02  0.54367079575E+02  0.39999989507E+02 0.  0.
        -12    1    3    3    0    0 -0.31143929337E+01 -0.26966470125E+02  0.24877504429E+02  0.36820920425E+02  0.00000000000E+00 0.  1.
         11    1    4    4    0    0 -0.65758591792E+01  0.11746320029E+01 -0.22273079658E+01  0.70414902771E+01  0.51100000000E-03 0. -1.
        -11    1    4    4    0    0  0.20969888185E+02  0.14989171905E+02 -0.12077881247E+02  0.28465535312E+02  0.51100000000E-03 0.  1.
        -12    1    4    4    0    0 -0.11279636072E+02  0.10802666217E+02 -0.10572315217E+02  0.18860053986E+02  0.00000000000E+00 0.  1.
</event>
<event>
 8    1  0.1262344E-006  0.9118800E+02  0.7816164E-02  0.1184000E+00
        -11   -1    0    0    0    0  0.00000000000E+00  0.00000000000E+00  0.45593999997E+02  0.45594000000E+02  0.51100000000E-03 0. -1.
         11   -1    0    0    0    0 -0.00000000000E+00 -0.00000000000E+00 -0.45593999997E+02  0.45594000000E+02  0.51100000000E-03 0.  1.
         23    2    1    2    0    0  0.00000000000E+00 -0.88817841970E-15  0.71054273576E-14  0.91188000000E+02  0.91188000000E+02 0.  0.
    9900012    2    3    3    0    0  0.14315149289E+02 -0.51048697817E+01 -0.33537981315E+02  0.54367090378E+02  0.40000014136E+02 0.  0.
         12    1    3    3    0    0 -0.14315149289E+02  0.51048697817E+01  0.33537981315E+02  0.36820909622E+02  0.00000000000E+00 0. -1.
         11    1    4    4    0    0  0.15472434435E+02 -0.85756901331E+01 -0.23566084234E+02  0.29466913903E+02  0.51100000000E-03 0. -1.
        -11    1    4    4    0    0 -0.15521678032E+01  0.10009043252E+02  0.28328228001E+01  0.10517369299E+02  0.51100000000E-03 0.  1.
        -12    1    4    4    0    0  0.39488265691E+00 -0.65382229002E+01 -0.12804719882E+02  0.14382807176E+02  0.00000000000E+00 0.  1.
</event>
<event>
 8    1  0.1262344E-006  0.9118800E+02  0.7816164E-02  0.1184000E+00
        -11   -1    0    0    0    0  0.00000000000E+00  0.00000000000E+00  0.45593999997E+02  0.45594000000E+02  0.51100000000E-03 0.  1.
         11   -1    0    0    0    0 -0.00000000000E+00 -0.00000000000E+00 -0.45593999997E+02  0.45594000000E+02  0.51100000000E-03 0. -1.
         23    2    1    2    0    0 -0.71054273576E-14  0.17763568394E-14  0.71054273576E-14  0.91188000000E+02  0.91188000000E+02 0.  0.
    9900012    2    3    3    0    0  0.23417856639E+02 -0.99795903223E+01 -0.26604354480E+02  0.54367083256E+02  0.39999997899E+02 0.  0.
        -12    1    3    3    0    0 -0.23417856639E+02  0.99795903223E+01  0.26604354480E+02  0.36820916744E+02  0.00000000000E+00 0.  1.
         11    1    4    4    0    0  0.21703132247E+02  0.26256580728E+01 -0.27222431122E+02  0.34913905340E+02  0.51100000000E-03 0. -1.
        -11    1    4    4    0    0  0.44516831746E+01  0.17248057428E+01  0.91517586503E+00  0.48610683046E+01  0.51100000000E-03 0.  1.
        -12    1    4    4    0    0 -0.27369587828E+01 -0.14330054138E+02 -0.29709922313E+00  0.14592109612E+02  0.00000000000E+00 0.  1.
</event>
<event>
 8    1  0.1262344E-006  0.9118800E+02  0.7816164E-02  0.1184000E+00
        -11   -1    0    0    0    0  0.00000000000E+00  0.00000000000E+00  0.45593999997E+02  0.45594000000E+02  0.51100000000E-03 0.  1.
         11   -1    0    0    0    0 -0.00000000000E+00 -0.00000000000E+00 -0.45593999997E+02  0.45594000000E+02  0.51100000000E-03 0. -1.
         23    2    1    2    0    0  0.00000000000E+00  0.00000000000E+00  0.35527136788E-14  0.91188000000E+02  0.91188000000E+02 0.  0.
    9900012    2    3    3    0    0  0.18459094287E+02  0.20911711410E+02  0.24036312259E+02  0.54367052932E+02  0.39999928769E+02 0.  0.
         12    1    3    3    0    0 -0.18459094287E+02 -0.20911711410E+02 -0.24036312259E+02  0.36820947068E+02  0.00000000000E+00 0. -1.
         11    1    4    4    0    0 -0.20955327314E+00  0.27838732929E+01 -0.98774798210E+01  0.10264427454E+02  0.51100000000E-03 0. -1.
        -11    1    4    4    0    0 -0.12542747289E+01  0.15091642309E+00  0.23957306794E+01  0.27084140399E+01  0.51100000000E-03 0.  1.
         12    1    4    4    0    0  0.19922922289E+02  0.17976921694E+02  0.31518061400E+02  0.41394211438E+02  0.00000000000E+00 0. -1.
</event>
<event>
 8    1  0.1262344E-006  0.9118800E+02  0.7816164E-02  0.1184000E+00
        -11   -1    0    0    0    0  0.00000000000E+00  0.00000000000E+00  0.45593999997E+02  0.45594000000E+02  0.51100000000E-03 0.  1.
         11   -1    0    0    0    0 -0.00000000000E+00 -0.00000000000E+00 -0.45593999997E+02  0.45594000000E+02  0.51100000000E-03 0. -1.
         23    2    1    2    0    0  0.17763568394E-14  0.35527136788E-14  0.00000000000E+00  0.91188000000E+02  0.91188000000E+02 0.  0.
    9900012    2    3    3    0    0  0.10663414643E+02 -0.28625006168E+02 -0.20559546998E+02  0.54366886998E+02  0.39999550486E+02 0.  0.
        -12    1    3    3    0    0 -0.10663414643E+02  0.28625006168E+02  0.20559546998E+02  0.36821113002E+02  0.00000000000E+00 0.  1.
         11    1    4    4    0    0  0.41183567201E+01  0.88512793548E+01 -0.16384331903E+01  0.98990136817E+01  0.51100000000E-03 0. -1.
        -11    1    4    4    0    0  0.73447272721E+01 -0.11148067847E+02 -0.29776148248E+01  0.13678107534E+02  0.51100000000E-03 0.  1.
         12    1    4    4    0    0 -0.79966934947E+00 -0.26328217676E+02 -0.15943498983E+02  0.30789765782E+02  0.00000000000E+00 0. -1.
</event>
<event>
 8    1  0.1262344E-006  0.9118800E+02  0.7816164E-02  0.1184000E+00
        -11   -1    0    0    0    0  0.00000000000E+00  0.00000000000E+00  0.45593999997E+02  0.45594000000E+02  0.51100000000E-03 0.  1.
         11   -1    0    0    0    0 -0.00000000000E+00 -0.00000000000E+00 -0.45593999997E+02  0.45594000000E+02  0.51100000000E-03 0. -1.
         23    2    1    2    0    0  0.35527136788E-14  0.88817841970E-15  0.35527136788E-14  0.91188000000E+02  0.91188000000E+02 0.  0.
    9900012    2    3    3    0    0  0.22349113609E+02  0.71906818924E+01  0.28365394801E+02  0.54367022183E+02  0.39999858670E+02 0.  0.
         12    1    3    3    0    0 -0.22349113609E+02 -0.71906818924E+01 -0.28365394801E+02  0.36820977817E+02  0.00000000000E+00 0. -1.
         11    1    4    4    0    0 -0.31270324540E+00 -0.12430114813E+02  0.53773695638E+01  0.13547015955E+02  0.51100000000E-03 0. -1.
        -11    1    4    4    0    0  0.23229591616E+02  0.16832682755E+02  0.24384492406E+02  0.37650452926E+02  0.51100000000E-03 0.  1.
        -12    1    4    4    0    0 -0.56777476108E+00  0.27881139508E+01 -0.13964671691E+01  0.31695533023E+01  0.00000000000E+00 0.  1.
</event>
<event>
 8    1  0.1262344E-006  0.9118800E+02  0.7816164E-02  0.1184000E+00
        -11   -1    0    0    0    0  0.00000000000E+00  0.00000000000E+00  0.45593999997E+02  0.45594000000E+02  0.51100000000E-03 0.  1.
         11   -1    0    0    0    0 -0.00000000000E+00 -0.00000000000E+00 -0.45593999997E+02  0.45594000000E+02  0.51100000000E-03 0. -1.
         23    2    1    2    0    0  0.00000000000E+00 -0.17763568394E-14  0.00000000000E+00  0.91188000000E+02  0.91188000000E+02 0.  0.
    9900012    2    3    3    0    0 -0.35304829437E+01  0.13380609822E+02 -0.34121467950E+02  0.54367087408E+02  0.40000007365E+02 0.  0.
        -12    1    3    3    0    0  0.35304829437E+01 -0.13380609822E+02  0.34121467950E+02  0.36820912592E+02  0.00000000000E+00 0.  1.
         11    1    4    4    0    0 -0.10327118844E+01  0.10889818926E+02  0.38750728116E+01  0.11604776587E+02  0.51100000000E-03 0. -1.
        -11    1    4    4    0    0 -0.32427803295E+01  0.25424869437E+01  0.59512788086E+00  0.41634170557E+01  0.51100000000E-03 0.  1.
         12    1    4    4    0    0  0.74500927017E+00 -0.51696048257E-01 -0.38591668643E+02  0.38598893765E+02  0.00000000000E+00 0. -1.
</event>
<event>
 8    1  0.1262344E-006  0.9118800E+02  0.7816164E-02  0.1184000E+00
        -11   -1    0    0    0    0  0.00000000000E+00  0.00000000000E+00  0.45593999997E+02  0.45594000000E+02  0.51100000000E-03 0. -1.
         11   -1    0    0    0    0 -0.00000000000E+00 -0.00000000000E+00 -0.45593999997E+02  0.45594000000E+02  0.51100000000E-03 0.  1.
         23    2    1    2    0    0  0.00000000000E+00 -0.17763568394E-14  0.00000000000E+00  0.91188000000E+02  0.91188000000E+02 0.  0.
    9900012    2    3    3    0    0 -0.34189458117E+02  0.82386541244E+01  0.10908103957E+02  0.54367065736E+02  0.39999957959E+02 0.  0.
        -12    1    3    3    0    0  0.34189458117E+02 -0.82386541244E+01 -0.10908103957E+02  0.36820934264E+02  0.00000000000E+00 0.  1.
         11    1    4    4    0    0  0.57829358903E+01 -0.41859322498E+01  0.79150016433E+01  0.10658875531E+02  0.51100000000E-03 0.  1.
        -11    1    4    4    0    0 -0.29295184682E+02  0.82643117540E+01 -0.33302343692E+01  0.30620208287E+02  0.51100000000E-03 0. -1.
         12    1    4    4    0    0 -0.10677209325E+02  0.41602746202E+01  0.63233366828E+01  0.13087981918E+02  0.00000000000E+00 0. -1.
</event>
<event>
 8    1  0.1262344E-006  0.9118800E+02  0.7816164E-02  0.1184000E+00
        -11   -1    0    0    0    0  0.00000000000E+00  0.00000000000E+00  0.45593999997E+02  0.45594000000E+02  0.51100000000E-03 0. -1.
         11   -1    0    0    0    0 -0.00000000000E+00 -0.00000000000E+00 -0.45593999997E+02  0.45594000000E+02  0.51100000000E-03 0.  1.
         23    2    1    2    0    0  0.00000000000E+00  0.00000000000E+00  0.00000000000E+00  0.91188000000E+02  0.91188000000E+02 0.  0.
    9900012    2    3    3    0    0 -0.25610849294E+02 -0.63237938026E+01 -0.25688017779E+02  0.54367078949E+02  0.39999988080E+02 0.  0.
         12    1    3    3    0    0  0.25610849294E+02  0.63237938026E+01  0.25688017779E+02  0.36820921051E+02  0.00000000000E+00 0. -1.
         11    1    4    4    0    0 -0.18102393256E+02 -0.34637198155E+01  0.51541095475E+01  0.19137890219E+02  0.51100000000E-03 0. -1.
        -11    1    4    4    0    0 -0.11191154569E+02 -0.27115090147E+01 -0.28797494861E+02  0.31014350424E+02  0.51100000000E-03 0.  1.
         12    1    4    4    0    0  0.36826985309E+01 -0.14856497243E+00 -0.20446324655E+01  0.42148383053E+01  0.00000000000E+00 0. -1.
</event>
<event>
 8    1  0.1262344E-006  0.9118800E+02  0.7816164E-02  0.1184000E+00
        -11   -1    0    0    0    0  0.00000000000E+00  0.00000000000E+00  0.45593999997E+02  0.45594000000E+02  0.51100000000E-03 0.  1.
         11   -1    0    0    0    0 -0.00000000000E+00 -0.00000000000E+00 -0.45593999997E+02  0.45594000000E+02  0.51100000000E-03 0. -1.
         23    2    1    2    0    0  0.00000000000E+00  0.00000000000E+00  0.00000000000E+00  0.91188000000E+02  0.91188000000E+02 0.  0.
    9900012    2    3    3    0    0 -0.10333222855E+02 -0.32151535800E+02  0.14672660010E+02  0.54367031780E+02  0.39999880549E+02 0.  0.
         12    1    3    3    0    0  0.10333222855E+02  0.32151535800E+02 -0.14672660010E+02  0.36820968220E+02  0.00000000000E+00 0. -1.
         11    1    4    4    0    0 -0.16456060622E+02 -0.22199531938E+02 -0.39692306297E+01  0.27917305413E+02  0.51100000000E-03 0. -1.
        -11    1    4    4    0    0 -0.15049809393E+01  0.31852283220E+01  0.42914428721E+01  0.55522184104E+01  0.51100000000E-03 0.  1.
         12    1    4    4    0    0  0.76278187064E+01 -0.13137232184E+02  0.14350447768E+02  0.20897507957E+02  0.00000000000E+00 0. -1.
</event>
<event>
 8    1  0.1262344E-006  0.9118800E+02  0.7816164E-02  0.1184000E+00
        -11   -1    0    0    0    0  0.00000000000E+00  0.00000000000E+00  0.45593999997E+02  0.45594000000E+02  0.51100000000E-03 0. -1.
         11   -1    0    0    0    0 -0.00000000000E+00 -0.00000000000E+00 -0.45593999997E+02  0.45594000000E+02  0.51100000000E-03 0.  1.
         23    2    1    2    0    0 -0.88817841970E-15 -0.12212453271E-14  0.00000000000E+00  0.91188000000E+02  0.91188000000E+02 0.  0.
    9900012    2    3    3    0    0 -0.61054026494E+01 -0.29918934255E+00 -0.36309983831E+02  0.54367076850E+02  0.39999983295E+02 0.  0.
         12    1    3    3    0    0  0.61054026494E+01  0.29918934255E+00  0.36309983831E+02  0.36820923150E+02  0.00000000000E+00 0. -1.
         11    1    4    4    0    0  0.78255581139E+01  0.50905154805E+01 -0.47485053080E+01  0.10473825021E+02  0.51100000000E-03 0. -1.
        -11    1    4    4    0    0 -0.56924321032E+01  0.31130494176E+01 -0.31389128882E+02  0.32052648442E+02  0.51100000000E-03 0.  1.
         12    1    4    4    0    0 -0.82385286602E+01 -0.85027542407E+01 -0.17234964129E+00  0.11840603387E+02  0.00000000000E+00 0. -1.
</event>
<event>
 8    1  0.1262344E-006  0.9118800E+02  0.7816164E-02  0.1184000E+00
        -11   -1    0    0    0    0  0.00000000000E+00  0.00000000000E+00  0.45593999997E+02  0.45594000000E+02  0.51100000000E-03 0. -1.
         11   -1    0    0    0    0 -0.00000000000E+00 -0.00000000000E+00 -0.45593999997E+02  0.45594000000E+02  0.51100000000E-03 0.  1.
         23    2    1    2    0    0  0.00000000000E+00  0.00000000000E+00  0.00000000000E+00  0.91188000000E+02  0.91188000000E+02 0.  0.
    9900012    2    3    3    0    0 -0.37324594685E+01 -0.11846488439E+02 -0.34662792273E+02  0.54367085968E+02  0.40000004081E+02 0.  0.
         12    1    3    3    0    0  0.37324594685E+01  0.11846488439E+02  0.34662792273E+02  0.36820914032E+02  0.00000000000E+00 0. -1.
         11    1    4    4    0    0  0.87583995706E+00  0.52362334106E+01 -0.20768337829E+02  0.21436163193E+02  0.51100000000E-03 0. -1.
        -11    1    4    4    0    0 -0.14543832609E+01 -0.22797790637E+02 -0.82083948465E+01  0.24274106262E+02  0.51100000000E-03 0.  1.
        -12    1    4    4    0    0 -0.31539161647E+01  0.57150687868E+01 -0.56860595967E+01  0.86568165135E+01  0.00000000000E+00 0.  1.
</event>
<event>
 8    1  0.1262344E-006  0.9118800E+02  0.7816164E-02  0.1184000E+00
        -11   -1    0    0    0    0  0.00000000000E+00  0.00000000000E+00  0.45593999997E+02  0.45594000000E+02  0.51100000000E-03 0. -1.
         11   -1    0    0    0    0 -0.00000000000E+00 -0.00000000000E+00 -0.45593999997E+02  0.45594000000E+02  0.51100000000E-03 0.  1.
         23    2    1    2    0    0  0.00000000000E+00  0.00000000000E+00  0.35527136788E-14  0.91188000000E+02  0.91188000000E+02 0.  0.
    9900012    2    3    3    0    0 -0.26577204057E+02 -0.15378104169E+02  0.20321077212E+02  0.54367081457E+02  0.39999993797E+02 0.  0.
        -12    1    3    3    0    0  0.26577204057E+02  0.15378104169E+02 -0.20321077212E+02  0.36820918543E+02  0.00000000000E+00 0.  1.
         11    1    4    4    0    0 -0.16319915736E+02 -0.13277341449E+02  0.82789069858E+01  0.22609019146E+02  0.51100000000E-03 0. -1.
        -11    1    4    4    0    0 -0.35045926765E+01 -0.14286577937E+02  0.26260715068E+01  0.14942714974E+02  0.51100000000E-03 0.  1.
        -12    1    4    4    0    0 -0.67526956442E+01  0.12185815217E+02  0.94160987191E+01  0.16815347337E+02  0.00000000000E+00 0.  1.
</event>
<event>
 8    1  0.1262344E-006  0.9118800E+02  0.7816164E-02  0.1184000E+00
        -11   -1    0    0    0    0  0.00000000000E+00  0.00000000000E+00  0.45593999997E+02  0.45594000000E+02  0.51100000000E-03 0.  1.
         11   -1    0    0    0    0 -0.00000000000E+00 -0.00000000000E+00 -0.45593999997E+02  0.45594000000E+02  0.51100000000E-03 0. -1.
         23    2    1    2    0    0  0.00000000000E+00  0.00000000000E+00  0.35527136788E-14  0.91188000000E+02  0.91188000000E+02 0.  0.
    9900012    2    3    3    0    0  0.65764228605E+01 -0.17674019264E+02  0.31625260102E+02  0.54367117730E+02  0.40000076490E+02 0.  0.
         12    1    3    3    0    0 -0.65764228605E+01  0.17674019264E+02 -0.31625260102E+02  0.36820882270E+02  0.00000000000E+00 0. -1.
         11    1    4    4    0    0 -0.72028746151E+01 -0.24160586591E+01 -0.81651855677E+00  0.76410369048E+01  0.51100000000E-03 0. -1.
        -11    1    4    4    0    0  0.18592799269E+02 -0.19663685819E+02  0.25203202284E+02  0.36980456058E+02  0.51100000000E-03 0.  1.
        -12    1    4    4    0    0 -0.48135017932E+01  0.44057252142E+01  0.72385763748E+01  0.97456247676E+01  0.00000000000E+00 0.  1.
</event>
<event>
 8    1  0.1262344E-006  0.9118800E+02  0.7816164E-02  0.1184000E+00
        -11   -1    0    0    0    0  0.00000000000E+00  0.00000000000E+00  0.45593999997E+02  0.45594000000E+02  0.51100000000E-03 0. -1.
         11   -1    0    0    0    0 -0.00000000000E+00 -0.00000000000E+00 -0.45593999997E+02  0.45594000000E+02  0.51100000000E-03 0.  1.
         23    2    1    2    0    0  0.00000000000E+00  0.17763568394E-14  0.00000000000E+00  0.91188000000E+02  0.91188000000E+02 0.  0.
    9900012    2    3    3    0    0 -0.10299110994E+02  0.14337720031E+02 -0.32313113204E+02  0.54367093060E+02  0.40000020248E+02 0.  0.
         12    1    3    3    0    0  0.10299110994E+02 -0.14337720031E+02  0.32313113204E+02  0.36820906940E+02  0.00000000000E+00 0. -1.
         11    1    4    4    0    0 -0.49388242135E+01  0.16045817577E+02 -0.18931802262E+02  0.25303623920E+02  0.51100000000E-03 0. -1.
        -11    1    4    4    0    0 -0.13365475616E+02  0.58570470764E+01 -0.93684011124E+01  0.17340930730E+02  0.51100000000E-03 0.  1.
         12    1    4    4    0    0  0.80051888359E+01 -0.75651446232E+01 -0.40129098299E+01  0.11722538410E+02  0.00000000000E+00 0. -1.
</event>
<event>
 8    1  0.1262344E-006  0.9118800E+02  0.7816164E-02  0.1184000E+00
        -11   -1    0    0    0    0  0.00000000000E+00  0.00000000000E+00  0.45593999997E+02  0.45594000000E+02  0.51100000000E-03 0. -1.
         11   -1    0    0    0    0 -0.00000000000E+00 -0.00000000000E+00 -0.45593999997E+02  0.45594000000E+02  0.51100000000E-03 0.  1.
         23    2    1    2    0    0  0.00000000000E+00  0.00000000000E+00  0.00000000000E+00  0.91188000000E+02  0.91188000000E+02 0.  0.
    9900012    2    3    3    0    0  0.15691209091E+02  0.18592487086E+02 -0.27638478776E+02  0.54367080296E+02  0.39999991152E+02 0.  0.
         12    1    3    3    0    0 -0.15691209091E+02 -0.18592487086E+02  0.27638478776E+02  0.36820919704E+02  0.00000000000E+00 0. -1.
         11    1    4    4    0    0 -0.12545557650E+02  0.56247353279E+01 -0.91208588661E+01  0.16499052426E+02  0.51100000000E-03 0. -1.
        -11    1    4    4    0    0  0.98831047211E+01  0.28185332492E+01 -0.61885197173E+00  0.10295769356E+02  0.51100000000E-03 0.  1.
         12    1    4    4    0    0  0.18353662020E+02  0.10149218509E+02 -0.17898767938E+02  0.27572258514E+02  0.00000000000E+00 0. -1.
</event>
<event>
 8    1  0.1262344E-006  0.9118800E+02  0.7816164E-02  0.1184000E+00
        -11   -1    0    0    0    0  0.00000000000E+00  0.00000000000E+00  0.45593999997E+02  0.45594000000E+02  0.51100000000E-03 0.  1.
         11   -1    0    0    0    0 -0.00000000000E+00 -0.00000000000E+00 -0.45593999997E+02  0.45594000000E+02  0.51100000000E-03 0. -1.
         23    2    1    2    0    0  0.00000000000E+00  0.00000000000E+00  0.00000000000E+00  0.91188000000E+02  0.91188000000E+02 0.  0.
    9900012    2    3    3    0    0  0.24458795171E+02 -0.16035675868E+02 -0.22369721835E+02  0.54367081805E+02  0.39999994590E+02 0.  0.
        -12    1    3    3    0    0 -0.24458795171E+02  0.16035675868E+02  0.22369721835E+02  0.36820918195E+02  0.00000000000E+00 0.  1.
         11    1    4    4    0    0 -0.11923263066E+01 -0.16176890268E+02 -0.10263326361E+02  0.19195032926E+02  0.51100000000E-03 0. -1.
        -11    1    4    4    0    0  0.62212897344E+01 -0.82532758550E+01  0.82564297172E+00  0.10368350634E+02  0.51100000000E-03 0.  1.
         12    1    4    4    0    0  0.19429831743E+02  0.83944902554E+01 -0.12932038446E+02  0.24803698244E+02  0.00000000000E+00 0. -1.
</event>
<event>
 8    1  0.1262344E-006  0.9118800E+02  0.7816164E-02  0.1184000E+00
        -11   -1    0    0    0    0  0.00000000000E+00  0.00000000000E+00  0.45593999997E+02  0.45594000000E+02  0.51100000000E-03 0. -1.
         11   -1    0    0    0    0 -0.00000000000E+00 -0.00000000000E+00 -0.45593999997E+02  0.45594000000E+02  0.51100000000E-03 0.  1.
         23    2    1    2    0    0  0.00000000000E+00 -0.35527136788E-14  0.17763568394E-14  0.91188000000E+02  0.91188000000E+02 0.  0.
    9900012    2    3    3    0    0 -0.25842126130E+02  0.22791060472E+02 -0.12981911133E+02  0.54367110046E+02  0.40000058972E+02 0.  0.
         12    1    3    3    0    0  0.25842126130E+02 -0.22791060472E+02  0.12981911133E+02  0.36820889954E+02  0.00000000000E+00 0. -1.
         11    1    4    4    0    0 -0.73273645949E+01 -0.25931447278E+01 -0.15773892446E+02  0.17584946820E+02  0.51100000000E-03 0. -1.
        -11    1    4    4    0    0 -0.10027526291E+02  0.12947228797E+00  0.10333552957E+01  0.10081461700E+02  0.51100000000E-03 0.  1.
         12    1    4    4    0    0 -0.84872352442E+01  0.25254732912E+02  0.17586260177E+01  0.26700701526E+02  0.00000000000E+00 0. -1.
</event>
<event>
 8    1  0.1262344E-006  0.9118800E+02  0.7816164E-02  0.1184000E+00
        -11   -1    0    0    0    0  0.00000000000E+00  0.00000000000E+00  0.45593999997E+02  0.45594000000E+02  0.51100000000E-03 0. -1.
         11   -1    0    0    0    0 -0.00000000000E+00 -0.00000000000E+00 -0.45593999997E+02  0.45594000000E+02  0.51100000000E-03 0.  1.
         23    2    1    2    0    0  0.00000000000E+00  0.00000000000E+00 -0.17763568394E-14  0.91188000000E+02  0.91188000000E+02 0.  0.
    9900012    2    3    3    0    0 -0.26875243894E+02  0.21204061029E+02 -0.13560564734E+02  0.54367084010E+02  0.39999999616E+02 0.  0.
         12    1    3    3    0    0  0.26875243894E+02 -0.21204061029E+02  0.13560564734E+02  0.36820915990E+02  0.00000000000E+00 0. -1.
         11    1    4    4    0    0 -0.15671686971E+02 -0.67612771426E-01 -0.86907022008E+01  0.17920230160E+02  0.51100000000E-03 0. -1.
        -11    1    4    4    0    0 -0.11532542661E+02 -0.36633009725E+00  0.51060484234E+01  0.12617664948E+02  0.51100000000E-03 0.  1.
        -12    1    4    4    0    0  0.32898573796E+00  0.21638003897E+02 -0.99759109563E+01  0.23829188901E+02  0.00000000000E+00 0.  1.
</event>
<event>
 8    1  0.1262344E-006  0.9118800E+02  0.7816164E-02  0.1184000E+00
        -11   -1    0    0    0    0  0.00000000000E+00  0.00000000000E+00  0.45593999997E+02  0.45594000000E+02  0.51100000000E-03 0.  1.
         11   -1    0    0    0    0 -0.00000000000E+00 -0.00000000000E+00 -0.45593999997E+02  0.45594000000E+02  0.51100000000E-03 0. -1.
         23    2    1    2    0    0  0.33306690739E-15  0.44408920985E-15  0.00000000000E+00  0.91188000000E+02  0.91188000000E+02 0.  0.
    9900012    2    3    3    0    0 -0.11887711862E+00  0.26747958008E+01  0.36723442443E+02  0.54367083537E+02  0.39999998539E+02 0.  0.
         12    1    3    3    0    0  0.11887711862E+00 -0.26747958008E+01 -0.36723442443E+02  0.36820916463E+02  0.00000000000E+00 0. -1.
         11    1    4    4    0    0  0.41952055261E+01  0.27290330263E+01 -0.37169198899E+01  0.62340086938E+01  0.51100000000E-03 0. -1.
        -11    1    4    4    0    0  0.10366031144E+02 -0.35487368393E+01  0.15467739150E+02  0.18955186348E+02  0.51100000000E-03 0.  1.
        -12    1    4    4    0    0 -0.14680113788E+02  0.34944996138E+01  0.24972623183E+02  0.29177888495E+02  0.00000000000E+00 0.  1.
</event>
<event>
 8    1  0.1262344E-006  0.9118800E+02  0.7816164E-02  0.1184000E+00
        -11   -1    0    0    0    0  0.00000000000E+00  0.00000000000E+00  0.45593999997E+02  0.45594000000E+02  0.51100000000E-03 0. -1.
         11   -1    0    0    0    0 -0.00000000000E+00 -0.00000000000E+00 -0.45593999997E+02  0.45594000000E+02  0.51100000000E-03 0.  1.
         23    2    1    2    0    0  0.00000000000E+00 -0.33306690739E-15  0.00000000000E+00  0.91188000000E+02  0.91188000000E+02 0.  0.
    9900012    2    3    3    0    0  0.35359318766E+02  0.97819039408E+00  0.10224561892E+02  0.54367082766E+02  0.39999996783E+02 0.  0.
         12    1    3    3    0    0 -0.35359318766E+02 -0.97819039408E+00 -0.10224561892E+02  0.36820917234E+02  0.00000000000E+00 0. -1.
         11    1    4    4    0    0  0.80352946700E+01  0.53271922190E+01  0.72386891239E+01  0.12055851603E+02  0.51100000000E-03 0. -1.
        -11    1    4    4    0    0  0.15382331452E+02  0.13624627155E+02  0.17089429176E+00  0.20549350139E+02  0.51100000000E-03 0.  1.
        -12    1    4    4    0    0  0.11941692644E+02 -0.17973628980E+02  0.28149784763E+01  0.21761881025E+02  0.00000000000E+00 0.  1.
</event>
<event>
 8    1  0.1262344E-006  0.9118800E+02  0.7816164E-02  0.1184000E+00
        -11   -1    0    0    0    0  0.00000000000E+00  0.00000000000E+00  0.45593999997E+02  0.45594000000E+02  0.51100000000E-03 0.  1.
         11   -1    0    0    0    0 -0.00000000000E+00 -0.00000000000E+00 -0.45593999997E+02  0.45594000000E+02  0.51100000000E-03 0. -1.
         23    2    1    2    0    0  0.88817841970E-15  0.00000000000E+00  0.00000000000E+00  0.91188000000E+02  0.91188000000E+02 0.  0.
    9900012    2    3    3    0    0 -0.21359139460E+01 -0.26803398492E+02 -0.25155400759E+02  0.54367102585E+02  0.40000041963E+02 0.  0.
        -12    1    3    3    0    0  0.21359139460E+01  0.26803398492E+02  0.25155400759E+02  0.36820897415E+02  0.00000000000E+00 0.  1.
         11    1    4    4    0    0 -0.17112282178E+01 -0.82625568657E+01 -0.21839153729E+02  0.23412534758E+02  0.51100000000E-03 0. -1.
        -11    1    4    4    0    0  0.48839558532E+01 -0.18406417446E+02 -0.10712304343E+02  0.21849546736E+02  0.51100000000E-03 0.  1.
        -12    1    4    4    0    0 -0.53086415814E+01 -0.13442418023E+00  0.73960573121E+01  0.91050210908E+01  0.00000000000E+00 0.  1.
</event>
<event>
 8    1  0.1262344E-006  0.9118800E+02  0.7816164E-02  0.1184000E+00
        -11   -1    0    0    0    0  0.00000000000E+00  0.00000000000E+00  0.45593999997E+02  0.45594000000E+02  0.51100000000E-03 0.  1.
         11   -1    0    0    0    0 -0.00000000000E+00 -0.00000000000E+00 -0.45593999997E+02  0.45594000000E+02  0.51100000000E-03 0. -1.
         23    2    1    2    0    0 -0.27755575616E-15 -0.13322676296E-14  0.00000000000E+00  0.91188000000E+02  0.91188000000E+02 0.  0.
    9900012    2    3    3    0    0  0.34007672098E+00 -0.34167030092E+01  0.36660474568E+02  0.54367083292E+02  0.39999997981E+02 0.  0.
         12    1    3    3    0    0 -0.34007672098E+00  0.34167030092E+01 -0.36660474568E+02  0.36820916708E+02  0.00000000000E+00 0. -1.
         11    1    4    4    0    0 -0.68409677548E+01  0.70318160042E+01  0.22189460858E+01  0.10058280078E+02  0.51100000000E-03 0. -1.
        -11    1    4    4    0    0  0.77876764797E+01 -0.70765696472E+01  0.37963787559E+02  0.39395112756E+02  0.51100000000E-03 0.  1.
         12    1    4    4    0    0 -0.60663200389E+00 -0.33719493662E+01 -0.35222590769E+01  0.49136904584E+01  0.00000000000E+00 0. -1.
</event>
<event>
 8    1  0.1262344E-006  0.9118800E+02  0.7816164E-02  0.1184000E+00
        -11   -1    0    0    0    0  0.00000000000E+00  0.00000000000E+00  0.45593999997E+02  0.45594000000E+02  0.51100000000E-03 0.  1.
         11   -1    0    0    0    0 -0.00000000000E+00 -0.00000000000E+00 -0.45593999997E+02  0.45594000000E+02  0.51100000000E-03 0. -1.
         23    2    1    2    0    0  0.00000000000E+00 -0.35527136788E-14  0.35527136788E-14  0.91188000000E+02  0.91188000000E+02 0.  0.
    9900012    2    3    3    0    0  0.23041788086E+02  0.22928957369E+02 -0.17295051645E+02  0.54367083449E+02  0.39999998338E+02 0.  0.
        -12    1    3    3    0    0 -0.23041788086E+02 -0.22928957369E+02  0.17295051645E+02  0.36820916551E+02  0.00000000000E+00 0.  1.
         11    1    4    4    0    0 -0.57780366314E+01  0.46155100749E+01 -0.11415283154E+02  0.13601372368E+02  0.51100000000E-03 0. -1.
        -11    1    4    4    0    0 -0.14092557180E+01  0.42998783610E+01  0.39714543078E+01  0.60205817973E+01  0.51100000000E-03 0.  1.
         12    1    4    4    0    0  0.30229080436E+02  0.14013568933E+02 -0.98512227995E+01  0.34745129283E+02  0.00000000000E+00 0. -1.
</event>
<event>
 8    1  0.1262344E-006  0.9118800E+02  0.7816164E-02  0.1184000E+00
        -11   -1    0    0    0    0  0.00000000000E+00  0.00000000000E+00  0.45593999997E+02  0.45594000000E+02  0.51100000000E-03 0.  1.
         11   -1    0    0    0    0 -0.00000000000E+00 -0.00000000000E+00 -0.45593999997E+02  0.45594000000E+02  0.51100000000E-03 0. -1.
         23    2    1    2    0    0  0.17763568394E-14  0.00000000000E+00  0.00000000000E+00  0.91188000000E+02  0.91188000000E+02 0.  0.
    9900012    2    3    3    0    0 -0.44104945548E+01  0.31192936448E+02  0.19061226445E+02  0.54367053515E+02  0.39999930098E+02 0.  0.
         12    1    3    3    0    0  0.44104945548E+01 -0.31192936448E+02 -0.19061226445E+02  0.36820946485E+02  0.00000000000E+00 0. -1.
         11    1    4    4    0    0 -0.14846323904E+02  0.18886019025E+02 -0.12061235999E+01  0.24053061811E+02  0.51100000000E-03 0. -1.
        -11    1    4    4    0    0  0.91580447666E+01  0.16023235052E+02  0.17984048875E+02  0.25768970869E+02  0.51100000000E-03 0.  1.
         12    1    4    4    0    0  0.12777845830E+01 -0.37163176284E+01  0.22833011698E+01  0.45450208347E+01  0.00000000000E+00 0. -1.
</event>
<event>
 8    1  0.1262344E-006  0.9118800E+02  0.7816164E-02  0.1184000E+00
        -11   -1    0    0    0    0  0.00000000000E+00  0.00000000000E+00  0.45593999997E+02  0.45594000000E+02  0.51100000000E-03 0.  1.
         11   -1    0    0    0    0 -0.00000000000E+00 -0.00000000000E+00 -0.45593999997E+02  0.45594000000E+02  0.51100000000E-03 0. -1.
         23    2    1    2    0    0  0.17763568394E-14  0.00000000000E+00  0.35527136788E-14  0.91188000000E+02  0.91188000000E+02 0.  0.
    9900012    2    3    3    0    0 -0.13299499276E+02 -0.18972570781E+02 -0.28617230161E+02  0.54367068655E+02  0.39999964613E+02 0.  0.
        -12    1    3    3    0    0  0.13299499276E+02  0.18972570781E+02  0.28617230161E+02  0.36820931345E+02  0.00000000000E+00 0.  1.
         11    1    4    4    0    0 -0.24421661319E+02 -0.27250906793E+01 -0.15195636950E+02  0.28892058483E+02  0.51100000000E-03 0. -1.
        -11    1    4    4    0    0  0.60979321500E+01 -0.13204428309E+02 -0.53605655280E+01  0.15500882766E+02  0.51100000000E-03 0.  1.
         12    1    4    4    0    0  0.50242298926E+01 -0.30430517926E+01 -0.80610276827E+01  0.99741274068E+01  0.00000000000E+00 0. -1.
</event>
<event>
 8    1  0.1262344E-006  0.9118800E+02  0.7816164E-02  0.1184000E+00
        -11   -1    0    0    0    0  0.00000000000E+00  0.00000000000E+00  0.45593999997E+02  0.45594000000E+02  0.51100000000E-03 0.  1.
         11   -1    0    0    0    0 -0.00000000000E+00 -0.00000000000E+00 -0.45593999997E+02  0.45594000000E+02  0.51100000000E-03 0. -1.
         23    2    1    2    0    0  0.44408920985E-15  0.71054273576E-14  0.00000000000E+00  0.91188000000E+02  0.91188000000E+02 0.  0.
    9900012    2    3    3    0    0 -0.33526131709E+01  0.34623152714E+02 -0.12073820351E+02  0.54367083977E+02  0.39999999542E+02 0.  0.
        -12    1    3    3    0    0  0.33526131709E+01 -0.34623152714E+02  0.12073820351E+02  0.36820916023E+02  0.00000000000E+00 0.  1.
         11    1    4    4    0    0 -0.12476819283E+02  0.13408006330E+01 -0.91973807940E+01  0.15558296163E+02  0.51100000000E-03 0. -1.
        -11    1    4    4    0    0  0.30242295541E+01 -0.10584122538E+01  0.17072569997E+01  0.36305547261E+01  0.51100000000E-03 0.  1.
         12    1    4    4    0    0  0.60999765578E+01  0.34340764334E+02 -0.45836965565E+01  0.35178233088E+02  0.00000000000E+00 0. -1.
</event>
<event>
 8    1  0.1262344E-006  0.9118800E+02  0.7816164E-02  0.1184000E+00
        -11   -1    0    0    0    0  0.00000000000E+00  0.00000000000E+00  0.45593999997E+02  0.45594000000E+02  0.51100000000E-03 0.  1.
         11   -1    0    0    0    0 -0.00000000000E+00 -0.00000000000E+00 -0.45593999997E+02  0.45594000000E+02  0.51100000000E-03 0. -1.
         23    2    1    2    0    0 -0.23314683517E-14  0.00000000000E+00  0.88817841970E-15  0.91188000000E+02  0.91188000000E+02 0.  0.
    9900012    2    3    3    0    0 -0.92845068684E+00  0.36214262388E+02 -0.65913160199E+01  0.54367078395E+02  0.39999986818E+02 0.  0.
         12    1    3    3    0    0  0.92845068684E+00 -0.36214262388E+02  0.65913160199E+01  0.36820921605E+02  0.00000000000E+00 0. -1.
         11    1    4    4    0    0 -0.81627303473E+01  0.63465199069E+01  0.47276807372E+01  0.11369232475E+02  0.51100000000E-03 0. -1.
        -11    1    4    4    0    0 -0.96694188756E+01  0.11953131663E+02  0.10993112932E+01  0.15413743982E+02  0.51100000000E-03 0.  1.
         12    1    4    4    0    0  0.16903698536E+02  0.17914610817E+02 -0.12418308050E+02  0.27584101939E+02  0.00000000000E+00 0. -1.
</event>
<event>
 8    1  0.1262344E-006  0.9118800E+02  0.7816164E-02  0.1184000E+00
        -11   -1    0    0    0    0  0.00000000000E+00  0.00000000000E+00  0.45593999997E+02  0.45594000000E+02  0.51100000000E-03 0.  1.
         11   -1    0    0    0    0 -0.00000000000E+00 -0.00000000000E+00 -0.45593999997E+02  0.45594000000E+02  0.51100000000E-03 0. -1.
         23    2    1    2    0    0  0.00000000000E+00 -0.88817841970E-15  0.00000000000E+00  0.91188000000E+02  0.91188000000E+02 0.  0.
    9900012    2    3    3    0    0  0.24975963395E+02  0.45212065486E+01 -0.26674698245E+02  0.54367087700E+02  0.40000008029E+02 0.  0.
        -12    1    3    3    0    0 -0.24975963395E+02 -0.45212065486E+01  0.26674698245E+02  0.36820912300E+02  0.00000000000E+00 0.  1.
         11    1    4    4    0    0  0.15302701956E+02  0.15067773287E+01 -0.23556210599E+02  0.28130732715E+02  0.51100000000E-03 0. -1.
        -11    1    4    4    0    0  0.46432650076E+01 -0.10493369313E+02  0.65368782083E-01  0.11474972018E+02  0.51100000000E-03 0.  1.
         12    1    4    4    0    0  0.50299964318E+01  0.13507798533E+02 -0.31838564287E+01  0.14761382966E+02  0.00000000000E+00 0. -1.
</event>
<event>
 8    1  0.1262344E-006  0.9118800E+02  0.7816164E-02  0.1184000E+00
        -11   -1    0    0    0    0  0.00000000000E+00  0.00000000000E+00  0.45593999997E+02  0.45594000000E+02  0.51100000000E-03 0.  1.
         11   -1    0    0    0    0 -0.00000000000E+00 -0.00000000000E+00 -0.45593999997E+02  0.45594000000E+02  0.51100000000E-03 0. -1.
         23    2    1    2    0    0  0.00000000000E+00  0.35527136788E-14  0.00000000000E+00  0.91188000000E+02  0.91188000000E+02 0.  0.
    9900012    2    3    3    0    0  0.12538678069E+02 -0.21489049555E+02 -0.27143726949E+02  0.54367087312E+02  0.40000007145E+02 0.  0.
        -12    1    3    3    0    0 -0.12538678069E+02  0.21489049555E+02  0.27143726949E+02  0.36820912688E+02  0.00000000000E+00 0.  1.
         11    1    4    4    0    0  0.16936654083E+02 -0.22036758845E+02 -0.15461884440E+02  0.31804698751E+02  0.51100000000E-03 0. -1.
        -11    1    4    4    0    0 -0.19613011404E+01 -0.64476286354E+01  0.19777281973E+01  0.70235337450E+01  0.51100000000E-03 0.  1.
         12    1    4    4    0    0 -0.24366748732E+01  0.69953379255E+01 -0.13659570706E+02  0.15538854816E+02  0.00000000000E+00 0. -1.
</event>
<event>
 8    1  0.1262344E-006  0.9118800E+02  0.7816164E-02  0.1184000E+00
        -11   -1    0    0    0    0  0.00000000000E+00  0.00000000000E+00  0.45593999997E+02  0.45594000000E+02  0.51100000000E-03 0.  1.
         11   -1    0    0    0    0 -0.00000000000E+00 -0.00000000000E+00 -0.45593999997E+02  0.45594000000E+02  0.51100000000E-03 0. -1.
         23    2    1    2    0    0  0.00000000000E+00  0.00000000000E+00  0.00000000000E+00  0.91188000000E+02  0.91188000000E+02 0.  0.
    9900012    2    3    3    0    0  0.28906422778E+02 -0.21149625528E+02  0.85376754922E+01  0.54367084196E+02  0.40000000042E+02 0.  0.
         12    1    3    3    0    0 -0.28906422778E+02  0.21149625528E+02 -0.85376754922E+01  0.36820915804E+02  0.00000000000E+00 0. -1.
         11    1    4    4    0    0  0.99245659239E+01  0.93106544511E+01  0.67563430229E+01  0.15193204612E+02  0.51100000000E-03 0. -1.
        -11    1    4    4    0    0  0.62869679544E+01 -0.12217695368E+02  0.82496822717E+01  0.16026705963E+02  0.51100000000E-03 0.  1.
        -12    1    4    4    0    0  0.12694888900E+02 -0.18242584611E+02 -0.64683498024E+01  0.23147173621E+02  0.00000000000E+00 0.  1.
</event>
<event>
 8    1  0.1262344E-006  0.9118800E+02  0.7816164E-02  0.1184000E+00
        -11   -1    0    0    0    0  0.00000000000E+00  0.00000000000E+00  0.45593999997E+02  0.45594000000E+02  0.51100000000E-03 0.  1.
         11   -1    0    0    0    0 -0.00000000000E+00 -0.00000000000E+00 -0.45593999997E+02  0.45594000000E+02  0.51100000000E-03 0. -1.
         23    2    1    2    0    0  0.00000000000E+00  0.71054273576E-14  0.00000000000E+00  0.91188000000E+02  0.91188000000E+02 0.  0.
    9900012    2    3    3    0    0  0.15134722349E+02 -0.26372308398E+02 -0.20765861631E+02  0.54367089092E+02  0.40000011202E+02 0.  0.
        -12    1    3    3    0    0 -0.15134722349E+02  0.26372308398E+02  0.20765861631E+02  0.36820910908E+02  0.00000000000E+00 0.  1.
         11    1    4    4    0    0  0.10595021783E+02 -0.14657138227E+02 -0.31434596577E+01  0.18356675257E+02  0.51100000000E-03 0. -1.
        -11    1    4    4    0    0  0.13007528695E+02 -0.32775890717E+01 -0.19743925149E+02  0.23869666387E+02  0.51100000000E-03 0.  1.
        -12    1    4    4    0    0 -0.84678281282E+01 -0.84375810993E+01  0.21215231756E+01  0.12140747448E+02  0.00000000000E+00 0.  1.
</event>
<event>
 8    1  0.1262344E-006  0.9118800E+02  0.7816164E-02  0.1184000E+00
        -11   -1    0    0    0    0  0.00000000000E+00  0.00000000000E+00  0.45593999997E+02  0.45594000000E+02  0.51100000000E-03 0. -1.
         11   -1    0    0    0    0 -0.00000000000E+00 -0.00000000000E+00 -0.45593999997E+02  0.45594000000E+02  0.51100000000E-03 0.  1.
         23    2    1    2    0    0 -0.88817841970E-15  0.00000000000E+00  0.00000000000E+00  0.91188000000E+02  0.91188000000E+02 0.  0.
    9900012    2    3    3    0    0  0.42923539114E+01 -0.12136956020E+02 -0.34497092559E+02  0.54367090199E+02  0.40000013726E+02 0.  0.
         12    1    3    3    0    0 -0.42923539114E+01  0.12136956020E+02  0.34497092559E+02  0.36820909801E+02  0.00000000000E+00 0. -1.
         11    1    4    4    0    0  0.56584509479E+01  0.38787281266E+01 -0.45477561147E+01  0.82307159440E+01  0.51100000000E-03 0. -1.
        -11    1    4    4    0    0 -0.69032585057E+01  0.76402746557E+01 -0.12651431132E+02  0.16312188228E+02  0.51100000000E-03 0.  1.
         12    1    4    4    0    0  0.55371614692E+01 -0.23655958802E+02 -0.17297905312E+02  0.29824186027E+02  0.00000000000E+00 0. -1.
</event>
<event>
 8    1  0.1262344E-006  0.9118800E+02  0.7816164E-02  0.1184000E+00
        -11   -1    0    0    0    0  0.00000000000E+00  0.00000000000E+00  0.45593999997E+02  0.45594000000E+02  0.51100000000E-03 0.  1.
         11   -1    0    0    0    0 -0.00000000000E+00 -0.00000000000E+00 -0.45593999997E+02  0.45594000000E+02  0.51100000000E-03 0. -1.
         23    2    1    2    0    0 -0.71054273576E-14 -0.35527136788E-14 -0.17763568394E-14  0.91188000000E+02  0.91188000000E+02 0.  0.
    9900012    2    3    3    0    0  0.28857969043E+02 -0.20278279046E+02  0.10573026886E+02  0.54367083717E+02  0.39999998951E+02 0.  0.
         12    1    3    3    0    0 -0.28857969043E+02  0.20278279046E+02 -0.10573026886E+02  0.36820916283E+02  0.00000000000E+00 0. -1.
         11    1    4    4    0    0 -0.34884378500E+01 -0.21760963121E+01 -0.39341598181E+00  0.41302990435E+01  0.51100000000E-03 0. -1.
        -11    1    4    4    0    0  0.11367584212E+02  0.67312100813E+01  0.11805669717E+02  0.17717364299E+02  0.51100000000E-03 0.  1.
         12    1    4    4    0    0  0.20978822681E+02 -0.24833392815E+02 -0.83922684981E+00  0.32519420375E+02  0.00000000000E+00 0. -1.
</event>
<event>
 8    1  0.1262344E-006  0.9118800E+02  0.7816164E-02  0.1184000E+00
        -11   -1    0    0    0    0  0.00000000000E+00  0.00000000000E+00  0.45593999997E+02  0.45594000000E+02  0.51100000000E-03 0. -1.
         11   -1    0    0    0    0 -0.00000000000E+00 -0.00000000000E+00 -0.45593999997E+02  0.45594000000E+02  0.51100000000E-03 0.  1.
         23    2    1    2    0    0  0.00000000000E+00  0.00000000000E+00  0.00000000000E+00  0.91188000000E+02  0.91188000000E+02 0.  0.
    9900012    2    3    3    0    0 -0.30825707457E+01 -0.30801308021E+02 -0.19938807884E+02  0.54367097267E+02  0.40000029840E+02 0.  0.
         12    1    3    3    0    0  0.30825707457E+01  0.30801308021E+02  0.19938807884E+02  0.36820902733E+02  0.00000000000E+00 0. -1.
         11    1    4    4    0    0 -0.44692975241E+00 -0.15876243596E+02 -0.25872158148E+02  0.30358251340E+02  0.51100000000E-03 0. -1.
        -11    1    4    4    0    0  0.10731282461E+01 -0.11985204218E+02 -0.42643990197E+01  0.12766433474E+02  0.51100000000E-03 0.  1.
         12    1    4    4    0    0 -0.37087692394E+01 -0.29398602078E+01  0.10197749284E+02  0.11242412454E+02  0.00000000000E+00 0. -1.
</event>
<event>
 8    1  0.1262344E-006  0.9118800E+02  0.7816164E-02  0.1184000E+00
        -11   -1    0    0    0    0  0.00000000000E+00  0.00000000000E+00  0.45593999997E+02  0.45594000000E+02  0.51100000000E-03 0.  1.
         11   -1    0    0    0    0 -0.00000000000E+00 -0.00000000000E+00 -0.45593999997E+02  0.45594000000E+02  0.51100000000E-03 0. -1.
         23    2    1    2    0    0 -0.35527136788E-14 -0.35527136788E-14  0.35527136788E-14  0.91188000000E+02  0.91188000000E+02 0.  0.
    9900012    2    3    3    0    0 -0.16883771987E+02 -0.28415206242E+02  0.16226327519E+02  0.54367090084E+02  0.40000013466E+02 0.  0.
         12    1    3    3    0    0  0.16883771987E+02  0.28415206242E+02 -0.16226327519E+02  0.36820909916E+02  0.00000000000E+00 0. -1.
         11    1    4    4    0    0 -0.86703275541E+01 -0.22823394643E-01  0.68580838328E+01  0.11054791492E+02  0.51100000000E-03 0. -1.
        -11    1    4    4    0    0 -0.16008801202E+02 -0.87060085988E+01 -0.34702972813E+01  0.18550451885E+02  0.51100000000E-03 0.  1.
         12    1    4    4    0    0  0.77953567697E+01 -0.19686374248E+02  0.12838540968E+02  0.24761846708E+02  0.00000000000E+00 0. -1.
</event>
<event>
 8    1  0.1262344E-006  0.9118800E+02  0.7816164E-02  0.1184000E+00
        -11   -1    0    0    0    0  0.00000000000E+00  0.00000000000E+00  0.45593999997E+02  0.45594000000E+02  0.51100000000E-03 0. -1.
         11   -1    0    0    0    0 -0.00000000000E+00 -0.00000000000E+00 -0.45593999997E+02  0.45594000000E+02  0.51100000000E-03 0.  1.
         23    2    1    2    0    0  0.35527136788E-14  0.88817841970E-15  0.00000000000E+00  0.91188000000E+02  0.91188000000E+02 0.  0.
    9900012    2    3    3    0    0  0.31931319687E+02  0.20380691584E+01 -0.18221352341E+02  0.54367074102E+02  0.39999977030E+02 0.  0.
         12    1    3    3    0    0 -0.31931319687E+02 -0.20380691584E+01  0.18221352341E+02  0.36820925898E+02  0.00000000000E+00 0. -1.
         11    1    4    4    0    0  0.14390006937E+02  0.20988255342E+01 -0.40889255057E+01  0.15106180203E+02  0.51100000000E-03 0. -1.
        -11    1    4    4    0    0  0.20903639496E+02 -0.86455150842E+01 -0.28229990427E+00  0.22622704718E+02  0.51100000000E-03 0.  1.
         12    1    4    4    0    0 -0.33623267455E+01  0.85847587083E+01 -0.13850126931E+02  0.16638189181E+02  0.00000000000E+00 0. -1.
</event>
<event>
 8    1  0.1262344E-006  0.9118800E+02  0.7816164E-02  0.1184000E+00
        -11   -1    0    0    0    0  0.00000000000E+00  0.00000000000E+00  0.45593999997E+02  0.45594000000E+02  0.51100000000E-03 0. -1.
         11   -1    0    0    0    0 -0.00000000000E+00 -0.00000000000E+00 -0.45593999997E+02  0.45594000000E+02  0.51100000000E-03 0.  1.
         23    2    1    2    0    0 -0.17763568394E-14  0.00000000000E+00  0.00000000000E+00  0.91188000000E+02  0.91188000000E+02 0.  0.
    9900012    2    3    3    0    0 -0.14856299894E+02  0.24241151422E+02 -0.23397356347E+02  0.54367090820E+02  0.40000015143E+02 0.  0.
        -12    1    3    3    0    0  0.14856299894E+02 -0.24241151422E+02  0.23397356347E+02  0.36820909180E+02  0.00000000000E+00 0.  1.
         11    1    4    4    0    0 -0.16704885037E+02  0.11644993275E+02  0.38154508015E+01  0.20717546128E+02  0.51100000000E-03 0. -1.
        -11    1    4    4    0    0 -0.37478398088E+00 -0.32568983354E+01 -0.79742531037E+01  0.86218653795E+01  0.51100000000E-03 0.  1.
         12    1    4    4    0    0  0.22233691239E+01  0.15853056482E+02 -0.19238554045E+02  0.25027679313E+02  0.00000000000E+00 0. -1.
</event>
<event>
 8    1  0.1262344E-006  0.9118800E+02  0.7816164E-02  0.1184000E+00
        -11   -1    0    0    0    0  0.00000000000E+00  0.00000000000E+00  0.45593999997E+02  0.45594000000E+02  0.51100000000E-03 0.  1.
         11   -1    0    0    0    0 -0.00000000000E+00 -0.00000000000E+00 -0.45593999997E+02  0.45594000000E+02  0.51100000000E-03 0. -1.
         23    2    1    2    0    0  0.00000000000E+00  0.00000000000E+00  0.00000000000E+00  0.91188000000E+02  0.91188000000E+02 0.  0.
    9900012    2    3    3    0    0 -0.27350801783E+02 -0.57484097668E+01 -0.23972255014E+02  0.54367087688E+02  0.40000008003E+02 0.  0.
         12    1    3    3    0    0  0.27350801783E+02  0.57484097668E+01  0.23972255014E+02  0.36820912312E+02  0.00000000000E+00 0. -1.
         11    1    4    4    0    0 -0.33075091281E+02 -0.87242656732E+01 -0.13063272992E+02  0.36615892401E+02  0.51100000000E-03 0. -1.
        -11    1    4    4    0    0 -0.85658188943E+00  0.64822290830E+01 -0.54009947635E+01  0.84807883545E+01  0.51100000000E-03 0.  1.
         12    1    4    4    0    0  0.65808713872E+01 -0.35063731766E+01 -0.55079872583E+01  0.92704069332E+01  0.00000000000E+00 0. -1.
</event>
<event>
 8    1  0.1262344E-006  0.9118800E+02  0.7816164E-02  0.1184000E+00
        -11   -1    0    0    0    0  0.00000000000E+00  0.00000000000E+00  0.45593999997E+02  0.45594000000E+02  0.51100000000E-03 0. -1.
         11   -1    0    0    0    0 -0.00000000000E+00 -0.00000000000E+00 -0.45593999997E+02  0.45594000000E+02  0.51100000000E-03 0.  1.
         23    2    1    2    0    0  0.00000000000E+00 -0.17763568394E-14  0.00000000000E+00  0.91188000000E+02  0.91188000000E+02 0.  0.
    9900012    2    3    3    0    0  0.18762889246E+02  0.13319268635E+02 -0.28745965595E+02  0.54367089259E+02  0.40000011584E+02 0.  0.
         12    1    3    3    0    0 -0.18762889246E+02 -0.13319268635E+02  0.28745965595E+02  0.36820910741E+02  0.00000000000E+00 0. -1.
         11    1    4    4    0    0 -0.36437778233E+01  0.13831567287E+02  0.34323828625E+00  0.14307591804E+02  0.51100000000E-03 0. -1.
        -11    1    4    4    0    0  0.24258967426E+02 -0.29666054034E+01 -0.26383717782E+02  0.35963854249E+02  0.51100000000E-03 0.  1.
        -12    1    4    4    0    0 -0.18523003564E+01  0.24543067520E+01 -0.27054860986E+01  0.40956432062E+01  0.00000000000E+00 0.  1.
</event>
<event>
 8    1  0.1262344E-006  0.9118800E+02  0.7816164E-02  0.1184000E+00
        -11   -1    0    0    0    0  0.00000000000E+00  0.00000000000E+00  0.45593999997E+02  0.45594000000E+02  0.51100000000E-03 0. -1.
         11   -1    0    0    0    0 -0.00000000000E+00 -0.00000000000E+00 -0.45593999997E+02  0.45594000000E+02  0.51100000000E-03 0.  1.
         23    2    1    2    0    0  0.17763568394E-14 -0.71054273576E-14 -0.44408920985E-15  0.91188000000E+02  0.91188000000E+02 0.  0.
    9900012    2    3    3    0    0 -0.14444997390E+02  0.33703207051E+02  0.33490409518E+01  0.54367079447E+02  0.39999989215E+02 0.  0.
        -12    1    3    3    0    0  0.14444997390E+02 -0.33703207051E+02 -0.33490409518E+01  0.36820920553E+02  0.00000000000E+00 0.  1.
         11    1    4    4    0    0 -0.98394348695E+01  0.63002874417E+01  0.83661610262E+01  0.14370133993E+02  0.51100000000E-03 0. -1.
        -11    1    4    4    0    0 -0.16537352632E+02  0.13744880670E+02 -0.18096955795E+01  0.21579637974E+02  0.51100000000E-03 0.  1.
        -12    1    4    4    0    0  0.11931790112E+02  0.13658038939E+02 -0.32074244949E+01  0.18417307480E+02  0.00000000000E+00 0.  1.
</event>
<event>
 8    1  0.1262344E-006  0.9118800E+02  0.7816164E-02  0.1184000E+00
        -11   -1    0    0    0    0  0.00000000000E+00  0.00000000000E+00  0.45593999997E+02  0.45594000000E+02  0.51100000000E-03 0. -1.
         11   -1    0    0    0    0 -0.00000000000E+00 -0.00000000000E+00 -0.45593999997E+02  0.45594000000E+02  0.51100000000E-03 0.  1.
         23    2    1    2    0    0  0.35527136788E-14  0.44408920985E-15  0.00000000000E+00  0.91188000000E+02  0.91188000000E+02 0.  0.
    9900012    2    3    3    0    0  0.31782433977E+02  0.29728550085E+01  0.18352607579E+02  0.54367093148E+02  0.40000020450E+02 0.  0.
        -12    1    3    3    0    0 -0.31782433977E+02 -0.29728550085E+01 -0.18352607579E+02  0.36820906852E+02  0.00000000000E+00 0.  1.
         11    1    4    4    0    0  0.15821122291E+02 -0.99951124375E+01  0.26324704929E+02  0.32298611008E+02  0.51100000000E-03 0. -1.
        -11    1    4    4    0    0  0.10725882279E+02  0.84026589331E+01 -0.55429950397E+01  0.14709657442E+02  0.51100000000E-03 0.  1.
         12    1    4    4    0    0  0.52354294075E+01  0.45653085129E+01 -0.24291023101E+01  0.73588246977E+01  0.00000000000E+00 0. -1.
</event>
<event>
 8    1  0.1262344E-006  0.9118800E+02  0.7816164E-02  0.1184000E+00
        -11   -1    0    0    0    0  0.00000000000E+00  0.00000000000E+00  0.45593999997E+02  0.45594000000E+02  0.51100000000E-03 0. -1.
         11   -1    0    0    0    0 -0.00000000000E+00 -0.00000000000E+00 -0.45593999997E+02  0.45594000000E+02  0.51100000000E-03 0.  1.
         23    2    1    2    0    0  0.00000000000E+00  0.00000000000E+00  0.00000000000E+00  0.91188000000E+02  0.91188000000E+02 0.  0.
    9900012    2    3    3    0    0 -0.17246812158E+02  0.64496738028E+01  0.31886176726E+02  0.54367094416E+02  0.40000023340E+02 0.  0.
        -12    1    3    3    0    0  0.17246812158E+02 -0.64496738028E+01 -0.31886176726E+02  0.36820905584E+02  0.00000000000E+00 0.  1.
         11    1    4    4    0    0 -0.80745548217E+01 -0.12679351611E+02  0.23378954729E+02  0.27794602306E+02  0.51100000000E-03 0. -1.
        -11    1    4    4    0    0 -0.67694652400E+01  0.97678624142E+01  0.11416510502E+02  0.16479487494E+02  0.51100000000E-03 0.  1.
         12    1    4    4    0    0 -0.24027920967E+01  0.93611630000E+01 -0.29092885045E+01  0.10093004616E+02  0.00000000000E+00 0. -1.
</event>
<event>
 8    1  0.1262344E-006  0.9118800E+02  0.7816164E-02  0.1184000E+00
        -11   -1    0    0    0    0  0.00000000000E+00  0.00000000000E+00  0.45593999997E+02  0.45594000000E+02  0.51100000000E-03 0.  1.
         11   -1    0    0    0    0 -0.00000000000E+00 -0.00000000000E+00 -0.45593999997E+02  0.45594000000E+02  0.51100000000E-03 0. -1.
         23    2    1    2    0    0 -0.11102230246E-15  0.00000000000E+00  0.00000000000E+00  0.91188000000E+02  0.91188000000E+02 0.  0.
    9900012    2    3    3    0    0 -0.76383223271E+00 -0.36716529065E+02  0.26630745212E+01  0.54367096804E+02  0.40000028784E+02 0.  0.
        -12    1    3    3    0    0  0.76383223271E+00  0.36716529065E+02 -0.26630745212E+01  0.36820903196E+02  0.00000000000E+00 0.  1.
         11    1    4    4    0    0 -0.84638496996E+01 -0.27143924657E+02  0.12724977464E+02  0.31150512825E+02  0.51100000000E-03 0.  1.
        -11    1    4    4    0    0  0.10230441058E+02 -0.12061673911E+02 -0.42005817096E+01  0.16364314491E+02  0.51100000000E-03 0. -1.
        -12    1    4    4    0    0 -0.25304235914E+01  0.24890695036E+01 -0.58613212329E+01  0.68522694883E+01  0.00000000000E+00 0.  1.
</event>
<event>
 8    1  0.1262344E-006  0.9118800E+02  0.7816164E-02  0.1184000E+00
        -11   -1    0    0    0    0  0.00000000000E+00  0.00000000000E+00  0.45593999997E+02  0.45594000000E+02  0.51100000000E-03 0.  1.
         11   -1    0    0    0    0 -0.00000000000E+00 -0.00000000000E+00 -0.45593999997E+02  0.45594000000E+02  0.51100000000E-03 0. -1.
         23    2    1    2    0    0  0.00000000000E+00  0.00000000000E+00  0.00000000000E+00  0.91188000000E+02  0.91188000000E+02 0.  0.
    9900012    2    3    3    0    0  0.25715038418E+02 -0.26243110955E+02  0.24118411211E+01  0.54367067760E+02  0.39999962572E+02 0.  0.
         12    1    3    3    0    0 -0.25715038418E+02  0.26243110955E+02 -0.24118411211E+01  0.36820932240E+02  0.00000000000E+00 0. -1.
         11    1    4    4    0    0  0.91353129943E+00 -0.76074355441E+01  0.16626068738E+02  0.18306659361E+02  0.51100000000E-03 0. -1.
        -11    1    4    4    0    0  0.11181998833E+02 -0.69684820314E+01 -0.12300532762E+02  0.18024981171E+02  0.51100000000E-03 0.  1.
         12    1    4    4    0    0  0.13619508286E+02 -0.11667193379E+02 -0.19136948551E+01  0.18035427228E+02  0.00000000000E+00 0. -1.
</event>
<event>
 8    1  0.1262344E-006  0.9118800E+02  0.7816164E-02  0.1184000E+00
        -11   -1    0    0    0    0  0.00000000000E+00  0.00000000000E+00  0.45593999997E+02  0.45594000000E+02  0.51100000000E-03 0. -1.
         11   -1    0    0    0    0 -0.00000000000E+00 -0.00000000000E+00 -0.45593999997E+02  0.45594000000E+02  0.51100000000E-03 0.  1.
         23    2    1    2    0    0 -0.71054273576E-14 -0.35527136788E-14  0.00000000000E+00  0.91188000000E+02  0.91188000000E+02 0.  0.
    9900012    2    3    3    0    0  0.19076468032E+02 -0.28331295795E+02  0.13755261347E+02  0.54367066162E+02  0.39999958929E+02 0.  0.
        -12    1    3    3    0    0 -0.19076468032E+02  0.28331295795E+02 -0.13755261347E+02  0.36820933838E+02  0.00000000000E+00 0.  1.
         11    1    4    4    0    0 -0.56397521128E+01  0.16118958712E+01  0.13135589286E+02  0.14385712298E+02  0.51100000000E-03 0. -1.
        -11    1    4    4    0    0  0.21267974967E+01 -0.42773409855E+01 -0.29344236190E+01  0.56062247311E+01  0.51100000000E-03 0.  1.
         12    1    4    4    0    0  0.22589422648E+02 -0.25665850681E+02  0.35540956807E+01  0.34375129132E+02  0.00000000000E+00 0. -1.
</event>
<event>
 8    1  0.1262344E-006  0.9118800E+02  0.7816164E-02  0.1184000E+00
        -11   -1    0    0    0    0  0.00000000000E+00  0.00000000000E+00  0.45593999997E+02  0.45594000000E+02  0.51100000000E-03 0.  1.
         11   -1    0    0    0    0 -0.00000000000E+00 -0.00000000000E+00 -0.45593999997E+02  0.45594000000E+02  0.51100000000E-03 0. -1.
         23    2    1    2    0    0  0.00000000000E+00  0.00000000000E+00  0.00000000000E+00  0.91188000000E+02  0.91188000000E+02 0.  0.
    9900012    2    3    3    0    0  0.25959017429E+02 -0.25031072589E+02  0.74401150263E+01  0.54367075345E+02  0.39999979864E+02 0.  0.
        -12    1    3    3    0    0 -0.25959017429E+02  0.25031072589E+02 -0.74401150263E+01  0.36820924655E+02  0.00000000000E+00 0.  1.
         11    1    4    4    0    0  0.79261323688E+01 -0.60853439947E+01 -0.12925609266E+02  0.16337881167E+02  0.51100000000E-03 0. -1.
        -11    1    4    4    0    0  0.11025280581E+02 -0.77055875253E+01  0.20806899328E+02  0.24776197265E+02  0.51100000000E-03 0.  1.
        -12    1    4    4    0    0  0.70076044786E+01 -0.11240141069E+02 -0.44117503537E+00  0.13252996914E+02  0.00000000000E+00 0.  1.
</event>
<event>
 8    1  0.1262344E-006  0.9118800E+02  0.7816164E-02  0.1184000E+00
        -11   -1    0    0    0    0  0.00000000000E+00  0.00000000000E+00  0.45593999997E+02  0.45594000000E+02  0.51100000000E-03 0.  1.
         11   -1    0    0    0    0 -0.00000000000E+00 -0.00000000000E+00 -0.45593999997E+02  0.45594000000E+02  0.51100000000E-03 0. -1.
         23    2    1    2    0    0  0.00000000000E+00  0.00000000000E+00 -0.71054273576E-14  0.91188000000E+02  0.91188000000E+02 0.  0.
    9900012    2    3    3    0    0  0.20566894114E+02 -0.12912257818E+02  0.27677690912E+02  0.54367107701E+02  0.40000053626E+02 0.  0.
         12    1    3    3    0    0 -0.20566894114E+02  0.12912257818E+02 -0.27677690912E+02  0.36820892299E+02  0.00000000000E+00 0. -1.
         11    1    4    4    0    0 -0.48580502236E+01 -0.11244212613E+02  0.26502021001E+01  0.12532220102E+02  0.51100000000E-03 0. -1.
        -11    1    4    4    0    0  0.48843545711E+01 -0.88565881288E+01  0.23076178344E+01  0.10374062521E+02  0.51100000000E-03 0.  1.
         12    1    4    4    0    0  0.20540589766E+02  0.71885429232E+01  0.22719870978E+02  0.31460825078E+02  0.00000000000E+00 0. -1.
</event>
<event>
 8    1  0.1262344E-006  0.9118800E+02  0.7816164E-02  0.1184000E+00
        -11   -1    0    0    0    0  0.00000000000E+00  0.00000000000E+00  0.45593999997E+02  0.45594000000E+02  0.51100000000E-03 0. -1.
         11   -1    0    0    0    0 -0.00000000000E+00 -0.00000000000E+00 -0.45593999997E+02  0.45594000000E+02  0.51100000000E-03 0.  1.
         23    2    1    2    0    0 -0.17763568394E-14 -0.71054273576E-14  0.17763568394E-14  0.91188000000E+02  0.91188000000E+02 0.  0.
    9900012    2    3    3    0    0 -0.91121666211E+01 -0.35616093804E+02  0.20595470985E+01  0.54367089465E+02  0.40000012053E+02 0.  0.
         12    1    3    3    0    0  0.91121666211E+01  0.35616093804E+02 -0.20595470985E+01  0.36820910535E+02  0.00000000000E+00 0. -1.
         11    1    4    4    0    0 -0.43361843998E+01 -0.10946103446E+02 -0.85651265836E+01  0.14559569686E+02  0.51100000000E-03 0. -1.
        -11    1    4    4    0    0  0.54783810773E+01 -0.22827035130E+02 -0.18574784114E+01  0.23548596951E+02  0.51100000000E-03 0.  1.
         12    1    4    4    0    0 -0.10254363299E+02 -0.18429552288E+01  0.12482152093E+02  0.16258922828E+02  0.00000000000E+00 0. -1.
</event>
<event>
 8    1  0.1262344E-006  0.9118800E+02  0.7816164E-02  0.1184000E+00
        -11   -1    0    0    0    0  0.00000000000E+00  0.00000000000E+00  0.45593999997E+02  0.45594000000E+02  0.51100000000E-03 0.  1.
         11   -1    0    0    0    0 -0.00000000000E+00 -0.00000000000E+00 -0.45593999997E+02  0.45594000000E+02  0.51100000000E-03 0. -1.
         23    2    1    2    0    0  0.00000000000E+00  0.35527136788E-14 -0.35527136788E-14  0.91188000000E+02  0.91188000000E+02 0.  0.
    9900012    2    3    3    0    0 -0.23417475331E+02  0.23068738822E+02 -0.16590291996E+02  0.54367046044E+02  0.39999913066E+02 0.  0.
        -12    1    3    3    0    0  0.23417475331E+02 -0.23068738822E+02  0.16590291996E+02  0.36820953956E+02  0.00000000000E+00 0.  1.
         11    1    4    4    0    0 -0.11840767766E+02  0.25381441278E+02 -0.11664288804E+02  0.30339363477E+02  0.51100000000E-03 0. -1.
        -11    1    4    4    0    0 -0.78459896874E+01  0.25205273692E+01  0.68806624145E+01  0.10735740679E+02  0.51100000000E-03 0.  1.
        -12    1    4    4    0    0 -0.37307178778E+01 -0.48332298247E+01 -0.11806665606E+02  0.13291941888E+02  0.00000000000E+00 0.  1.
</event>
<event>
 8    1  0.1262344E-006  0.9118800E+02  0.7816164E-02  0.1184000E+00
        -11   -1    0    0    0    0  0.00000000000E+00  0.00000000000E+00  0.45593999997E+02  0.45594000000E+02  0.51100000000E-03 0.  1.
         11   -1    0    0    0    0 -0.00000000000E+00 -0.00000000000E+00 -0.45593999997E+02  0.45594000000E+02  0.51100000000E-03 0. -1.
         23    2    1    2    0    0 -0.35527136788E-14  0.00000000000E+00 -0.35527136788E-14  0.91188000000E+02  0.91188000000E+02 0.  0.
    9900012    2    3    3    0    0  0.27334627020E+02  0.11152213334E+01  0.24644560484E+02  0.54367083194E+02  0.39999997758E+02 0.  0.
         12    1    3    3    0    0 -0.27334627020E+02 -0.11152213334E+01 -0.24644560484E+02  0.36820916806E+02  0.00000000000E+00 0. -1.
         11    1    4    4    0    0 -0.29091460497E+01  0.67321822274E+01  0.17255649457E+02  0.18749475906E+02  0.51100000000E-03 0. -1.
        -11    1    4    4    0    0  0.67901800808E+01 -0.33728411431E+01  0.92773791586E+01  0.11981334117E+02  0.51100000000E-03 0.  1.
        -12    1    4    4    0    0  0.23453592989E+02 -0.22441197509E+01 -0.18884681317E+01  0.23636273172E+02  0.00000000000E+00 0.  1.
</event>
<event>
 8    1  0.1262344E-006  0.9118800E+02  0.7816164E-02  0.1184000E+00
        -11   -1    0    0    0    0  0.00000000000E+00  0.00000000000E+00  0.45593999997E+02  0.45594000000E+02  0.51100000000E-03 0.  1.
         11   -1    0    0    0    0 -0.00000000000E+00 -0.00000000000E+00 -0.45593999997E+02  0.45594000000E+02  0.51100000000E-03 0. -1.
         23    2    1    2    0    0  0.00000000000E+00 -0.35527136788E-14  0.00000000000E+00  0.91188000000E+02  0.91188000000E+02 0.  0.
    9900012    2    3    3    0    0 -0.28143287309E+02  0.17218793887E+02  0.16347752844E+02  0.54367075154E+02  0.39999979429E+02 0.  0.
        -12    1    3    3    0    0  0.28143287309E+02 -0.17218793887E+02 -0.16347752844E+02  0.36820924846E+02  0.00000000000E+00 0.  1.
         11    1    4    4    0    0 -0.77437023352E+01  0.14707023071E+02 -0.16156999450E+01  0.16699459274E+02  0.51100000000E-03 0. -1.
        -11    1    4    4    0    0  0.52808583006E+01  0.40439941772E+01  0.71379063486E+01  0.97565906238E+01  0.51100000000E-03 0.  1.
         12    1    4    4    0    0 -0.25680443274E+02 -0.15322233610E+01  0.10825546440E+02  0.27911025257E+02  0.00000000000E+00 0. -1.
</event>
<event>
 8    1  0.1262344E-006  0.9118800E+02  0.7816164E-02  0.1184000E+00
        -11   -1    0    0    0    0  0.00000000000E+00  0.00000000000E+00  0.45593999997E+02  0.45594000000E+02  0.51100000000E-03 0. -1.
         11   -1    0    0    0    0 -0.00000000000E+00 -0.00000000000E+00 -0.45593999997E+02  0.45594000000E+02  0.51100000000E-03 0.  1.
         23    2    1    2    0    0 -0.35527136788E-14  0.35527136788E-14  0.88817841970E-15  0.91188000000E+02  0.91188000000E+02 0.  0.
    9900012    2    3    3    0    0  0.19084186802E+02 -0.30865822217E+02  0.62343332637E+01  0.54367189604E+02  0.40000240338E+02 0.  0.
        -12    1    3    3    0    0 -0.19084186802E+02  0.30865822217E+02 -0.62343332637E+01  0.36820810396E+02  0.00000000000E+00 0.  1.
         11    1    4    4    0    0  0.73753266318E+01 -0.19896852457E+02  0.19488860708E+02  0.28811384427E+02  0.51100000000E-03 0. -1.
        -11    1    4    4    0    0  0.95326705541E+01  0.10273211935E+01 -0.48257712008E+01  0.10733837369E+02  0.51100000000E-03 0.  1.
        -12    1    4    4    0    0  0.21761896163E+01 -0.11996290953E+02 -0.84287562435E+01  0.14821967808E+02  0.00000000000E+00 0.  1.
</event>
<event>
 8    1  0.1262344E-006  0.9118800E+02  0.7816164E-02  0.1184000E+00
        -11   -1    0    0    0    0  0.00000000000E+00  0.00000000000E+00  0.45593999997E+02  0.45594000000E+02  0.51100000000E-03 0. -1.
         11   -1    0    0    0    0 -0.00000000000E+00 -0.00000000000E+00 -0.45593999997E+02  0.45594000000E+02  0.51100000000E-03 0.  1.
         23    2    1    2    0    0  0.00000000000E+00  0.35527136788E-14  0.00000000000E+00  0.91188000000E+02  0.91188000000E+02 0.  0.
    9900012    2    3    3    0    0  0.18804186063E+02 -0.22442203166E+02 -0.22327785281E+02  0.54367083499E+02  0.39999998452E+02 0.  0.
         12    1    3    3    0    0 -0.18804186063E+02  0.22442203166E+02  0.22327785281E+02  0.36820916501E+02  0.00000000000E+00 0. -1.
         11    1    4    4    0    0 -0.29072912778E+01 -0.20754991707E+02 -0.39368156930E+01  0.21324177391E+02  0.51100000000E-03 0. -1.
        -11    1    4    4    0    0  0.12687691946E+02 -0.91234281383E+01 -0.12105738348E+02  0.19767735559E+02  0.51100000000E-03 0.  1.
         12    1    4    4    0    0  0.90237853950E+01  0.74362166797E+01 -0.62852312404E+01  0.13275170549E+02  0.00000000000E+00 0. -1.
</event>
<event>
 8    1  0.1262344E-006  0.9118800E+02  0.7816164E-02  0.1184000E+00
        -11   -1    0    0    0    0  0.00000000000E+00  0.00000000000E+00  0.45593999997E+02  0.45594000000E+02  0.51100000000E-03 0.  1.
         11   -1    0    0    0    0 -0.00000000000E+00 -0.00000000000E+00 -0.45593999997E+02  0.45594000000E+02  0.51100000000E-03 0. -1.
         23    2    1    2    0    0  0.00000000000E+00  0.00000000000E+00 -0.17763568394E-14  0.91188000000E+02  0.91188000000E+02 0.  0.
    9900012    2    3    3    0    0  0.35403777276E+02 -0.36559486905E+01  0.94331336807E+01  0.54367117104E+02  0.40000075061E+02 0.  0.
         12    1    3    3    0    0 -0.35403777276E+02  0.36559486905E+01 -0.94331336807E+01  0.36820882896E+02  0.00000000000E+00 0. -1.
         11    1    4    4    0    0  0.15870047354E+02  0.31153707078E+01  0.17180650121E+02  0.23595310477E+02  0.51100000000E-03 0.  1.
        -11    1    4    4    0    0  0.22531754535E+02 -0.91013439522E+01 -0.10088183499E+02  0.26311325903E+02  0.51100000000E-03 0. -1.
         12    1    4    4    0    0 -0.29980246140E+01  0.23300245540E+01  0.23406670594E+01  0.44604807242E+01  0.00000000000E+00 0. -1.
</event>
<event>
 8    1  0.1262344E-006  0.9118800E+02  0.7816164E-02  0.1184000E+00
        -11   -1    0    0    0    0  0.00000000000E+00  0.00000000000E+00  0.45593999997E+02  0.45594000000E+02  0.51100000000E-03 0.  1.
         11   -1    0    0    0    0 -0.00000000000E+00 -0.00000000000E+00 -0.45593999997E+02  0.45594000000E+02  0.51100000000E-03 0. -1.
         23    2    1    2    0    0 -0.13322676296E-14  0.00000000000E+00 -0.17763568394E-14  0.91188000000E+02  0.91188000000E+02 0.  0.
    9900012    2    3    3    0    0 -0.31093134040E+01 -0.33849697097E+02 -0.14153058569E+02  0.54367097102E+02  0.40000029464E+02 0.  0.
        -12    1    3    3    0    0  0.31093134040E+01  0.33849697097E+02  0.14153058569E+02  0.36820902898E+02  0.00000000000E+00 0.  1.
         11    1    4    4    0    0 -0.58778350495E+01 -0.10744127776E+02 -0.20743068375E+02  0.24088588842E+02  0.51100000000E-03 0. -1.
        -11    1    4    4    0    0 -0.69839169809E+01 -0.39909988413E+01  0.25870544019E+01  0.84496164935E+01  0.51100000000E-03 0.  1.
        -12    1    4    4    0    0  0.97524386265E+01 -0.19114570480E+02  0.40029554044E+01  0.21828891766E+02  0.00000000000E+00 0.  1.
</event>
<event>
 8    1  0.1262344E-006  0.9118800E+02  0.7816164E-02  0.1184000E+00
        -11   -1    0    0    0    0  0.00000000000E+00  0.00000000000E+00  0.45593999997E+02  0.45594000000E+02  0.51100000000E-03 0. -1.
         11   -1    0    0    0    0 -0.00000000000E+00 -0.00000000000E+00 -0.45593999997E+02  0.45594000000E+02  0.51100000000E-03 0.  1.
         23    2    1    2    0    0  0.00000000000E+00 -0.17763568394E-14  0.35527136788E-14  0.91188000000E+02  0.91188000000E+02 0.  0.
    9900012    2    3    3    0    0  0.26162687912E+02  0.37644425332E+01  0.25634403135E+02  0.54367083519E+02  0.39999998499E+02 0.  0.
        -12    1    3    3    0    0 -0.26162687912E+02 -0.37644425332E+01 -0.25634403135E+02  0.36820916481E+02  0.00000000000E+00 0.  1.
         11    1    4    4    0    0  0.23074556353E+02 -0.70633334302E+01  0.75803331700E+01  0.25294016709E+02  0.51100000000E-03 0. -1.
        -11    1    4    4    0    0 -0.34137079250E+01  0.11993738096E+02  0.32871474104E+01  0.12896065046E+02  0.51100000000E-03 0.  1.
        -12    1    4    4    0    0  0.65018394841E+01 -0.11659621322E+01  0.14766922555E+02  0.16177001765E+02  0.00000000000E+00 0.  1.
</event>
<event>
 8    1  0.1262344E-006  0.9118800E+02  0.7816164E-02  0.1184000E+00
        -11   -1    0    0    0    0  0.00000000000E+00  0.00000000000E+00  0.45593999997E+02  0.45594000000E+02  0.51100000000E-03 0.  1.
         11   -1    0    0    0    0 -0.00000000000E+00 -0.00000000000E+00 -0.45593999997E+02  0.45594000000E+02  0.51100000000E-03 0. -1.
         23    2    1    2    0    0 -0.71054273576E-14 -0.71054273576E-14 -0.17763568394E-14  0.91188000000E+02  0.91188000000E+02 0.  0.
    9900012    2    3    3    0    0  0.25227404974E+02  0.24833034998E+02  0.10133054693E+02  0.54367076786E+02  0.39999983148E+02 0.  0.
         12    1    3    3    0    0 -0.25227404974E+02 -0.24833034998E+02 -0.10133054693E+02  0.36820923214E+02  0.00000000000E+00 0. -1.
         11    1    4    4    0    0 -0.67168661351E+01  0.23808223221E+01 -0.30961787720E+00  0.71330546821E+01  0.51100000000E-03 0. -1.
        -11    1    4    4    0    0 -0.40767137863E+01  0.29229108423E+01  0.31304053676E+00  0.50260320061E+01  0.51100000000E-03 0.  1.
        -12    1    4    4    0    0  0.36020984895E+02  0.19529301834E+02  0.10129632034E+02  0.42207990098E+02  0.00000000000E+00 0.  1.
</event>
<event>
 8    1  0.1262344E-006  0.9118800E+02  0.7816164E-02  0.1184000E+00
        -11   -1    0    0    0    0  0.00000000000E+00  0.00000000000E+00  0.45593999997E+02  0.45594000000E+02  0.51100000000E-03 0. -1.
         11   -1    0    0    0    0 -0.00000000000E+00 -0.00000000000E+00 -0.45593999997E+02  0.45594000000E+02  0.51100000000E-03 0.  1.
         23    2    1    2    0    0  0.00000000000E+00 -0.88817841970E-15  0.00000000000E+00  0.91188000000E+02  0.91188000000E+02 0.  0.
    9900012    2    3    3    0    0 -0.24350757447E+02 -0.56956784167E+01 -0.27025499782E+02  0.54367112187E+02  0.40000063853E+02 0.  0.
         12    1    3    3    0    0  0.24350757447E+02  0.56956784167E+01  0.27025499782E+02  0.36820887813E+02  0.00000000000E+00 0. -1.
         11    1    4    4    0    0 -0.22289293279E+01 -0.10285658429E+02  0.39732615613E+01  0.11249431229E+02  0.51100000000E-03 0. -1.
        -11    1    4    4    0    0 -0.20026571270E+02 -0.18608054328E+01 -0.30205254062E+02  0.36288889855E+02  0.51100000000E-03 0.  1.
        -12    1    4    4    0    0 -0.20952568486E+01  0.64507854454E+01 -0.79350728119E+00  0.68287911031E+01  0.00000000000E+00 0.  1.
</event>
<event>
 8    1  0.1262344E-006  0.9118800E+02  0.7816164E-02  0.1184000E+00
        -11   -1    0    0    0    0  0.00000000000E+00  0.00000000000E+00  0.45593999997E+02  0.45594000000E+02  0.51100000000E-03 0.  1.
         11   -1    0    0    0    0 -0.00000000000E+00 -0.00000000000E+00 -0.45593999997E+02  0.45594000000E+02  0.51100000000E-03 0. -1.
         23    2    1    2    0    0 -0.17763568394E-14  0.00000000000E+00  0.00000000000E+00  0.91188000000E+02  0.91188000000E+02 0.  0.
    9900012    2    3    3    0    0  0.95288011078E+01  0.33855191522E+02  0.10899905585E+02  0.54367082232E+02  0.39999995564E+02 0.  0.
         12    1    3    3    0    0 -0.95288011078E+01 -0.33855191522E+02 -0.10899905585E+02  0.36820917768E+02  0.00000000000E+00 0. -1.
         11    1    4    4    0    0  0.19103668529E+01 -0.62786972403E+01  0.13922360206E+01  0.67089389583E+01  0.51100000000E-03 0. -1.
        -11    1    4    4    0    0  0.14092631149E+02  0.21421098598E+02 -0.11806337494E+00  0.25641366131E+02  0.51100000000E-03 0.  1.
         12    1    4    4    0    0 -0.64741968939E+01  0.18712790163E+02  0.96257329393E+01  0.22016777142E+02  0.00000000000E+00 0. -1.
</event>
<event>
 8    1  0.1262344E-006  0.9118800E+02  0.7816164E-02  0.1184000E+00
        -11   -1    0    0    0    0  0.00000000000E+00  0.00000000000E+00  0.45593999997E+02  0.45594000000E+02  0.51100000000E-03 0.  1.
         11   -1    0    0    0    0 -0.00000000000E+00 -0.00000000000E+00 -0.45593999997E+02  0.45594000000E+02  0.51100000000E-03 0. -1.
         23    2    1    2    0    0 -0.35527136788E-14  0.00000000000E+00  0.00000000000E+00  0.91188000000E+02  0.91188000000E+02 0.  0.
    9900012    2    3    3    0    0 -0.19377048595E+02 -0.28359749105E+02  0.13267836144E+02  0.54367070388E+02  0.39999968563E+02 0.  0.
        -12    1    3    3    0    0  0.19377048595E+02  0.28359749105E+02 -0.13267836144E+02  0.36820929612E+02  0.00000000000E+00 0.  1.
         11    1    4    4    0    0  0.83840254272E+01  0.45353681715E+00  0.43625255191E-01  0.83963969315E+01  0.51100000000E-03 0. -1.
        -11    1    4    4    0    0 -0.87741101475E+00  0.22408067806E+01  0.26040673108E+01  0.35457343297E+01  0.51100000000E-03 0.  1.
         12    1    4    4    0    0 -0.26883663007E+02 -0.31054092703E+02  0.10620143578E+02  0.42424939127E+02  0.00000000000E+00 0. -1.
</event>
<event>
 8    1  0.1262344E-006  0.9118800E+02  0.7816164E-02  0.1184000E+00
        -11   -1    0    0    0    0  0.00000000000E+00  0.00000000000E+00  0.45593999997E+02  0.45594000000E+02  0.51100000000E-03 0. -1.
         11   -1    0    0    0    0 -0.00000000000E+00 -0.00000000000E+00 -0.45593999997E+02  0.45594000000E+02  0.51100000000E-03 0.  1.
         23    2    1    2    0    0 -0.35527136788E-14  0.00000000000E+00  0.00000000000E+00  0.91188000000E+02  0.91188000000E+02 0.  0.
    9900012    2    3    3    0    0 -0.18217989476E+02  0.27886506969E+02 -0.15691646729E+02  0.54367079471E+02  0.39999989271E+02 0.  0.
         12    1    3    3    0    0  0.18217989476E+02 -0.27886506969E+02  0.15691646729E+02  0.36820920529E+02  0.00000000000E+00 0. -1.
         11    1    4    4    0    0 -0.25294332031E+02  0.27840849739E+02 -0.87967922061E+01  0.38630295112E+02  0.51100000000E-03 0.  1.
        -11    1    4    4    0    0  0.49895843713E+01 -0.36158706173E+00  0.28535007827E+01  0.57592676948E+01  0.51100000000E-03 0. -1.
         12    1    4    4    0    0  0.20867581831E+01  0.40724429189E+00 -0.97483553055E+01  0.99775166645E+01  0.00000000000E+00 0. -1.
</event>
<event>
 8    1  0.1262344E-006  0.9118800E+02  0.7816164E-02  0.1184000E+00
        -11   -1    0    0    0    0  0.00000000000E+00  0.00000000000E+00  0.45593999997E+02  0.45594000000E+02  0.51100000000E-03 0. -1.
         11   -1    0    0    0    0 -0.00000000000E+00 -0.00000000000E+00 -0.45593999997E+02  0.45594000000E+02  0.51100000000E-03 0.  1.
         23    2    1    2    0    0  0.66613381478E-15  0.00000000000E+00 -0.71054273576E-14  0.91188000000E+02  0.91188000000E+02 0.  0.
    9900012    2    3    3    0    0  0.14401482792E+01  0.81222382706E+01 -0.35885078020E+02  0.54367033064E+02  0.39999883476E+02 0.  0.
         12    1    3    3    0    0 -0.14401482792E+01 -0.81222382706E+01  0.35885078020E+02  0.36820966936E+02  0.00000000000E+00 0. -1.
         11    1    4    4    0    0  0.46446775891E+01 -0.34026928208E+01 -0.54627838741E+01  0.79368354056E+01  0.51100000000E-03 0. -1.
        -11    1    4    4    0    0  0.25028800047E+01  0.14869234417E+02  0.22200452986E+00  0.15080047306E+02  0.51100000000E-03 0.  1.
        -12    1    4    4    0    0 -0.57074093146E+01 -0.33443033256E+01 -0.30644298676E+02  0.31350150353E+02  0.00000000000E+00 0.  1.
</event>
<event>
 8    1  0.1262344E-006  0.9118800E+02  0.7816164E-02  0.1184000E+00
        -11   -1    0    0    0    0  0.00000000000E+00  0.00000000000E+00  0.45593999997E+02  0.45594000000E+02  0.51100000000E-03 0.  1.
         11   -1    0    0    0    0 -0.00000000000E+00 -0.00000000000E+00 -0.45593999997E+02  0.45594000000E+02  0.51100000000E-03 0. -1.
         23    2    1    2    0    0 -0.35527136788E-14  0.00000000000E+00  0.17763568394E-14  0.91188000000E+02  0.91188000000E+02 0.  0.
    9900012    2    3    3    0    0  0.29453827134E+02  0.19327775510E+02 -0.10709320001E+02  0.54367076955E+02  0.39999983534E+02 0.  0.
        -12    1    3    3    0    0 -0.29453827134E+02 -0.19327775510E+02  0.10709320001E+02  0.36820923045E+02  0.00000000000E+00 0.  1.
         11    1    4    4    0    0  0.96693826264E+01 -0.31787934909E+01  0.61064696819E+01  0.11869737178E+02  0.51100000000E-03 0. -1.
        -11    1    4    4    0    0  0.13465447668E+02  0.26883233696E+02 -0.86582515669E+01  0.31288845541E+02  0.51100000000E-03 0.  1.
         12    1    4    4    0    0  0.63189968397E+01 -0.43766646948E+01 -0.81575381165E+01  0.11208494236E+02  0.00000000000E+00 0. -1.
</event>
<event>
 8    1  0.1262344E-006  0.9118800E+02  0.7816164E-02  0.1184000E+00
        -11   -1    0    0    0    0  0.00000000000E+00  0.00000000000E+00  0.45593999997E+02  0.45594000000E+02  0.51100000000E-03 0.  1.
         11   -1    0    0    0    0 -0.00000000000E+00 -0.00000000000E+00 -0.45593999997E+02  0.45594000000E+02  0.51100000000E-03 0. -1.
         23    2    1    2    0    0  0.00000000000E+00 -0.22204460493E-15  0.00000000000E+00  0.91188000000E+02  0.91188000000E+02 0.  0.
    9900012    2    3    3    0    0  0.13268490603E+01 -0.10221489299E+01  0.36782804278E+02  0.54367081931E+02  0.39999994879E+02 0.  0.
         12    1    3    3    0    0 -0.13268490603E+01  0.10221489299E+01 -0.36782804278E+02  0.36820918069E+02  0.00000000000E+00 0. -1.
         11    1    4    4    0    0  0.12698522300E+01 -0.14128972788E+02  0.14858272313E+02  0.20542849197E+02  0.51100000000E-03 0. -1.
        -11    1    4    4    0    0  0.74205229562E+01  0.14849935735E+02  0.20046165705E+02  0.26027552939E+02  0.51100000000E-03 0.  1.
        -12    1    4    4    0    0 -0.73635261258E+01 -0.17431118775E+01  0.18783662601E+01  0.77966797953E+01  0.00000000000E+00 0.  1.
</event>
<event>
 8    1  0.1262344E-006  0.9118800E+02  0.7816164E-02  0.1184000E+00
        -11   -1    0    0    0    0  0.00000000000E+00  0.00000000000E+00  0.45593999997E+02  0.45594000000E+02  0.51100000000E-03 0.  1.
         11   -1    0    0    0    0 -0.00000000000E+00 -0.00000000000E+00 -0.45593999997E+02  0.45594000000E+02  0.51100000000E-03 0. -1.
         23    2    1    2    0    0  0.17763568394E-14  0.17763568394E-14 -0.71054273576E-14  0.91188000000E+02  0.91188000000E+02 0.  0.
    9900012    2    3    3    0    0 -0.13270732195E+02 -0.14380034949E+02  0.31191054188E+02  0.54367087471E+02  0.40000007508E+02 0.  0.
         12    1    3    3    0    0  0.13270732195E+02  0.14380034949E+02 -0.31191054188E+02  0.36820912529E+02  0.00000000000E+00 0. -1.
         11    1    4    4    0    0 -0.10633397295E+02 -0.69209080554E+01 -0.40640529159E+01  0.13322335858E+02  0.51100000000E-03 0. -1.
        -11    1    4    4    0    0  0.23553609594E+01  0.49148559173E+01  0.31920720911E+01  0.63160793561E+01  0.51100000000E-03 0.  1.
        -12    1    4    4    0    0 -0.49926958590E+01 -0.12373982810E+02  0.32063035013E+02  0.34728672257E+02  0.00000000000E+00 0.  1.
</event>
<event>
 8    1  0.1262344E-006  0.9118800E+02  0.7816164E-02  0.1184000E+00
        -11   -1    0    0    0    0  0.00000000000E+00  0.00000000000E+00  0.45593999997E+02  0.45594000000E+02  0.51100000000E-03 0. -1.
         11   -1    0    0    0    0 -0.00000000000E+00 -0.00000000000E+00 -0.45593999997E+02  0.45594000000E+02  0.51100000000E-03 0.  1.
         23    2    1    2    0    0  0.00000000000E+00  0.35527136788E-14  0.35527136788E-14  0.91188000000E+02  0.91188000000E+02 0.  0.
    9900012    2    3    3    0    0 -0.17555878523E+02 -0.26613524968E+02 -0.18419862203E+02  0.54367083315E+02  0.39999998033E+02 0.  0.
        -12    1    3    3    0    0  0.17555878523E+02  0.26613524968E+02  0.18419862203E+02  0.36820916685E+02  0.00000000000E+00 0.  1.
         11    1    4    4    0    0 -0.20037197267E+02 -0.14642821969E+02 -0.17950717305E+02  0.30628904021E+02  0.51100000000E-03 0. -1.
        -11    1    4    4    0    0  0.13013589200E+01 -0.62726626320E+01 -0.10407795650E+02  0.12221376440E+02  0.51100000000E-03 0.  1.
         12    1    4    4    0    0  0.11799598244E+01 -0.56980403678E+01  0.99386507513E+01  0.11516802854E+02  0.00000000000E+00 0. -1.
</event>
<event>
 8    1  0.1262344E-006  0.9118800E+02  0.7816164E-02  0.1184000E+00
        -11   -1    0    0    0    0  0.00000000000E+00  0.00000000000E+00  0.45593999997E+02  0.45594000000E+02  0.51100000000E-03 0.  1.
         11   -1    0    0    0    0 -0.00000000000E+00 -0.00000000000E+00 -0.45593999997E+02  0.45594000000E+02  0.51100000000E-03 0. -1.
         23    2    1    2    0    0  0.35527136788E-14 -0.44408920985E-15 -0.35527136788E-14  0.91188000000E+02  0.91188000000E+02 0.  0.
    9900012    2    3    3    0    0  0.30619192825E+02 -0.29277216010E+01  0.20240405909E+02  0.54367074503E+02  0.39999977945E+02 0.  0.
         12    1    3    3    0    0 -0.30619192825E+02  0.29277216010E+01 -0.20240405909E+02  0.36820925497E+02  0.00000000000E+00 0. -1.
         11    1    4    4    0    0  0.24688634435E+02 -0.14122661371E+01 -0.13244911449E+01  0.24764439080E+02  0.51100000000E-03 0. -1.
        -11    1    4    4    0    0  0.36741209287E+01 -0.85070354398E+01  0.20069212996E+02  0.22105251121E+02  0.51100000000E-03 0.  1.
         12    1    4    4    0    0  0.22564374620E+01  0.69915799759E+01  0.14956840582E+01  0.74973843027E+01  0.00000000000E+00 0. -1.
</event>
<event>
 8    1  0.1262344E-006  0.9118800E+02  0.7816164E-02  0.1184000E+00
        -11   -1    0    0    0    0  0.00000000000E+00  0.00000000000E+00  0.45593999997E+02  0.45594000000E+02  0.51100000000E-03 0.  1.
         11   -1    0    0    0    0 -0.00000000000E+00 -0.00000000000E+00 -0.45593999997E+02  0.45594000000E+02  0.51100000000E-03 0. -1.
         23    2    1    2    0    0  0.88817841970E-15 -0.71054273576E-14 -0.88817841970E-15  0.91188000000E+02  0.91188000000E+02 0.  0.
    9900012    2    3    3    0    0 -0.76166618680E+01  0.35963964718E+02  0.20877073644E+01  0.54367098079E+02  0.40000031691E+02 0.  0.
        -12    1    3    3    0    0  0.76166618680E+01 -0.35963964718E+02 -0.20877073644E+01  0.36820901921E+02  0.00000000000E+00 0.  1.
         11    1    4    4    0    0  0.73022859497E+01  0.14575549622E+02  0.10467445960E+02  0.19373627747E+02  0.51100000000E-03 0. -1.
        -11    1    4    4    0    0 -0.19424991111E+02  0.19058935694E+02 -0.26518890809E+01  0.27342381488E+02  0.51100000000E-03 0.  1.
         12    1    4    4    0    0  0.45060432936E+01  0.23294794014E+01 -0.57278495149E+01  0.76510888448E+01  0.00000000000E+00 0. -1.
</event>
<event>
 8    1  0.1262344E-006  0.9118800E+02  0.7816164E-02  0.1184000E+00
        -11   -1    0    0    0    0  0.00000000000E+00  0.00000000000E+00  0.45593999997E+02  0.45594000000E+02  0.51100000000E-03 0. -1.
         11   -1    0    0    0    0 -0.00000000000E+00 -0.00000000000E+00 -0.45593999997E+02  0.45594000000E+02  0.51100000000E-03 0.  1.
         23    2    1    2    0    0  0.00000000000E+00  0.88817841970E-15  0.00000000000E+00  0.91188000000E+02  0.91188000000E+02 0.  0.
    9900012    2    3    3    0    0  0.23099594536E+02 -0.76258583571E+01 -0.27641248149E+02  0.54367033382E+02  0.39999884202E+02 0.  0.
         12    1    3    3    0    0 -0.23099594536E+02  0.76258583571E+01  0.27641248149E+02  0.36820966618E+02  0.00000000000E+00 0. -1.
         11    1    4    4    0    0  0.19745391471E+02 -0.40998614141E+01 -0.20655830800E+02  0.28867848798E+02  0.51100000000E-03 0. -1.
        -11    1    4    4    0    0  0.55994263733E+01  0.61072891378E+01 -0.11863324105E+02  0.14470349526E+02  0.51100000000E-03 0.  1.
         12    1    4    4    0    0 -0.22452233079E+01 -0.96332860808E+01  0.48779067559E+01  0.11028835058E+02  0.00000000000E+00 0. -1.
</event>
<event>
 8    1  0.1262344E-006  0.9118800E+02  0.7816164E-02  0.1184000E+00
        -11   -1    0    0    0    0  0.00000000000E+00  0.00000000000E+00  0.45593999997E+02  0.45594000000E+02  0.51100000000E-03 0.  1.
         11   -1    0    0    0    0 -0.00000000000E+00 -0.00000000000E+00 -0.45593999997E+02  0.45594000000E+02  0.51100000000E-03 0. -1.
         23    2    1    2    0    0 -0.35527136788E-14 -0.17763568394E-14  0.00000000000E+00  0.91188000000E+02  0.91188000000E+02 0.  0.
    9900012    2    3    3    0    0  0.25427624394E+02  0.14443981726E+02  0.22373796515E+02  0.54367089353E+02  0.40000011797E+02 0.  0.
         12    1    3    3    0    0 -0.25427624394E+02 -0.14443981726E+02 -0.22373796515E+02  0.36820910647E+02  0.00000000000E+00 0. -1.
         11    1    4    4    0    0  0.90159645879E+01 -0.48247867553E+01  0.12687250919E+02  0.16295168635E+02  0.51100000000E-03 0. -1.
        -11    1    4    4    0    0  0.11477545077E+02  0.11450889111E+02  0.18981016907E+02  0.24962690270E+02  0.51100000000E-03 0.  1.
         12    1    4    4    0    0  0.49341147286E+01  0.78178793696E+01 -0.92944713107E+01  0.13109230448E+02  0.00000000000E+00 0. -1.
</event>
<event>
 8    1  0.1262344E-006  0.9118800E+02  0.7816164E-02  0.1184000E+00
        -11   -1    0    0    0    0  0.00000000000E+00  0.00000000000E+00  0.45593999997E+02  0.45594000000E+02  0.51100000000E-03 0.  1.
         11   -1    0    0    0    0 -0.00000000000E+00 -0.00000000000E+00 -0.45593999997E+02  0.45594000000E+02  0.51100000000E-03 0. -1.
         23    2    1    2    0    0 -0.35527136788E-14  0.35527136788E-14  0.00000000000E+00  0.91188000000E+02  0.91188000000E+02 0.  0.
    9900012    2    3    3    0    0  0.20394828712E+02 -0.29928006162E+02 -0.66441787943E+01  0.54367086067E+02  0.40000004307E+02 0.  0.
         12    1    3    3    0    0 -0.20394828712E+02  0.29928006162E+02  0.66441787943E+01  0.36820913933E+02  0.00000000000E+00 0. -1.
         11    1    4    4    0    0  0.58162130547E+01  0.48443006704E+01 -0.36370920222E+01  0.83978581747E+01  0.51100000000E-03 0. -1.
        -11    1    4    4    0    0  0.40767032289E+01 -0.18301941068E+02  0.11176970983E+02  0.21828999901E+02  0.51100000000E-03 0.  1.
         12    1    4    4    0    0  0.10501912428E+02 -0.16470365764E+02 -0.14184057756E+02  0.24140227991E+02  0.00000000000E+00 0. -1.
</event>
<event>
 8    1  0.1262344E-006  0.9118800E+02  0.7816164E-02  0.1184000E+00
        -11   -1    0    0    0    0  0.00000000000E+00  0.00000000000E+00  0.45593999997E+02  0.45594000000E+02  0.51100000000E-03 0.  1.
         11   -1    0    0    0    0 -0.00000000000E+00 -0.00000000000E+00 -0.45593999997E+02  0.45594000000E+02  0.51100000000E-03 0. -1.
         23    2    1    2    0    0  0.17763568394E-14  0.71054273576E-14  0.17763568394E-14  0.91188000000E+02  0.91188000000E+02 0.  0.
    9900012    2    3    3    0    0 -0.10172921312E+02 -0.32897914002E+02 -0.13038950378E+02  0.54367145846E+02  0.40000140584E+02 0.  0.
        -12    1    3    3    0    0  0.10172921312E+02  0.32897914002E+02  0.13038950378E+02  0.36820854154E+02  0.00000000000E+00 0.  1.
         11    1    4    4    0    0 -0.72092985940E-01  0.24283959502E+01  0.39936205394E+01  0.46745384332E+01  0.51100000000E-03 0. -1.
        -11    1    4    4    0    0  0.58850935808E+01 -0.83914894590E+01  0.49941809647E+01  0.11401458923E+02  0.51100000000E-03 0.  1.
         12    1    4    4    0    0 -0.15985921906E+02 -0.26934820493E+02 -0.22026751882E+02  0.38291148490E+02  0.00000000000E+00 0. -1.
</event>
<event>
 8    1  0.1262344E-006  0.9118800E+02  0.7816164E-02  0.1184000E+00
        -11   -1    0    0    0    0  0.00000000000E+00  0.00000000000E+00  0.45593999997E+02  0.45594000000E+02  0.51100000000E-03 0. -1.
         11   -1    0    0    0    0 -0.00000000000E+00 -0.00000000000E+00 -0.45593999997E+02  0.45594000000E+02  0.51100000000E-03 0.  1.
         23    2    1    2    0    0  0.00000000000E+00  0.00000000000E+00  0.15543122345E-14  0.91188000000E+02  0.91188000000E+02 0.  0.
    9900012    2    3    3    0    0 -0.32050149454E+02 -0.18020091608E+02  0.19608175516E+01  0.54367074060E+02  0.39999976936E+02 0.  0.
         12    1    3    3    0    0  0.32050149454E+02  0.18020091608E+02 -0.19608175516E+01  0.36820925940E+02  0.00000000000E+00 0. -1.
         11    1    4    4    0    0 -0.48110148316E+01 -0.11501712489E+02  0.55219243368E+01  0.13635501551E+02  0.51100000000E-03 0. -1.
        -11    1    4    4    0    0 -0.94568701303E+01 -0.41134998706E+01 -0.15902064369E+02  0.18953335466E+02  0.51100000000E-03 0.  1.
        -12    1    4    4    0    0 -0.17782264492E+02 -0.24048792487E+01  0.12340957583E+02  0.21778237044E+02  0.00000000000E+00 0.  1.
</event>
<event>
 8    1  0.1262344E-006  0.9118800E+02  0.7816164E-02  0.1184000E+00
        -11   -1    0    0    0    0  0.00000000000E+00  0.00000000000E+00  0.45593999997E+02  0.45594000000E+02  0.51100000000E-03 0.  1.
         11   -1    0    0    0    0 -0.00000000000E+00 -0.00000000000E+00 -0.45593999997E+02  0.45594000000E+02  0.51100000000E-03 0. -1.
         23    2    1    2    0    0  0.00000000000E+00  0.35527136788E-14 -0.13322676296E-14  0.91188000000E+02  0.91188000000E+02 0.  0.
    9900012    2    3    3    0    0 -0.22465870483E+02 -0.29043725797E+02 -0.27436443584E+01  0.54367069416E+02  0.39999966347E+02 0.  0.
         12    1    3    3    0    0  0.22465870483E+02  0.29043725797E+02  0.27436443584E+01  0.36820930584E+02  0.00000000000E+00 0. -1.
         11    1    4    4    0    0 -0.10603883498E+02 -0.21062836685E+02 -0.92032821167E+01  0.25313747973E+02  0.51100000000E-03 0. -1.
        -11    1    4    4    0    0  0.21379080005E+01 -0.11440177775E+02 -0.27288229187E+01  0.11953861005E+02  0.51100000000E-03 0.  1.
        -12    1    4    4    0    0 -0.13999894985E+02  0.34592886633E+01  0.91884606770E+01  0.17099460438E+02  0.00000000000E+00 0.  1.
</event>
<event>
 8    1  0.1262344E-006  0.9118800E+02  0.7816164E-02  0.1184000E+00
        -11   -1    0    0    0    0  0.00000000000E+00  0.00000000000E+00  0.45593999997E+02  0.45594000000E+02  0.51100000000E-03 0.  1.
         11   -1    0    0    0    0 -0.00000000000E+00 -0.00000000000E+00 -0.45593999997E+02  0.45594000000E+02  0.51100000000E-03 0. -1.
         23    2    1    2    0    0  0.00000000000E+00 -0.17763568394E-14 -0.35527136788E-14  0.91188000000E+02  0.91188000000E+02 0.  0.
    9900012    2    3    3    0    0  0.16231813952E+02 -0.13862372478E+02 -0.30002408516E+02  0.54367059332E+02  0.39999943360E+02 0.  0.
        -12    1    3    3    0    0 -0.16231813952E+02  0.13862372478E+02  0.30002408516E+02  0.36820940668E+02  0.00000000000E+00 0.  1.
         11    1    4    4    0    0  0.90252110192E+01 -0.85071665787E+01 -0.13406647037E+01  0.12474922815E+02  0.51100000000E-03 0.  1.
        -11    1    4    4    0    0 -0.37193193231E+01 -0.15313794878E+02 -0.15326755925E+02  0.21983063873E+02  0.51100000000E-03 0. -1.
         12    1    4    4    0    0  0.10925922256E+02  0.99585889786E+01 -0.13334987887E+02  0.19909072644E+02  0.00000000000E+00 0. -1.
</event>
<event>
 8    1  0.1262344E-006  0.9118800E+02  0.7816164E-02  0.1184000E+00
        -11   -1    0    0    0    0  0.00000000000E+00  0.00000000000E+00  0.45593999997E+02  0.45594000000E+02  0.51100000000E-03 0.  1.
         11   -1    0    0    0    0 -0.00000000000E+00 -0.00000000000E+00 -0.45593999997E+02  0.45594000000E+02  0.51100000000E-03 0. -1.
         23    2    1    2    0    0  0.00000000000E+00  0.00000000000E+00  0.00000000000E+00  0.91188000000E+02  0.91188000000E+02 0.  0.
    9900012    2    3    3    0    0 -0.95259657452E+01 -0.13095472705E+02  0.33068782048E+02  0.54367085089E+02  0.40000002076E+02 0.  0.
         12    1    3    3    0    0  0.95259657452E+01  0.13095472705E+02 -0.33068782048E+02  0.36820914911E+02  0.00000000000E+00 0. -1.
         11    1    4    4    0    0 -0.82581333359E+01 -0.19693025993E+02  0.84862836502E+01  0.22978882684E+02  0.51100000000E-03 0. -1.
        -11    1    4    4    0    0 -0.69325059453E+01 -0.22002137833E+00  0.20476883103E+02  0.21619685242E+02  0.51100000000E-03 0.  1.
         12    1    4    4    0    0  0.56646735360E+01  0.68175746661E+01  0.41056152952E+01  0.97685171623E+01  0.00000000000E+00 0. -1.
</event>
<event>
 8    1  0.1262344E-006  0.9118800E+02  0.7816164E-02  0.1184000E+00
        -11   -1    0    0    0    0  0.00000000000E+00  0.00000000000E+00  0.45593999997E+02  0.45594000000E+02  0.51100000000E-03 0. -1.
         11   -1    0    0    0    0 -0.00000000000E+00 -0.00000000000E+00 -0.45593999997E+02  0.45594000000E+02  0.51100000000E-03 0.  1.
         23    2    1    2    0    0  0.35527136788E-14  0.00000000000E+00  0.00000000000E+00  0.91188000000E+02  0.91188000000E+02 0.  0.
    9900012    2    3    3    0    0  0.31001579543E+02 -0.42826373808E+01  0.19399525170E+02  0.54367075325E+02  0.39999979819E+02 0.  0.
        -12    1    3    3    0    0 -0.31001579543E+02  0.42826373808E+01 -0.19399525170E+02  0.36820924675E+02  0.00000000000E+00 0.  1.
         11    1    4    4    0    0  0.16791742073E+02 -0.59371491078E+01  0.77759374859E+01  0.19433927689E+02  0.51100000000E-03 0. -1.
        -11    1    4    4    0    0  0.20039910910E+02 -0.17070985247E+01 -0.15168797555E+01  0.20169609295E+02  0.51100000000E-03 0.  1.
        -12    1    4    4    0    0 -0.58300734408E+01  0.33616102517E+01  0.13140467440E+02  0.14763538341E+02  0.00000000000E+00 0.  1.
</event>
<event>
 8    1  0.1262344E-006  0.9118800E+02  0.7816164E-02  0.1184000E+00
        -11   -1    0    0    0    0  0.00000000000E+00  0.00000000000E+00  0.45593999997E+02  0.45594000000E+02  0.51100000000E-03 0.  1.
         11   -1    0    0    0    0 -0.00000000000E+00 -0.00000000000E+00 -0.45593999997E+02  0.45594000000E+02  0.51100000000E-03 0. -1.
         23    2    1    2    0    0 -0.17763568394E-14 -0.17763568394E-14  0.00000000000E+00  0.91188000000E+02  0.91188000000E+02 0.  0.
    9900012    2    3    3    0    0 -0.11150125687E+02 -0.90048843276E+01 -0.33917041508E+02  0.54367096301E+02  0.40000027637E+02 0.  0.
        -12    1    3    3    0    0  0.11150125687E+02  0.90048843276E+01  0.33917041508E+02  0.36820903699E+02  0.00000000000E+00 0.  1.
         11    1    4    4    0    0 -0.18473879471E+01 -0.17420169982E+02 -0.38165262368E+01  0.17928776790E+02  0.51100000000E-03 0. -1.
        -11    1    4    4    0    0 -0.26906263737E+00  0.42028667143E+01  0.51336650704E+00  0.42426440757E+01  0.51100000000E-03 0.  1.
         12    1    4    4    0    0 -0.90336751026E+01  0.42124189398E+01 -0.30613881778E+02  0.32195675435E+02  0.00000000000E+00 0. -1.
</event>
<event>
 8    1  0.1262344E-006  0.9118800E+02  0.7816164E-02  0.1184000E+00
        -11   -1    0    0    0    0  0.00000000000E+00  0.00000000000E+00  0.45593999997E+02  0.45594000000E+02  0.51100000000E-03 0. -1.
         11   -1    0    0    0    0 -0.00000000000E+00 -0.00000000000E+00 -0.45593999997E+02  0.45594000000E+02  0.51100000000E-03 0.  1.
         23    2    1    2    0    0  0.00000000000E+00  0.00000000000E+00  0.00000000000E+00  0.91188000000E+02  0.91188000000E+02 0.  0.
    9900012    2    3    3    0    0 -0.22898380746E+02  0.95704702748E+01  0.27200169640E+02  0.54367096012E+02  0.40000026979E+02 0.  0.
        -12    1    3    3    0    0  0.22898380746E+02 -0.95704702748E+01 -0.27200169640E+02  0.36820903988E+02  0.00000000000E+00 0.  1.
         11    1    4    4    0    0 -0.13380394662E+02  0.13351551966E+02  0.39563882508E+01  0.19311962858E+02  0.51100000000E-03 0. -1.
        -11    1    4    4    0    0 -0.69675292595E+01  0.72760498484E+01  0.10500033796E+01  0.10128665891E+02  0.51100000000E-03 0.  1.
        -12    1    4    4    0    0 -0.25504568246E+01 -0.11057131539E+02  0.22193778009E+02  0.24926467263E+02  0.00000000000E+00 0.  1.
</event>
<event>
 8    1  0.1262344E-006  0.9118800E+02  0.7816164E-02  0.1184000E+00
        -11   -1    0    0    0    0  0.00000000000E+00  0.00000000000E+00  0.45593999997E+02  0.45594000000E+02  0.51100000000E-03 0.  1.
         11   -1    0    0    0    0 -0.00000000000E+00 -0.00000000000E+00 -0.45593999997E+02  0.45594000000E+02  0.51100000000E-03 0. -1.
         23    2    1    2    0    0  0.00000000000E+00 -0.35527136788E-14  0.00000000000E+00  0.91188000000E+02  0.91188000000E+02 0.  0.
    9900012    2    3    3    0    0 -0.17611390785E+02 -0.30732926421E+02 -0.10055121322E+02  0.54367091312E+02  0.40000016265E+02 0.  0.
        -12    1    3    3    0    0  0.17611390785E+02  0.30732926421E+02  0.10055121322E+02  0.36820908688E+02  0.00000000000E+00 0.  1.
         11    1    4    4    0    0 -0.99741160876E+01 -0.78670259308E+01 -0.17452123405E+02  0.21585868070E+02  0.51100000000E-03 0. -1.
        -11    1    4    4    0    0 -0.54752310038E+01  0.24468645053E+01  0.38582424635E+01  0.71310122438E+01  0.51100000000E-03 0.  1.
        -12    1    4    4    0    0 -0.21620436939E+01 -0.25312764995E+02  0.35387596195E+01  0.25650210999E+02  0.00000000000E+00 0.  1.
</event>
<event>
 8    1  0.1262344E-006  0.9118800E+02  0.7816164E-02  0.1184000E+00
        -11   -1    0    0    0    0  0.00000000000E+00  0.00000000000E+00  0.45593999997E+02  0.45594000000E+02  0.51100000000E-03 0.  1.
         11   -1    0    0    0    0 -0.00000000000E+00 -0.00000000000E+00 -0.45593999997E+02  0.45594000000E+02  0.51100000000E-03 0. -1.
         23    2    1    2    0    0  0.35527136788E-14  0.00000000000E+00  0.35527136788E-14  0.91188000000E+02  0.91188000000E+02 0.  0.
    9900012    2    3    3    0    0 -0.16966112616E+02  0.25125386133E+02 -0.20896071694E+02  0.54367084505E+02  0.40000000746E+02 0.  0.
        -12    1    3    3    0    0  0.16966112616E+02 -0.25125386133E+02  0.20896071694E+02  0.36820915495E+02  0.00000000000E+00 0.  1.
         11    1    4    4    0    0 -0.23464255599E+02  0.29163899316E+02 -0.16725841238E+02  0.40998269226E+02  0.51100000000E-03 0. -1.
        -11    1    4    4    0    0  0.55035913141E+01 -0.62304179508E+01 -0.60775258443E+01  0.10297764119E+02  0.51100000000E-03 0.  1.
         12    1    4    4    0    0  0.99455166841E+00  0.21919047682E+01  0.19072953883E+01  0.30710511608E+01  0.00000000000E+00 0. -1.
</event>
<event>
 8    1  0.1262344E-006  0.9118800E+02  0.7816164E-02  0.1184000E+00
        -11   -1    0    0    0    0  0.00000000000E+00  0.00000000000E+00  0.45593999997E+02  0.45594000000E+02  0.51100000000E-03 0.  1.
         11   -1    0    0    0    0 -0.00000000000E+00 -0.00000000000E+00 -0.45593999997E+02  0.45594000000E+02  0.51100000000E-03 0. -1.
         23    2    1    2    0    0  0.35527136788E-14  0.00000000000E+00  0.35527136788E-14  0.91188000000E+02  0.91188000000E+02 0.  0.
    9900012    2    3    3    0    0  0.15968403517E+02  0.17406273190E+02 -0.28245558379E+02  0.54367084403E+02  0.40000000513E+02 0.  0.
        -12    1    3    3    0    0 -0.15968403517E+02 -0.17406273190E+02  0.28245558379E+02  0.36820915597E+02  0.00000000000E+00 0.  1.
         11    1    4    4    0    0  0.55569832214E+01  0.64187539011E+00 -0.49598893436E+01  0.74761332988E+01  0.51100000000E-03 0. -1.
        -11    1    4    4    0    0 -0.94741889652E+00  0.19648592302E+01  0.91860486129E+01  0.94414916057E+01  0.51100000000E-03 0.  1.
         12    1    4    4    0    0  0.11358839192E+02  0.14799538570E+02 -0.32471717649E+02  0.37449459498E+02  0.00000000000E+00 0. -1.
</event>
<event>
 8    1  0.1262344E-006  0.9118800E+02  0.7816164E-02  0.1184000E+00
        -11   -1    0    0    0    0  0.00000000000E+00  0.00000000000E+00  0.45593999997E+02  0.45594000000E+02  0.51100000000E-03 0. -1.
         11   -1    0    0    0    0 -0.00000000000E+00 -0.00000000000E+00 -0.45593999997E+02  0.45594000000E+02  0.51100000000E-03 0.  1.
         23    2    1    2    0    0 -0.71054273576E-14 -0.55511151231E-15  0.00000000000E+00  0.91188000000E+02  0.91188000000E+02 0.  0.
    9900012    2    3    3    0    0  0.35968841951E+02 -0.86231710610E+00 -0.78278287268E+01  0.54367135199E+02  0.40000116314E+02 0.  0.
         12    1    3    3    0    0 -0.35968841951E+02  0.86231710610E+00  0.78278287268E+01  0.36820864801E+02  0.00000000000E+00 0. -1.
         11    1    4    4    0    0 -0.29938127794E+01  0.32652737255E+01 -0.10818827782E+01  0.45601971522E+01  0.51100000000E-03 0. -1.
        -11    1    4    4    0    0  0.89360465950E+01 -0.32085605886E+01 -0.15798405130E+02  0.18431966654E+02  0.51100000000E-03 0.  1.
         12    1    4    4    0    0  0.30026608135E+02 -0.91903024291E+00  0.90524591816E+01  0.31374971393E+02  0.00000000000E+00 0. -1.
</event>
<event>
 8    1  0.1262344E-006  0.9118800E+02  0.7816164E-02  0.1184000E+00
        -11   -1    0    0    0    0  0.00000000000E+00  0.00000000000E+00  0.45593999997E+02  0.45594000000E+02  0.51100000000E-03 0. -1.
         11   -1    0    0    0    0 -0.00000000000E+00 -0.00000000000E+00 -0.45593999997E+02  0.45594000000E+02  0.51100000000E-03 0.  1.
         23    2    1    2    0    0  0.00000000000E+00 -0.17763568394E-14  0.35527136788E-14  0.91188000000E+02  0.91188000000E+02 0.  0.
    9900012    2    3    3    0    0 -0.14335430264E+02 -0.11746584926E+02 -0.31816603463E+02  0.54367040287E+02  0.39999899943E+02 0.  0.
         12    1    3    3    0    0  0.14335430264E+02  0.11746584926E+02  0.31816603463E+02  0.36820959713E+02  0.00000000000E+00 0. -1.
         11    1    4    4    0    0  0.79326789464E+00  0.16095124871E+01  0.53943315344E+01  0.56849465576E+01  0.51100000000E-03 0. -1.
        -11    1    4    4    0    0 -0.14024787883E+02 -0.20090755335E+02 -0.27787034076E+02  0.37046624517E+02  0.51100000000E-03 0.  1.
        -12    1    4    4    0    0 -0.11039102756E+01  0.67346579225E+01 -0.94239009215E+01  0.11635469213E+02  0.00000000000E+00 0.  1.
</event>
<event>
 8    1  0.1262344E-006  0.9118800E+02  0.7816164E-02  0.1184000E+00
        -11   -1    0    0    0    0  0.00000000000E+00  0.00000000000E+00  0.45593999997E+02  0.45594000000E+02  0.51100000000E-03 0.  1.
         11   -1    0    0    0    0 -0.00000000000E+00 -0.00000000000E+00 -0.45593999997E+02  0.45594000000E+02  0.51100000000E-03 0. -1.
         23    2    1    2    0    0  0.00000000000E+00  0.44408920985E-15  0.00000000000E+00  0.91188000000E+02  0.91188000000E+02 0.  0.
    9900012    2    3    3    0    0  0.13815278688E+02  0.21612217587E+01 -0.34062387351E+02  0.54367095112E+02  0.40000024927E+02 0.  0.
        -12    1    3    3    0    0 -0.13815278688E+02 -0.21612217587E+01  0.34062387351E+02  0.36820904888E+02  0.00000000000E+00 0.  1.
         11    1    4    4    0    0  0.14612427845E+02  0.10135388668E+01 -0.11303966672E+02  0.18502161261E+02  0.51100000000E-03 0. -1.
        -11    1    4    4    0    0  0.73554545922E+01 -0.81216178122E+01 -0.20600486033E+02  0.23333311235E+02  0.51100000000E-03 0.  1.
        -12    1    4    4    0    0 -0.81526037494E+01  0.92693007041E+01 -0.21579346461E+01  0.12531622615E+02  0.00000000000E+00 0.  1.
</event>
<event>
 8    1  0.1262344E-006  0.9118800E+02  0.7816164E-02  0.1184000E+00
        -11   -1    0    0    0    0  0.00000000000E+00  0.00000000000E+00  0.45593999997E+02  0.45594000000E+02  0.51100000000E-03 0. -1.
         11   -1    0    0    0    0 -0.00000000000E+00 -0.00000000000E+00 -0.45593999997E+02  0.45594000000E+02  0.51100000000E-03 0.  1.
         23    2    1    2    0    0  0.13322676296E-14  0.00000000000E+00  0.00000000000E+00  0.91188000000E+02  0.91188000000E+02 0.  0.
    9900012    2    3    3    0    0 -0.26944138601E+01  0.21745942964E+02 -0.29591113781E+02  0.54367083169E+02  0.39999997701E+02 0.  0.
         12    1    3    3    0    0  0.26944138601E+01 -0.21745942964E+02  0.29591113781E+02  0.36820916831E+02  0.00000000000E+00 0. -1.
         11    1    4    4    0    0 -0.14205115577E+02  0.22018232733E+02 -0.54401131880E+01  0.26761590256E+02  0.51100000000E-03 0. -1.
        -11    1    4    4    0    0  0.10196999021E+02  0.17678714690E+01 -0.15629776948E+02  0.18745508429E+02  0.51100000000E-03 0.  1.
        -12    1    4    4    0    0  0.13137026961E+01 -0.20401612381E+01 -0.85212236450E+01  0.88599844841E+01  0.00000000000E+00 0.  1.
</event>
<event>
 8    1  0.1262344E-006  0.9118800E+02  0.7816164E-02  0.1184000E+00
        -11   -1    0    0    0    0  0.00000000000E+00  0.00000000000E+00  0.45593999997E+02  0.45594000000E+02  0.51100000000E-03 0. -1.
         11   -1    0    0    0    0 -0.00000000000E+00 -0.00000000000E+00 -0.45593999997E+02  0.45594000000E+02  0.51100000000E-03 0.  1.
         23    2    1    2    0    0 -0.44408920985E-15 -0.88817841970E-15  0.00000000000E+00  0.91188000000E+02  0.91188000000E+02 0.  0.
    9900012    2    3    3    0    0  0.20701813020E+01  0.70616500585E+01 -0.36078080438E+02  0.54367076054E+02  0.39999981480E+02 0.  0.
         12    1    3    3    0    0 -0.20701813020E+01 -0.70616500585E+01  0.36078080438E+02  0.36820923946E+02  0.00000000000E+00 0. -1.
         11    1    4    4    0    0 -0.21134186475E+01  0.12051403221E+02 -0.12152801422E+02  0.17245099032E+02  0.51100000000E-03 0. -1.
        -11    1    4    4    0    0 -0.29270833053E+01 -0.14038298169E+01 -0.27992269606E+02  0.28179881348E+02  0.51100000000E-03 0.  1.
         12    1    4    4    0    0  0.71106832548E+01 -0.35859233452E+01  0.40669905899E+01  0.89420956742E+01  0.00000000000E+00 0. -1.
</event>
<event>
 8    1  0.1262344E-006  0.9118800E+02  0.7816164E-02  0.1184000E+00
        -11   -1    0    0    0    0  0.00000000000E+00  0.00000000000E+00  0.45593999997E+02  0.45594000000E+02  0.51100000000E-03 0.  1.
         11   -1    0    0    0    0 -0.00000000000E+00 -0.00000000000E+00 -0.45593999997E+02  0.45594000000E+02  0.51100000000E-03 0. -1.
         23    2    1    2    0    0  0.35527136788E-14 -0.71054273576E-14 -0.17763568394E-14  0.91188000000E+02  0.91188000000E+02 0.  0.
    9900012    2    3    3    0    0 -0.81017703135E+01  0.32372041685E+02  0.15562484029E+02  0.54367100035E+02  0.40000036150E+02 0.  0.
         12    1    3    3    0    0  0.81017703135E+01 -0.32372041685E+02 -0.15562484029E+02  0.36820899965E+02  0.00000000000E+00 0. -1.
         11    1    4    4    0    0 -0.17210881033E+02  0.19780678104E+02  0.15396750753E+02  0.30406406993E+02  0.51100000000E-03 0. -1.
        -11    1    4    4    0    0 -0.40581281598E+01  0.36646412836E+01  0.49220340095E+01  0.73569299950E+01  0.51100000000E-03 0.  1.
         12    1    4    4    0    0  0.13167238880E+02  0.89267222967E+01 -0.47563007328E+01  0.16603763047E+02  0.00000000000E+00 0. -1.
</event>
<event>
 8    1  0.1262344E-006  0.9118800E+02  0.7816164E-02  0.1184000E+00
        -11   -1    0    0    0    0  0.00000000000E+00  0.00000000000E+00  0.45593999997E+02  0.45594000000E+02  0.51100000000E-03 0. -1.
         11   -1    0    0    0    0 -0.00000000000E+00 -0.00000000000E+00 -0.45593999997E+02  0.45594000000E+02  0.51100000000E-03 0.  1.
         23    2    1    2    0    0  0.71054273576E-14 -0.35527136788E-14  0.44408920985E-15  0.91188000000E+02  0.91188000000E+02 0.  0.
    9900012    2    3    3    0    0 -0.32628610920E+02  0.16621078426E+02 -0.38607101206E+01  0.54366924768E+02  0.39999636591E+02 0.  0.
        -12    1    3    3    0    0  0.32628610920E+02 -0.16621078426E+02  0.38607101206E+01  0.36821075232E+02  0.00000000000E+00 0.  1.
         11    1    4    4    0    0  0.29257643140E+01  0.12880776003E+02 -0.17526646066E+01  0.13324650868E+02  0.51100000000E-03 0. -1.
        -11    1    4    4    0    0 -0.12549374075E+02 -0.82065417454E+01  0.39417555297E+00  0.14999649720E+02  0.51100000000E-03 0.  1.
         12    1    4    4    0    0 -0.23005001159E+02  0.11946844169E+02 -0.25022210670E+01  0.26042624180E+02  0.00000000000E+00 0. -1.
</event>
<event>
 8    1  0.1262344E-006  0.9118800E+02  0.7816164E-02  0.1184000E+00
        -11   -1    0    0    0    0  0.00000000000E+00  0.00000000000E+00  0.45593999997E+02  0.45594000000E+02  0.51100000000E-03 0.  1.
         11   -1    0    0    0    0 -0.00000000000E+00 -0.00000000000E+00 -0.45593999997E+02  0.45594000000E+02  0.51100000000E-03 0. -1.
         23    2    1    2    0    0  0.00000000000E+00  0.71054273576E-14  0.00000000000E+00  0.91188000000E+02  0.91188000000E+02 0.  0.
    9900012    2    3    3    0    0  0.98644444283E+01  0.32518372984E+02 -0.14178537088E+02  0.54367044562E+02  0.39999909688E+02 0.  0.
         12    1    3    3    0    0 -0.98644444283E+01 -0.32518372984E+02  0.14178537088E+02  0.36820955438E+02  0.00000000000E+00 0. -1.
         11    1    4    4    0    0  0.33625058785E+01 -0.92114343783E+01 -0.36160686165E+01  0.10451455477E+02  0.51100000000E-03 0. -1.
        -11    1    4    4    0    0  0.30658957670E+01  0.24345315383E+02 -0.32764185763E+01  0.24755383594E+02  0.51100000000E-03 0.  1.
         12    1    4    4    0    0  0.34360427827E+01  0.17384491979E+02 -0.72860498951E+01  0.19160205491E+02  0.00000000000E+00 0. -1.
</event>
<event>
 8    1  0.1262344E-006  0.9118800E+02  0.7816164E-02  0.1184000E+00
        -11   -1    0    0    0    0  0.00000000000E+00  0.00000000000E+00  0.45593999997E+02  0.45594000000E+02  0.51100000000E-03 0.  1.
         11   -1    0    0    0    0 -0.00000000000E+00 -0.00000000000E+00 -0.45593999997E+02  0.45594000000E+02  0.51100000000E-03 0. -1.
         23    2    1    2    0    0  0.00000000000E+00 -0.17763568394E-14  0.00000000000E+00  0.91188000000E+02  0.91188000000E+02 0.  0.
    9900012    2    3    3    0    0  0.10545718565E+02 -0.90121933883E+01  0.34107894038E+02  0.54367078699E+02  0.39999987510E+02 0.  0.
         12    1    3    3    0    0 -0.10545718565E+02  0.90121933883E+01 -0.34107894038E+02  0.36820921301E+02  0.00000000000E+00 0. -1.
         11    1    4    4    0    0  0.12233105695E+02 -0.14402191595E+00  0.36207031569E+00  0.12239310129E+02  0.51100000000E-03 0. -1.
        -11    1    4    4    0    0 -0.92723789221E+01  0.28432042736E+01  0.69989953010E+01  0.11960215588E+02  0.51100000000E-03 0.  1.
        -12    1    4    4    0    0  0.75849917920E+01 -0.11711375746E+02  0.26746828422E+02  0.30167552983E+02  0.00000000000E+00 0.  1.
</event>
<event>
 8    1  0.1262344E-006  0.9118800E+02  0.7816164E-02  0.1184000E+00
        -11   -1    0    0    0    0  0.00000000000E+00  0.00000000000E+00  0.45593999997E+02  0.45594000000E+02  0.51100000000E-03 0.  1.
         11   -1    0    0    0    0 -0.00000000000E+00 -0.00000000000E+00 -0.45593999997E+02  0.45594000000E+02  0.51100000000E-03 0. -1.
         23    2    1    2    0    0 -0.35527136788E-14 -0.13322676296E-14  0.00000000000E+00  0.91188000000E+02  0.91188000000E+02 0.  0.
    9900012    2    3    3    0    0 -0.30668633594E+02  0.38851752278E+01  0.20003007791E+02  0.54367082117E+02  0.39999995301E+02 0.  0.
         12    1    3    3    0    0  0.30668633594E+02 -0.38851752278E+01 -0.20003007791E+02  0.36820917883E+02  0.00000000000E+00 0. -1.
         11    1    4    4    0    0 -0.61259113870E+01  0.98118074512E+01 -0.29487541312E+01  0.11937064420E+02  0.51100000000E-03 0. -1.
        -11    1    4    4    0    0 -0.70432176269E+01 -0.41851321772E+01 -0.48591543432E+01  0.95254200470E+01  0.51100000000E-03 0.  1.
        -12    1    4    4    0    0 -0.17499504580E+02 -0.17415000462E+01  0.27810916265E+02  0.32904597650E+02  0.00000000000E+00 0.  1.
</event>
<event>
 8    1  0.1262344E-006  0.9118800E+02  0.7816164E-02  0.1184000E+00
        -11   -1    0    0    0    0  0.00000000000E+00  0.00000000000E+00  0.45593999997E+02  0.45594000000E+02  0.51100000000E-03 0.  1.
         11   -1    0    0    0    0 -0.00000000000E+00 -0.00000000000E+00 -0.45593999997E+02  0.45594000000E+02  0.51100000000E-03 0. -1.
         23    2    1    2    0    0  0.00000000000E+00  0.00000000000E+00  0.00000000000E+00  0.91188000000E+02  0.91188000000E+02 0.  0.
    9900012    2    3    3    0    0  0.18750023781E+02 -0.15117760550E+02 -0.27850851274E+02  0.54367082133E+02  0.39999995339E+02 0.  0.
        -12    1    3    3    0    0 -0.18750023781E+02  0.15117760550E+02  0.27850851274E+02  0.36820917867E+02  0.00000000000E+00 0.  1.
         11    1    4    4    0    0 -0.50693864127E+01  0.52680055992E+00  0.17601279528E+01  0.53920541635E+01  0.51100000000E-03 0. -1.
        -11    1    4    4    0    0  0.12666145236E+02 -0.62996924171E+01  0.18937094308E+01  0.14272473344E+02  0.51100000000E-03 0.  1.
         12    1    4    4    0    0  0.11153264957E+02 -0.93448686927E+01 -0.31504688658E+02  0.34702554625E+02  0.00000000000E+00 0. -1.
</event>
<event>
 8    1  0.1262344E-006  0.9118800E+02  0.7816164E-02  0.1184000E+00
        -11   -1    0    0    0    0  0.00000000000E+00  0.00000000000E+00  0.45593999997E+02  0.45594000000E+02  0.51100000000E-03 0.  1.
         11   -1    0    0    0    0 -0.00000000000E+00 -0.00000000000E+00 -0.45593999997E+02  0.45594000000E+02  0.51100000000E-03 0. -1.
         23    2    1    2    0    0 -0.11102230246E-14  0.71054273576E-14  0.44408920985E-15  0.91188000000E+02  0.91188000000E+02 0.  0.
    9900012    2    3    3    0    0  0.40057967096E+00 -0.36802438911E+02  0.10953762972E+01  0.54367084435E+02  0.40000000586E+02 0.  0.
         12    1    3    3    0    0 -0.40057967096E+00  0.36802438911E+02 -0.10953762972E+01  0.36820915565E+02  0.00000000000E+00 0. -1.
         11    1    4    4    0    0  0.54620962025E+01 -0.44651189340E+01  0.89559677920E+00  0.71115311904E+01  0.51100000000E-03 0. -1.
        -11    1    4    4    0    0 -0.58875511908E+01  0.12923434677E-01  0.11548339767E+02  0.12962545185E+02  0.51100000000E-03 0.  1.
         12    1    4    4    0    0  0.82603465926E+00 -0.32350243411E+02 -0.11348560249E+02  0.34293008059E+02  0.00000000000E+00 0. -1.
</event>
<event>
 8    1  0.1262344E-006  0.9118800E+02  0.7816164E-02  0.1184000E+00
        -11   -1    0    0    0    0  0.00000000000E+00  0.00000000000E+00  0.45593999997E+02  0.45594000000E+02  0.51100000000E-03 0. -1.
         11   -1    0    0    0    0 -0.00000000000E+00 -0.00000000000E+00 -0.45593999997E+02  0.45594000000E+02  0.51100000000E-03 0.  1.
         23    2    1    2    0    0  0.35527136788E-14  0.00000000000E+00 -0.35527136788E-14  0.91188000000E+02  0.91188000000E+02 0.  0.
    9900012    2    3    3    0    0 -0.12273052531E+02 -0.21140296581E+02 -0.27536129572E+02  0.54367103898E+02  0.40000044956E+02 0.  0.
         12    1    3    3    0    0  0.12273052531E+02  0.21140296581E+02  0.27536129572E+02  0.36820896102E+02  0.00000000000E+00 0. -1.
         11    1    4    4    0    0  0.72539085832E+01 -0.16431317172E+02 -0.47794935116E+01  0.18586310344E+02  0.51100000000E-03 0.  1.
        -11    1    4    4    0    0  0.20647267283E+01 -0.54791529193E+01 -0.64576214822E+01  0.87169426202E+01  0.51100000000E-03 0. -1.
         12    1    4    4    0    0 -0.21591687842E+02  0.77017351019E+00 -0.16299014578E+02  0.27063850933E+02  0.00000000000E+00 0. -1.
</event>
<event>
 8    1  0.1262344E-006  0.9118800E+02  0.7816164E-02  0.1184000E+00
        -11   -1    0    0    0    0  0.00000000000E+00  0.00000000000E+00  0.45593999997E+02  0.45594000000E+02  0.51100000000E-03 0. -1.
         11   -1    0    0    0    0 -0.00000000000E+00 -0.00000000000E+00 -0.45593999997E+02  0.45594000000E+02  0.51100000000E-03 0.  1.
         23    2    1    2    0    0  0.00000000000E+00  0.00000000000E+00  0.71054273576E-14  0.91188000000E+02  0.91188000000E+02 0.  0.
    9900012    2    3    3    0    0  0.86709262759E+01  0.67044401108E+01 -0.35151759781E+02  0.54367072589E+02  0.39999973581E+02 0.  0.
         12    1    3    3    0    0 -0.86709262759E+01 -0.67044401108E+01  0.35151759781E+02  0.36820927411E+02  0.00000000000E+00 0. -1.
         11    1    4    4    0    0  0.12399784269E+02  0.14203830066E+02 -0.14639182261E+02  0.23870674393E+02  0.51100000000E-03 0. -1.
        -11    1    4    4    0    0  0.78642480555E+01 -0.34184830211E+01 -0.14424173570E+02  0.16780619985E+02  0.51100000000E-03 0.  1.
         12    1    4    4    0    0 -0.11593106049E+02 -0.40809069339E+01 -0.60884039509E+01  0.13715778211E+02  0.00000000000E+00 0. -1.
</event>
<event>
 8    1  0.1262344E-006  0.9118800E+02  0.7816164E-02  0.1184000E+00
        -11   -1    0    0    0    0  0.00000000000E+00  0.00000000000E+00  0.45593999997E+02  0.45594000000E+02  0.51100000000E-03 0. -1.
         11   -1    0    0    0    0 -0.00000000000E+00 -0.00000000000E+00 -0.45593999997E+02  0.45594000000E+02  0.51100000000E-03 0.  1.
         23    2    1    2    0    0 -0.35527136788E-14  0.17763568394E-14 -0.35527136788E-14  0.91188000000E+02  0.91188000000E+02 0.  0.
    9900012    2    3    3    0    0 -0.16079183618E+02  0.11084262206E+02  0.31215045897E+02  0.54367080609E+02  0.39999991864E+02 0.  0.
        -12    1    3    3    0    0  0.16079183618E+02 -0.11084262206E+02 -0.31215045897E+02  0.36820919391E+02  0.00000000000E+00 0.  1.
         11    1    4    4    0    0 -0.77157986158E+01  0.68567555610E+01  0.60520046810E+01  0.11965592590E+02  0.51100000000E-03 0. -1.
        -11    1    4    4    0    0 -0.30983114129E+01 -0.69542443302E+00 -0.79249650297E+01  0.85374597941E+01  0.51100000000E-03 0.  1.
         12    1    4    4    0    0 -0.52650735893E+01  0.49229310781E+01  0.33088006246E+02  0.33864028225E+02  0.00000000000E+00 0. -1.
</event>
<event>
 8    1  0.1262344E-006  0.9118800E+02  0.7816164E-02  0.1184000E+00
        -11   -1    0    0    0    0  0.00000000000E+00  0.00000000000E+00  0.45593999997E+02  0.45594000000E+02  0.51100000000E-03 0. -1.
         11   -1    0    0    0    0 -0.00000000000E+00 -0.00000000000E+00 -0.45593999997E+02  0.45594000000E+02  0.51100000000E-03 0.  1.
         23    2    1    2    0    0  0.35527136788E-14  0.00000000000E+00  0.88817841970E-15  0.91188000000E+02  0.91188000000E+02 0.  0.
    9900012    2    3    3    0    0  0.23845598827E+02  0.27570645692E+02 -0.51986982652E+01  0.54367088130E+02  0.40000009010E+02 0.  0.
         12    1    3    3    0    0 -0.23845598827E+02 -0.27570645692E+02  0.51986982652E+01  0.36820911870E+02  0.00000000000E+00 0. -1.
         11    1    4    4    0    0  0.95394986922E+01  0.75309287685E+01 -0.31005266278E+01  0.12543133143E+02  0.51100000000E-03 0. -1.
        -11    1    4    4    0    0  0.15346889284E+02  0.13229322897E+02 -0.16322789113E+02  0.26018751693E+02  0.51100000000E-03 0.  1.
         12    1    4    4    0    0 -0.10407891492E+01  0.68103940265E+01  0.14224617475E+02  0.15805203294E+02  0.00000000000E+00 0. -1.
</event>
<event>
 8    1  0.1262344E-006  0.9118800E+02  0.7816164E-02  0.1184000E+00
        -11   -1    0    0    0    0  0.00000000000E+00  0.00000000000E+00  0.45593999997E+02  0.45594000000E+02  0.51100000000E-03 0.  1.
         11   -1    0    0    0    0 -0.00000000000E+00 -0.00000000000E+00 -0.45593999997E+02  0.45594000000E+02  0.51100000000E-03 0. -1.
         23    2    1    2    0    0  0.00000000000E+00  0.00000000000E+00  0.17763568394E-14  0.91188000000E+02  0.91188000000E+02 0.  0.
    9900012    2    3    3    0    0  0.25879339065E+02  0.24487208359E+02  0.92960148569E+01  0.54367089421E+02  0.40000011952E+02 0.  0.
         12    1    3    3    0    0 -0.25879339065E+02 -0.24487208359E+02 -0.92960148569E+01  0.36820910579E+02  0.00000000000E+00 0. -1.
         11    1    4    4    0    0  0.39514685715E+01  0.14368751069E+02 -0.82612275652E+01  0.17038867107E+02  0.51100000000E-03 0. -1.
        -11    1    4    4    0    0  0.68846962852E+01  0.11765292354E+02  0.17515766369E+02  0.22195117005E+02  0.51100000000E-03 0.  1.
        -12    1    4    4    0    0  0.15043174209E+02 -0.16468350640E+01  0.41476052958E-01  0.15133105308E+02  0.00000000000E+00 0.  1.
</event>
<event>
 8    1  0.1262344E-006  0.9118800E+02  0.7816164E-02  0.1184000E+00
        -11   -1    0    0    0    0  0.00000000000E+00  0.00000000000E+00  0.45593999997E+02  0.45594000000E+02  0.51100000000E-03 0. -1.
         11   -1    0    0    0    0 -0.00000000000E+00 -0.00000000000E+00 -0.45593999997E+02  0.45594000000E+02  0.51100000000E-03 0.  1.
         23    2    1    2    0    0  0.00000000000E+00 -0.13322676296E-14 -0.17763568394E-14  0.91188000000E+02  0.91188000000E+02 0.  0.
    9900012    2    3    3    0    0  0.34450675374E+02 -0.27248944948E+01  0.12708533197E+02  0.54367069814E+02  0.39999967255E+02 0.  0.
         12    1    3    3    0    0 -0.34450675374E+02  0.27248944948E+01 -0.12708533197E+02  0.36820930186E+02  0.00000000000E+00 0. -1.
         11    1    4    4    0    0 -0.62771495674E+00 -0.11910286985E+02 -0.10794981606E+01  0.11975570077E+02  0.51100000000E-03 0. -1.
        -11    1    4    4    0    0  0.42817552284E+00  0.17031732215E+01 -0.27592709601E+01  0.32707353597E+01  0.51100000000E-03 0.  1.
         12    1    4    4    0    0  0.34650214808E+02  0.74822192688E+01  0.16547302318E+02  0.39120764377E+02  0.00000000000E+00 0. -1.
</event>
<event>
 8    1  0.1262344E-006  0.9118800E+02  0.7816164E-02  0.1184000E+00
        -11   -1    0    0    0    0  0.00000000000E+00  0.00000000000E+00  0.45593999997E+02  0.45594000000E+02  0.51100000000E-03 0.  1.
         11   -1    0    0    0    0 -0.00000000000E+00 -0.00000000000E+00 -0.45593999997E+02  0.45594000000E+02  0.51100000000E-03 0. -1.
         23    2    1    2    0    0  0.00000000000E+00  0.00000000000E+00  0.00000000000E+00  0.91188000000E+02  0.91188000000E+02 0.  0.
    9900012    2    3    3    0    0  0.19625935609E+02 -0.18874259266E+02  0.24786396793E+02  0.54367075550E+02  0.39999980332E+02 0.  0.
        -12    1    3    3    0    0 -0.19625935609E+02  0.18874259266E+02 -0.24786396793E+02  0.36820924450E+02  0.00000000000E+00 0.  1.
         11    1    4    4    0    0 -0.30709371121E+01  0.96128485242E+00 -0.20655986520E+01  0.38237967214E+01  0.51100000000E-03 0. -1.
        -11    1    4    4    0    0 -0.16699419301E+01 -0.11513707588E+02 -0.20735863959E+01  0.11817526360E+02  0.51100000000E-03 0.  1.
        -12    1    4    4    0    0  0.24366814651E+02 -0.83218365305E+01  0.28925581840E+02  0.38725752469E+02  0.00000000000E+00 0.  1.
</event>
<event>
 8    1  0.1262344E-006  0.9118800E+02  0.7816164E-02  0.1184000E+00
        -11   -1    0    0    0    0  0.00000000000E+00  0.00000000000E+00  0.45593999997E+02  0.45594000000E+02  0.51100000000E-03 0. -1.
         11   -1    0    0    0    0 -0.00000000000E+00 -0.00000000000E+00 -0.45593999997E+02  0.45594000000E+02  0.51100000000E-03 0.  1.
         23    2    1    2    0    0 -0.17763568394E-14  0.00000000000E+00  0.00000000000E+00  0.91188000000E+02  0.91188000000E+02 0.  0.
    9900012    2    3    3    0    0 -0.14226906500E+02 -0.39433677529E+01  0.33731632041E+02  0.54367108947E+02  0.40000056466E+02 0.  0.
        -12    1    3    3    0    0  0.14226906500E+02  0.39433677529E+01 -0.33731632041E+02  0.36820891053E+02  0.00000000000E+00 0.  1.
         11    1    4    4    0    0 -0.88066922278E+01  0.21326940767E+01  0.14228354371E+02  0.16868677494E+02  0.51100000000E-03 0. -1.
        -11    1    4    4    0    0  0.29771709639E+01 -0.66698222672E+01  0.25909750499E+02  0.26919607115E+02  0.51100000000E-03 0.  1.
        -12    1    4    4    0    0 -0.83973852365E+01  0.59376043761E+00 -0.64064728292E+01  0.10578824338E+02  0.00000000000E+00 0.  1.
</event>
<event>
 8    1  0.1262344E-006  0.9118800E+02  0.7816164E-02  0.1184000E+00
        -11   -1    0    0    0    0  0.00000000000E+00  0.00000000000E+00  0.45593999997E+02  0.45594000000E+02  0.51100000000E-03 0. -1.
         11   -1    0    0    0    0 -0.00000000000E+00 -0.00000000000E+00 -0.45593999997E+02  0.45594000000E+02  0.51100000000E-03 0.  1.
         23    2    1    2    0    0  0.35527136788E-14  0.00000000000E+00  0.00000000000E+00  0.91188000000E+02  0.91188000000E+02 0.  0.
    9900012    2    3    3    0    0  0.15703307057E+02 -0.28018631546E+02 -0.18003937287E+02  0.54367091210E+02  0.40000016032E+02 0.  0.
         12    1    3    3    0    0 -0.15703307057E+02  0.28018631546E+02  0.18003937287E+02  0.36820908790E+02  0.00000000000E+00 0. -1.
         11    1    4    4    0    0 -0.68161926862E+01 -0.61128310918E+01 -0.73458468500E+01  0.11738341148E+02  0.51100000000E-03 0. -1.
        -11    1    4    4    0    0 -0.61195868169E+01 -0.39401007024E+01 -0.35938089285E+00  0.72871730625E+01  0.51100000000E-03 0.  1.
        -12    1    4    4    0    0  0.28639086561E+02 -0.17965699752E+02 -0.10298709544E+02  0.35341577000E+02  0.00000000000E+00 0.  1.
</event>
<event>
 8    1  0.1262344E-006  0.9118800E+02  0.7816164E-02  0.1184000E+00
        -11   -1    0    0    0    0  0.00000000000E+00  0.00000000000E+00  0.45593999997E+02  0.45594000000E+02  0.51100000000E-03 0.  1.
         11   -1    0    0    0    0 -0.00000000000E+00 -0.00000000000E+00 -0.45593999997E+02  0.45594000000E+02  0.51100000000E-03 0. -1.
         23    2    1    2    0    0  0.00000000000E+00 -0.17763568394E-14 -0.35527136788E-14  0.91188000000E+02  0.91188000000E+02 0.  0.
    9900012    2    3    3    0    0  0.20769209456E+02 -0.14219316864E+02 -0.26874342731E+02  0.54367091121E+02  0.40000015827E+02 0.  0.
        -12    1    3    3    0    0 -0.20769209456E+02  0.14219316864E+02  0.26874342731E+02  0.36820908879E+02  0.00000000000E+00 0.  1.
         11    1    4    4    0    0  0.11007980830E+02 -0.28599927416E+01 -0.65787683023E+01  0.13139078852E+02  0.51100000000E-03 0. -1.
        -11    1    4    4    0    0  0.12102882452E+02 -0.21572563892E+02 -0.17749037495E+02  0.30444763241E+02  0.51100000000E-03 0.  1.
        -12    1    4    4    0    0 -0.23416538257E+01  0.10213239770E+02 -0.25465369330E+01  0.10783249028E+02  0.00000000000E+00 0.  1.
</event>
<event>
 8    1  0.1262344E-006  0.9118800E+02  0.7816164E-02  0.1184000E+00
        -11   -1    0    0    0    0  0.00000000000E+00  0.00000000000E+00  0.45593999997E+02  0.45594000000E+02  0.51100000000E-03 0.  1.
         11   -1    0    0    0    0 -0.00000000000E+00 -0.00000000000E+00 -0.45593999997E+02  0.45594000000E+02  0.51100000000E-03 0. -1.
         23    2    1    2    0    0 -0.71054273576E-14 -0.35527136788E-14  0.17763568394E-14  0.91188000000E+02  0.91188000000E+02 0.  0.
    9900012    2    3    3    0    0 -0.33871988329E+02 -0.11360570150E+02  0.89110373111E+01  0.54367072072E+02  0.39999972403E+02 0.  0.
         12    1    3    3    0    0  0.33871988329E+02  0.11360570150E+02 -0.89110373111E+01  0.36820927928E+02  0.00000000000E+00 0. -1.
         11    1    4    4    0    0 -0.16122134429E+02  0.10371519448E+02 -0.44399415003E+00  0.19175212262E+02  0.51100000000E-03 0. -1.
        -11    1    4    4    0    0 -0.17086255061E+02 -0.63435290550E+01  0.73783970825E+01  0.19662685896E+02  0.51100000000E-03 0.  1.
         12    1    4    4    0    0 -0.66359883909E+00 -0.15388560543E+02  0.19766343786E+01  0.15529173914E+02  0.00000000000E+00 0. -1.
</event>
<event>
 8    1  0.1262344E-006  0.9118800E+02  0.7816164E-02  0.1184000E+00
        -11   -1    0    0    0    0  0.00000000000E+00  0.00000000000E+00  0.45593999997E+02  0.45594000000E+02  0.51100000000E-03 0.  1.
         11   -1    0    0    0    0 -0.00000000000E+00 -0.00000000000E+00 -0.45593999997E+02  0.45594000000E+02  0.51100000000E-03 0. -1.
         23    2    1    2    0    0  0.00000000000E+00  0.00000000000E+00  0.71054273576E-14  0.91188000000E+02  0.91188000000E+02 0.  0.
    9900012    2    3    3    0    0  0.16830645174E+02 -0.14590364107E+02  0.29319459621E+02  0.54367081296E+02  0.39999993430E+02 0.  0.
         12    1    3    3    0    0 -0.16830645174E+02  0.14590364107E+02 -0.29319459621E+02  0.36820918704E+02  0.00000000000E+00 0. -1.
         11    1    4    4    0    0 -0.27615429932E+01 -0.78242369836E+01  0.24852102205E+00  0.83009979543E+01  0.51100000000E-03 0. -1.
        -11    1    4    4    0    0  0.11106648474E+02 -0.16805946646E+02  0.25398510266E+02  0.32417307213E+02  0.51100000000E-03 0.  1.
         12    1    4    4    0    0  0.84855396930E+01  0.10039819523E+02  0.36724283335E+01  0.13648776128E+02  0.00000000000E+00 0. -1.
</event>
<event>
 8    1  0.1262344E-006  0.9118800E+02  0.7816164E-02  0.1184000E+00
        -11   -1    0    0    0    0  0.00000000000E+00  0.00000000000E+00  0.45593999997E+02  0.45594000000E+02  0.51100000000E-03 0.  1.
         11   -1    0    0    0    0 -0.00000000000E+00 -0.00000000000E+00 -0.45593999997E+02  0.45594000000E+02  0.51100000000E-03 0. -1.
         23    2    1    2    0    0  0.00000000000E+00  0.00000000000E+00 -0.44408920985E-15  0.91188000000E+02  0.91188000000E+02 0.  0.
    9900012    2    3    3    0    0 -0.35602367748E+02 -0.88673838539E+01  0.31016511447E+01  0.54367091191E+02  0.40000015989E+02 0.  0.
         12    1    3    3    0    0  0.35602367748E+02  0.88673838539E+01 -0.31016511447E+01  0.36820908809E+02  0.00000000000E+00 0. -1.
         11    1    4    4    0    0 -0.83233109851E+01  0.48901242349E+00 -0.78237125428E+01  0.11433595984E+02  0.51100000000E-03 0. -1.
        -11    1    4    4    0    0  0.23416053873E+01 -0.22682318659E+00 -0.68221944333E+01  0.72164327542E+01  0.51100000000E-03 0.  1.
        -12    1    4    4    0    0 -0.29620662150E+02 -0.91295730908E+01  0.17747558121E+02  0.35717062453E+02  0.00000000000E+00 0.  1.
</event>
<event>
 8    1  0.1262344E-006  0.9118800E+02  0.7816164E-02  0.1184000E+00
        -11   -1    0    0    0    0  0.00000000000E+00  0.00000000000E+00  0.45593999997E+02  0.45594000000E+02  0.51100000000E-03 0.  1.
         11   -1    0    0    0    0 -0.00000000000E+00 -0.00000000000E+00 -0.45593999997E+02  0.45594000000E+02  0.51100000000E-03 0. -1.
         23    2    1    2    0    0  0.00000000000E+00 -0.35527136788E-14  0.00000000000E+00  0.91188000000E+02  0.91188000000E+02 0.  0.
    9900012    2    3    3    0    0  0.20618386515E+02  0.18930850971E+02 -0.23922554820E+02  0.54367033010E+02  0.39999883352E+02 0.  0.
        -12    1    3    3    0    0 -0.20618386515E+02 -0.18930850971E+02  0.23922554820E+02  0.36820966990E+02  0.00000000000E+00 0.  1.
         11    1    4    4    0    0 -0.46932016944E+01  0.23464876931E+01 -0.54871573880E+01  0.75921698545E+01  0.51100000000E-03 0. -1.
        -11    1    4    4    0    0  0.76425296950E+00  0.92866757292E+01 -0.18997383093E+02  0.21159560330E+02  0.51100000000E-03 0.  1.
        -12    1    4    4    0    0  0.24547335240E+02  0.72976875491E+01  0.56198566147E+00  0.25615302825E+02  0.00000000000E+00 0.  1.
</event>
<event>
 8    1  0.1262344E-006  0.9118800E+02  0.7816164E-02  0.1184000E+00
        -11   -1    0    0    0    0  0.00000000000E+00  0.00000000000E+00  0.45593999997E+02  0.45594000000E+02  0.51100000000E-03 0. -1.
         11   -1    0    0    0    0 -0.00000000000E+00 -0.00000000000E+00 -0.45593999997E+02  0.45594000000E+02  0.51100000000E-03 0.  1.
         23    2    1    2    0    0  0.71054273576E-14  0.00000000000E+00 -0.44408920985E-15  0.91188000000E+02  0.91188000000E+02 0.  0.
    9900012    2    3    3    0    0 -0.32747118260E+02 -0.16643370753E+02  0.25310273775E+01  0.54367059709E+02  0.39999944218E+02 0.  0.
         12    1    3    3    0    0  0.32747118260E+02  0.16643370753E+02 -0.25310273775E+01  0.36820940291E+02  0.00000000000E+00 0. -1.
         11    1    4    4    0    0 -0.64045783955E+01  0.30860145159E+01 -0.38651439734E+01  0.80920608137E+01  0.51100000000E-03 0. -1.
        -11    1    4    4    0    0 -0.17653260276E+02 -0.27983588866E+02  0.92249584570E+00  0.33099393394E+02  0.51100000000E-03 0.  1.
        -12    1    4    4    0    0 -0.86892795885E+01  0.82542035972E+01  0.54736755052E+01  0.13175605501E+02  0.00000000000E+00 0.  1.
</event>
<event>
 8    1  0.1262344E-006  0.9118800E+02  0.7816164E-02  0.1184000E+00
        -11   -1    0    0    0    0  0.00000000000E+00  0.00000000000E+00  0.45593999997E+02  0.45594000000E+02  0.51100000000E-03 0. -1.
         11   -1    0    0    0    0 -0.00000000000E+00 -0.00000000000E+00 -0.45593999997E+02  0.45594000000E+02  0.51100000000E-03 0.  1.
         23    2    1    2    0    0  0.35527136788E-14  0.00000000000E+00  0.00000000000E+00  0.91188000000E+02  0.91188000000E+02 0.  0.
    9900012    2    3    3    0    0 -0.26264783782E+02 -0.23247472024E+02  0.11202421561E+02  0.54367108220E+02  0.40000054809E+02 0.  0.
        -12    1    3    3    0    0  0.26264783782E+02  0.23247472024E+02 -0.11202421561E+02  0.36820891780E+02  0.00000000000E+00 0.  1.
         11    1    4    4    0    0  0.38325603563E+01 -0.12735614840E+02  0.25724645135E+01  0.13546290199E+02  0.51100000000E-03 0. -1.
        -11    1    4    4    0    0 -0.97357465199E+01  0.71833130540E+01  0.65660305456E+01  0.13765809243E+02  0.51100000000E-03 0.  1.
        -12    1    4    4    0    0 -0.20361597619E+02 -0.17695170238E+02  0.20639265024E+01  0.27055008778E+02  0.00000000000E+00 0.  1.
</event>
<event>
 8    1  0.1262344E-006  0.9118800E+02  0.7816164E-02  0.1184000E+00
        -11   -1    0    0    0    0  0.00000000000E+00  0.00000000000E+00  0.45593999997E+02  0.45594000000E+02  0.51100000000E-03 0. -1.
         11   -1    0    0    0    0 -0.00000000000E+00 -0.00000000000E+00 -0.45593999997E+02  0.45594000000E+02  0.51100000000E-03 0.  1.
         23    2    1    2    0    0  0.00000000000E+00  0.99920072216E-15  0.88817841970E-15  0.91188000000E+02  0.91188000000E+02 0.  0.
    9900012    2    3    3    0    0  0.36319589546E+02 -0.46462068015E+00  0.60374681542E+01  0.54367089109E+02  0.40000011241E+02 0.  0.
         12    1    3    3    0    0 -0.36319589546E+02  0.46462068015E+00 -0.60374681542E+01  0.36820910891E+02  0.00000000000E+00 0. -1.
         11    1    4    4    0    0 -0.62731033020E+00 -0.70455594694E+01 -0.68492812674E+01  0.98461200799E+01  0.51100000000E-03 0. -1.
        -11    1    4    4    0    0  0.14087379629E+02 -0.68227595393E+01  0.79863148104E+01  0.17572294587E+02  0.51100000000E-03 0.  1.
         12    1    4    4    0    0  0.22859520247E+02  0.13403698329E+02  0.49004346113E+01  0.26948674442E+02  0.00000000000E+00 0. -1.
</event>
<event>
 8    1  0.1262344E-006  0.9118800E+02  0.7816164E-02  0.1184000E+00
        -11   -1    0    0    0    0  0.00000000000E+00  0.00000000000E+00  0.45593999997E+02  0.45594000000E+02  0.51100000000E-03 0. -1.
         11   -1    0    0    0    0 -0.00000000000E+00 -0.00000000000E+00 -0.45593999997E+02  0.45594000000E+02  0.51100000000E-03 0.  1.
         23    2    1    2    0    0  0.00000000000E+00  0.00000000000E+00  0.35527136788E-14  0.91188000000E+02  0.91188000000E+02 0.  0.
    9900012    2    3    3    0    0  0.24316606835E+02  0.53659008551E+01  0.27123605816E+02  0.54367078604E+02  0.39999987294E+02 0.  0.
        -12    1    3    3    0    0 -0.24316606835E+02 -0.53659008551E+01 -0.27123605816E+02  0.36820921396E+02  0.00000000000E+00 0.  1.
         11    1    4    4    0    0 -0.72861432942E+00 -0.53607825327E+01  0.11707107784E+02  0.12896714354E+02  0.51100000000E-03 0. -1.
        -11    1    4    4    0    0  0.18653881281E+01 -0.19886464159E+01 -0.65515335820E+01  0.70962652130E+01  0.51100000000E-03 0.  1.
         12    1    4    4    0    0  0.23179833036E+02  0.12715329804E+02  0.21968031614E+02  0.34374099037E+02  0.00000000000E+00 0. -1.
</event>
<event>
 8    1  0.1262344E-006  0.9118800E+02  0.7816164E-02  0.1184000E+00
        -11   -1    0    0    0    0  0.00000000000E+00  0.00000000000E+00  0.45593999997E+02  0.45594000000E+02  0.51100000000E-03 0. -1.
         11   -1    0    0    0    0 -0.00000000000E+00 -0.00000000000E+00 -0.45593999997E+02  0.45594000000E+02  0.51100000000E-03 0.  1.
         23    2    1    2    0    0  0.00000000000E+00  0.00000000000E+00  0.00000000000E+00  0.91188000000E+02  0.91188000000E+02 0.  0.
    9900012    2    3    3    0    0 -0.33461904392E+01 -0.26634532115E+02  0.25202863776E+02  0.54367087003E+02  0.40000006441E+02 0.  0.
        -12    1    3    3    0    0  0.33461904392E+01  0.26634532115E+02 -0.25202863776E+02  0.36820912997E+02  0.00000000000E+00 0.  1.
         11    1    4    4    0    0 -0.15851053223E+01  0.57565514935E+00 -0.16106705579E+01  0.23319943484E+01  0.51100000000E-03 0. -1.
        -11    1    4    4    0    0 -0.15252385952E+02 -0.83282245927E+01  0.11218018141E+01  0.17414162101E+02  0.51100000000E-03 0.  1.
         12    1    4    4    0    0  0.13491300835E+02 -0.18881962672E+02  0.25691732519E+02  0.34620930554E+02  0.00000000000E+00 0. -1.
</event>
<event>
 8    1  0.1262344E-006  0.9118800E+02  0.7816164E-02  0.1184000E+00
        -11   -1    0    0    0    0  0.00000000000E+00  0.00000000000E+00  0.45593999997E+02  0.45594000000E+02  0.51100000000E-03 0. -1.
         11   -1    0    0    0    0 -0.00000000000E+00 -0.00000000000E+00 -0.45593999997E+02  0.45594000000E+02  0.51100000000E-03 0.  1.
         23    2    1    2    0    0 -0.35527136788E-14  0.00000000000E+00  0.17763568394E-14  0.91188000000E+02  0.91188000000E+02 0.  0.
    9900012    2    3    3    0    0  0.25110439265E+02 -0.25264800309E+02  0.93239072572E+01  0.54367088261E+02  0.40000009308E+02 0.  0.
         12    1    3    3    0    0 -0.25110439265E+02  0.25264800309E+02 -0.93239072572E+01  0.36820911739E+02  0.00000000000E+00 0. -1.
         11    1    4    4    0    0 -0.53070813711E+01 -0.58796603783E+01  0.57414523401E+01  0.97826271563E+01  0.51100000000E-03 0. -1.
        -11    1    4    4    0    0  0.26034162235E+02 -0.12687625476E+02 -0.84176299933E+01  0.30159740358E+02  0.51100000000E-03 0.  1.
        -12    1    4    4    0    0  0.43833584011E+01 -0.66975144547E+01  0.12000084910E+02  0.14424720746E+02  0.00000000000E+00 0.  1.
</event>
<event>
 8    1  0.1262344E-006  0.9118800E+02  0.7816164E-02  0.1184000E+00
        -11   -1    0    0    0    0  0.00000000000E+00  0.00000000000E+00  0.45593999997E+02  0.45594000000E+02  0.51100000000E-03 0.  1.
         11   -1    0    0    0    0 -0.00000000000E+00 -0.00000000000E+00 -0.45593999997E+02  0.45594000000E+02  0.51100000000E-03 0. -1.
         23    2    1    2    0    0  0.00000000000E+00 -0.44408920985E-15  0.35527136788E-14  0.91188000000E+02  0.91188000000E+02 0.  0.
    9900012    2    3    3    0    0 -0.23126072477E+02  0.77876149711E+00  0.28641753410E+02  0.54367194250E+02  0.40000250931E+02 0.  0.
         12    1    3    3    0    0  0.23126072477E+02 -0.77876149711E+00 -0.28641753410E+02  0.36820805750E+02  0.00000000000E+00 0. -1.
         11    1    4    4    0    0 -0.73132955515E+01 -0.79383700010E+01  0.48001155462E+01  0.11812837069E+02  0.51100000000E-03 0. -1.
        -11    1    4    4    0    0 -0.19492860357E+02  0.40243872976E+01  0.21055557318E+01  0.20015010947E+02  0.51100000000E-03 0.  1.
        -12    1    4    4    0    0  0.36800834313E+01  0.46927442005E+01  0.21736082132E+02  0.22539346234E+02  0.00000000000E+00 0.  1.
</event>
<event>
 8    1  0.1262344E-006  0.9118800E+02  0.7816164E-02  0.1184000E+00
        -11   -1    0    0    0    0  0.00000000000E+00  0.00000000000E+00  0.45593999997E+02  0.45594000000E+02  0.51100000000E-03 0.  1.
         11   -1    0    0    0    0 -0.00000000000E+00 -0.00000000000E+00 -0.45593999997E+02  0.45594000000E+02  0.51100000000E-03 0. -1.
         23    2    1    2    0    0  0.00000000000E+00  0.71054273576E-14  0.35527136788E-14  0.91188000000E+02  0.91188000000E+02 0.  0.
    9900012    2    3    3    0    0  0.83957551146E+01  0.29826161002E+02  0.19891981008E+02  0.54367088924E+02  0.40000010819E+02 0.  0.
         12    1    3    3    0    0 -0.83957551146E+01 -0.29826161002E+02 -0.19891981008E+02  0.36820911076E+02  0.00000000000E+00 0. -1.
         11    1    4    4    0    0  0.47768517431E+01  0.16902815063E+01  0.10634273359E+02  0.11779776495E+02  0.51100000000E-03 0. -1.
        -11    1    4    4    0    0  0.13339545514E+02  0.93192492504E+01  0.13311724366E+02  0.21023650657E+02  0.51100000000E-03 0.  1.
         12    1    4    4    0    0 -0.97206421422E+01  0.18816630245E+02 -0.40540167166E+01  0.21563661771E+02  0.00000000000E+00 0. -1.
</event>
<event>
 8    1  0.1262344E-006  0.9118800E+02  0.7816164E-02  0.1184000E+00
        -11   -1    0    0    0    0  0.00000000000E+00  0.00000000000E+00  0.45593999997E+02  0.45594000000E+02  0.51100000000E-03 0. -1.
         11   -1    0    0    0    0 -0.00000000000E+00 -0.00000000000E+00 -0.45593999997E+02  0.45594000000E+02  0.51100000000E-03 0.  1.
         23    2    1    2    0    0  0.00000000000E+00  0.00000000000E+00  0.00000000000E+00  0.91188000000E+02  0.91188000000E+02 0.  0.
    9900012    2    3    3    0    0  0.26140699190E+02 -0.24466788502E+02  0.85919182323E+01  0.54367069096E+02  0.39999965618E+02 0.  0.
         12    1    3    3    0    0 -0.26140699190E+02  0.24466788502E+02 -0.85919182323E+01  0.36820930904E+02  0.00000000000E+00 0. -1.
         11    1    4    4    0    0  0.13686627978E+02 -0.44464270350E+01 -0.45742746518E+01  0.15100281045E+02  0.51100000000E-03 0.  1.
        -11    1    4    4    0    0  0.19039589632E+02 -0.22849598684E+02  0.11637188700E+02  0.31937975741E+02  0.51100000000E-03 0. -1.
         12    1    4    4    0    0 -0.65855184194E+01  0.28292372167E+01  0.15290041845E+01  0.73288123101E+01  0.00000000000E+00 0. -1.
</event>
<event>
 8    1  0.1262344E-006  0.9118800E+02  0.7816164E-02  0.1184000E+00
        -11   -1    0    0    0    0  0.00000000000E+00  0.00000000000E+00  0.45593999997E+02  0.45594000000E+02  0.51100000000E-03 0.  1.
         11   -1    0    0    0    0 -0.00000000000E+00 -0.00000000000E+00 -0.45593999997E+02  0.45594000000E+02  0.51100000000E-03 0. -1.
         23    2    1    2    0    0  0.00000000000E+00 -0.35527136788E-14  0.00000000000E+00  0.91188000000E+02  0.91188000000E+02 0.  0.
    9900012    2    3    3    0    0 -0.11039832413E+02 -0.27908847576E+02 -0.21330699265E+02  0.54367076548E+02  0.39999982607E+02 0.  0.
        -12    1    3    3    0    0  0.11039832413E+02  0.27908847576E+02  0.21330699265E+02  0.36820923452E+02  0.00000000000E+00 0.  1.
         11    1    4    4    0    0 -0.10315270315E+02 -0.12696385268E+02 -0.14920581374E+02  0.22141064775E+02  0.51100000000E-03 0. -1.
        -11    1    4    4    0    0  0.47820801333E+00 -0.61283197865E+01 -0.17085237795E+02  0.18157376933E+02  0.51100000000E-03 0.  1.
        -12    1    4    4    0    0 -0.12027701107E+01 -0.90841425216E+01  0.10675119905E+02  0.14068634841E+02  0.00000000000E+00 0.  1.
</event>
<event>
 8    1  0.1262344E-006  0.9118800E+02  0.7816164E-02  0.1184000E+00
        -11   -1    0    0    0    0  0.00000000000E+00  0.00000000000E+00  0.45593999997E+02  0.45594000000E+02  0.51100000000E-03 0.  1.
         11   -1    0    0    0    0 -0.00000000000E+00 -0.00000000000E+00 -0.45593999997E+02  0.45594000000E+02  0.51100000000E-03 0. -1.
         23    2    1    2    0    0 -0.35527136788E-14 -0.35527136788E-14 -0.17763568394E-14  0.91188000000E+02  0.91188000000E+02 0.  0.
    9900012    2    3    3    0    0  0.22042372466E+02  0.27176410431E+02  0.11461074569E+02  0.54367086132E+02  0.40000004455E+02 0.  0.
         12    1    3    3    0    0 -0.22042372466E+02 -0.27176410431E+02 -0.11461074569E+02  0.36820913868E+02  0.00000000000E+00 0. -1.
         11    1    4    4    0    0  0.12566329245E+02  0.21885280840E+02  0.28837287908E+01  0.25400670073E+02  0.51100000000E-03 0. -1.
        -11    1    4    4    0    0  0.14226510830E+02 -0.23019298656E+01  0.12604635909E+02  0.19146000579E+02  0.51100000000E-03 0.  1.
        -12    1    4    4    0    0 -0.47504676095E+01  0.75930594558E+01 -0.40272901309E+01  0.98204154803E+01  0.00000000000E+00 0.  1.
</event>
<event>
 8    1  0.1262344E-006  0.9118800E+02  0.7816164E-02  0.1184000E+00
        -11   -1    0    0    0    0  0.00000000000E+00  0.00000000000E+00  0.45593999997E+02  0.45594000000E+02  0.51100000000E-03 0. -1.
         11   -1    0    0    0    0 -0.00000000000E+00 -0.00000000000E+00 -0.45593999997E+02  0.45594000000E+02  0.51100000000E-03 0.  1.
         23    2    1    2    0    0 -0.17763568394E-14  0.35527136788E-14  0.35527136788E-14  0.91188000000E+02  0.91188000000E+02 0.  0.
    9900012    2    3    3    0    0 -0.11335443720E+02  0.21581903506E+02  0.27595451578E+02  0.54367084869E+02  0.40000001577E+02 0.  0.
        -12    1    3    3    0    0  0.11335443720E+02 -0.21581903506E+02 -0.27595451578E+02  0.36820915131E+02  0.00000000000E+00 0.  1.
         11    1    4    4    0    0  0.78221136598E+00  0.93858889573E+01  0.15744753442E+02  0.18346771578E+02  0.51100000000E-03 0. -1.
        -11    1    4    4    0    0 -0.18968697690E+02  0.16714687135E+02  0.61256955305E+01  0.26013773353E+02  0.51100000000E-03 0.  1.
        -12    1    4    4    0    0  0.68510426040E+01 -0.45186725861E+01  0.57250026057E+01  0.10006539938E+02  0.00000000000E+00 0.  1.
</event>
<event>
 8    1  0.1262344E-006  0.9118800E+02  0.7816164E-02  0.1184000E+00
        -11   -1    0    0    0    0  0.00000000000E+00  0.00000000000E+00  0.45593999997E+02  0.45594000000E+02  0.51100000000E-03 0.  1.
         11   -1    0    0    0    0 -0.00000000000E+00 -0.00000000000E+00 -0.45593999997E+02  0.45594000000E+02  0.51100000000E-03 0. -1.
         23    2    1    2    0    0  0.00000000000E+00  0.17763568394E-14  0.35527136788E-14  0.91188000000E+02  0.91188000000E+02 0.  0.
    9900012    2    3    3    0    0 -0.18604643031E+02  0.28435052349E+01  0.31647460305E+02  0.54367081922E+02  0.39999994858E+02 0.  0.
         12    1    3    3    0    0  0.18604643031E+02 -0.28435052349E+01 -0.31647460305E+02  0.36820918078E+02  0.00000000000E+00 0. -1.
         11    1    4    4    0    0 -0.20730140535E+01  0.15301508373E+02  0.75038791976E+00  0.15459515776E+02  0.51100000000E-03 0. -1.
        -11    1    4    4    0    0 -0.89704026544E+01 -0.62371703733E+00  0.16526310081E+02  0.18814251829E+02  0.51100000000E-03 0.  1.
         12    1    4    4    0    0 -0.75612263236E+01 -0.11834286101E+02  0.14370762304E+02  0.20093314317E+02  0.00000000000E+00 0. -1.
</event>
<event>
 8    1  0.1262344E-006  0.9118800E+02  0.7816164E-02  0.1184000E+00
        -11   -1    0    0    0    0  0.00000000000E+00  0.00000000000E+00  0.45593999997E+02  0.45594000000E+02  0.51100000000E-03 0. -1.
         11   -1    0    0    0    0 -0.00000000000E+00 -0.00000000000E+00 -0.45593999997E+02  0.45594000000E+02  0.51100000000E-03 0.  1.
         23    2    1    2    0    0  0.00000000000E+00 -0.88817841970E-15  0.00000000000E+00  0.91188000000E+02  0.91188000000E+02 0.  0.
    9900012    2    3    3    0    0 -0.24400458670E+02 -0.47019232423E+01 -0.27171490556E+02  0.54367077082E+02  0.39999983824E+02 0.  0.
         12    1    3    3    0    0  0.24400458670E+02  0.47019232423E+01  0.27171490556E+02  0.36820922918E+02  0.00000000000E+00 0. -1.
         11    1    4    4    0    0 -0.87265054513E+01 -0.10783637875E+02 -0.25743213445E+02  0.29242978336E+02  0.51100000000E-03 0. -1.
        -11    1    4    4    0    0 -0.16116800369E+02 -0.16272031621E+01  0.26141619378E+01  0.16408317621E+02  0.51100000000E-03 0.  1.
        -12    1    4    4    0    0  0.44284715001E+00  0.77089177946E+01 -0.40424390484E+01  0.87157811252E+01  0.00000000000E+00 0.  1.
</event>
<event>
 8    1  0.1262344E-006  0.9118800E+02  0.7816164E-02  0.1184000E+00
        -11   -1    0    0    0    0  0.00000000000E+00  0.00000000000E+00  0.45593999997E+02  0.45594000000E+02  0.51100000000E-03 0.  1.
         11   -1    0    0    0    0 -0.00000000000E+00 -0.00000000000E+00 -0.45593999997E+02  0.45594000000E+02  0.51100000000E-03 0. -1.
         23    2    1    2    0    0 -0.17763568394E-14  0.35527136788E-14  0.35527136788E-14  0.91188000000E+02  0.91188000000E+02 0.  0.
    9900012    2    3    3    0    0  0.83464454156E+01 -0.31181140323E+02 -0.17715916492E+02  0.54367077142E+02  0.39999983961E+02 0.  0.
        -12    1    3    3    0    0 -0.83464454156E+01  0.31181140323E+02  0.17715916492E+02  0.36820922858E+02  0.00000000000E+00 0.  1.
         11    1    4    4    0    0  0.10455520617E+02 -0.27566337766E+01 -0.10596706833E+02  0.15139588407E+02  0.51100000000E-03 0. -1.
        -11    1    4    4    0    0 -0.85899579076E+01 -0.15026158971E+02  0.70397110303E+01  0.18685030423E+02  0.51100000000E-03 0.  1.
        -12    1    4    4    0    0  0.64808827058E+01 -0.13398347576E+02 -0.14158920689E+02  0.20542458312E+02  0.00000000000E+00 0.  1.
</event>
<event>
 8    1  0.1262344E-006  0.9118800E+02  0.7816164E-02  0.1184000E+00
        -11   -1    0    0    0    0  0.00000000000E+00  0.00000000000E+00  0.45593999997E+02  0.45594000000E+02  0.51100000000E-03 0. -1.
         11   -1    0    0    0    0 -0.00000000000E+00 -0.00000000000E+00 -0.45593999997E+02  0.45594000000E+02  0.51100000000E-03 0.  1.
         23    2    1    2    0    0  0.17763568394E-14 -0.35527136788E-14  0.00000000000E+00  0.91188000000E+02  0.91188000000E+02 0.  0.
    9900012    2    3    3    0    0 -0.15410393719E+02 -0.17316306858E+02  0.28608474540E+02  0.54367088370E+02  0.40000009556E+02 0.  0.
        -12    1    3    3    0    0  0.15410393719E+02  0.17316306858E+02 -0.28608474540E+02  0.36820911630E+02  0.00000000000E+00 0.  1.
         11    1    4    4    0    0 -0.45830646627E+01  0.17754052698E+01  0.45435942992E+01  0.66933395992E+01  0.51100000000E-03 0. -1.
        -11    1    4    4    0    0 -0.15860031431E+02 -0.10610889414E+02  0.30443043902E+02  0.35929242873E+02  0.51100000000E-03 0.  1.
        -12    1    4    4    0    0  0.50327023749E+01 -0.84808227138E+01 -0.63781636605E+01  0.11744505898E+02  0.00000000000E+00 0.  1.
</event>
<event>
 8    1  0.1262344E-006  0.9118800E+02  0.7816164E-02  0.1184000E+00
        -11   -1    0    0    0    0  0.00000000000E+00  0.00000000000E+00  0.45593999997E+02  0.45594000000E+02  0.51100000000E-03 0. -1.
         11   -1    0    0    0    0 -0.00000000000E+00 -0.00000000000E+00 -0.45593999997E+02  0.45594000000E+02  0.51100000000E-03 0.  1.
         23    2    1    2    0    0  0.00000000000E+00  0.00000000000E+00  0.35527136788E-14  0.91188000000E+02  0.91188000000E+02 0.  0.
    9900012    2    3    3    0    0 -0.12615117080E+02 -0.19694723436E+02 -0.28438652960E+02  0.54367078062E+02  0.39999986058E+02 0.  0.
         12    1    3    3    0    0  0.12615117080E+02  0.19694723436E+02  0.28438652960E+02  0.36820921938E+02  0.00000000000E+00 0. -1.
         11    1    4    4    0    0 -0.39983010370E+01 -0.11716630207E+02 -0.49123580888E+01  0.13319050148E+02  0.51100000000E-03 0. -1.
        -11    1    4    4    0    0 -0.65093745933E+01 -0.16167781055E+02 -0.26809256205E+02  0.31976637102E+02  0.51100000000E-03 0.  1.
         12    1    4    4    0    0 -0.21074414502E+01  0.81896878254E+01  0.32829613343E+01  0.90713908121E+01  0.00000000000E+00 0. -1.
</event>
<event>
 8    1  0.1262344E-006  0.9118800E+02  0.7816164E-02  0.1184000E+00
        -11   -1    0    0    0    0  0.00000000000E+00  0.00000000000E+00  0.45593999997E+02  0.45594000000E+02  0.51100000000E-03 0.  1.
         11   -1    0    0    0    0 -0.00000000000E+00 -0.00000000000E+00 -0.45593999997E+02  0.45594000000E+02  0.51100000000E-03 0. -1.
         23    2    1    2    0    0  0.00000000000E+00  0.00000000000E+00  0.00000000000E+00  0.91188000000E+02  0.91188000000E+02 0.  0.
    9900012    2    3    3    0    0  0.13850591819E+02  0.91466487294E+01 -0.32867582288E+02  0.54367108618E+02  0.40000055716E+02 0.  0.
        -12    1    3    3    0    0 -0.13850591819E+02 -0.91466487294E+01  0.32867582288E+02  0.36820891382E+02  0.00000000000E+00 0.  1.
         11    1    4    4    0    0  0.72617408078E+01 -0.68530389444E+01 -0.17848386144E+02  0.20451452529E+02  0.51100000000E-03 0. -1.
        -11    1    4    4    0    0 -0.86226384715E+01  0.10932676113E+01 -0.18850555542E+01  0.88937372900E+01  0.51100000000E-03 0.  1.
        -12    1    4    4    0    0  0.15211489483E+02  0.14906420062E+02 -0.13134140590E+02  0.25021918799E+02  0.00000000000E+00 0.  1.
</event>
<event>
 8    1  0.1262344E-006  0.9118800E+02  0.7816164E-02  0.1184000E+00
        -11   -1    0    0    0    0  0.00000000000E+00  0.00000000000E+00  0.45593999997E+02  0.45594000000E+02  0.51100000000E-03 0.  1.
         11   -1    0    0    0    0 -0.00000000000E+00 -0.00000000000E+00 -0.45593999997E+02  0.45594000000E+02  0.51100000000E-03 0. -1.
         23    2    1    2    0    0  0.00000000000E+00  0.17763568394E-14 -0.17763568394E-14  0.91188000000E+02  0.91188000000E+02 0.  0.
    9900012    2    3    3    0    0  0.30909073132E+02 -0.14239908202E+02  0.14058226898E+02  0.54367088401E+02  0.40000009628E+02 0.  0.
         12    1    3    3    0    0 -0.30909073132E+02  0.14239908202E+02 -0.14058226898E+02  0.36820911599E+02  0.00000000000E+00 0. -1.
         11    1    4    4    0    0 -0.49325180442E+00 -0.92903869798E+00  0.10634988073E+02  0.10686878956E+02  0.51100000000E-03 0. -1.
        -11    1    4    4    0    0 -0.39473010156E+01 -0.64114898678E+01  0.62048431262E+00  0.75546931556E+01  0.51100000000E-03 0.  1.
        -12    1    4    4    0    0  0.35349625952E+02 -0.68993796360E+01  0.28027545121E+01  0.36125516289E+02  0.00000000000E+00 0.  1.
</event>
<event>
 8    1  0.1262344E-006  0.9118800E+02  0.7816164E-02  0.1184000E+00
        -11   -1    0    0    0    0  0.00000000000E+00  0.00000000000E+00  0.45593999997E+02  0.45594000000E+02  0.51100000000E-03 0.  1.
         11   -1    0    0    0    0 -0.00000000000E+00 -0.00000000000E+00 -0.45593999997E+02  0.45594000000E+02  0.51100000000E-03 0. -1.
         23    2    1    2    0    0  0.00000000000E+00 -0.26645352591E-14  0.35527136788E-14  0.91188000000E+02  0.91188000000E+02 0.  0.
    9900012    2    3    3    0    0 -0.32130553863E+02 -0.74011422883E+01  0.16389891705E+02  0.54367109885E+02  0.40000058605E+02 0.  0.
        -12    1    3    3    0    0  0.32130553863E+02  0.74011422883E+01 -0.16389891705E+02  0.36820890115E+02  0.00000000000E+00 0.  1.
         11    1    4    4    0    0 -0.14890680152E+02  0.30695999864E+01 -0.85082330183E+01  0.17422537956E+02  0.51100000000E-03 0. -1.
        -11    1    4    4    0    0 -0.19992698883E+02 -0.83157326243E+01  0.14720013140E+02  0.26182784512E+02  0.51100000000E-03 0.  1.
         12    1    4    4    0    0  0.27528251715E+01 -0.21550096504E+01  0.10178111583E+02  0.10761787417E+02  0.00000000000E+00 0. -1.
</event>
<event>
 8    1  0.1262344E-006  0.9118800E+02  0.7816164E-02  0.1184000E+00
        -11   -1    0    0    0    0  0.00000000000E+00  0.00000000000E+00  0.45593999997E+02  0.45594000000E+02  0.51100000000E-03 0. -1.
         11   -1    0    0    0    0 -0.00000000000E+00 -0.00000000000E+00 -0.45593999997E+02  0.45594000000E+02  0.51100000000E-03 0.  1.
         23    2    1    2    0    0  0.17763568394E-14  0.35527136788E-14  0.17763568394E-14  0.91188000000E+02  0.91188000000E+02 0.  0.
    9900012    2    3    3    0    0  0.11668951148E+02 -0.31778421657E+02 -0.14482688892E+02  0.54367071420E+02  0.39999970917E+02 0.  0.
         12    1    3    3    0    0 -0.11668951148E+02  0.31778421657E+02  0.14482688892E+02  0.36820928580E+02  0.00000000000E+00 0. -1.
         11    1    4    4    0    0  0.16287900858E+02 -0.23593720058E+02 -0.90661636464E+01  0.30069164672E+02  0.51100000000E-03 0. -1.
        -11    1    4    4    0    0 -0.36914339741E+01 -0.46171815829E+01 -0.13869194562E+02  0.15076458756E+02  0.51100000000E-03 0.  1.
         12    1    4    4    0    0 -0.92751573652E+00 -0.35675200161E+01  0.84526693163E+01  0.92214479925E+01  0.00000000000E+00 0. -1.
</event>
<event>
 8    1  0.1262344E-006  0.9118800E+02  0.7816164E-02  0.1184000E+00
        -11   -1    0    0    0    0  0.00000000000E+00  0.00000000000E+00  0.45593999997E+02  0.45594000000E+02  0.51100000000E-03 0. -1.
         11   -1    0    0    0    0 -0.00000000000E+00 -0.00000000000E+00 -0.45593999997E+02  0.45594000000E+02  0.51100000000E-03 0.  1.
         23    2    1    2    0    0  0.00000000000E+00  0.00000000000E+00  0.00000000000E+00  0.91188000000E+02  0.91188000000E+02 0.  0.
    9900012    2    3    3    0    0 -0.27894569650E+02  0.17582535839E+02 -0.16386818484E+02  0.54367076567E+02  0.39999982649E+02 0.  0.
         12    1    3    3    0    0  0.27894569650E+02 -0.17582535839E+02  0.16386818484E+02  0.36820923433E+02  0.00000000000E+00 0. -1.
         11    1    4    4    0    0 -0.88702572415E+01  0.79783037735E+01  0.68958878984E+01  0.13779987837E+02  0.51100000000E-03 0. -1.
        -11    1    4    4    0    0 -0.55414053652E+01  0.75657442443E+01 -0.25133321196E+02  0.26825948147E+02  0.51100000000E-03 0.  1.
         12    1    4    4    0    0 -0.13482907043E+02  0.20384878212E+01  0.18506148137E+01  0.13761140582E+02  0.00000000000E+00 0. -1.
</event>
<event>
 8    1  0.1262344E-006  0.9118800E+02  0.7816164E-02  0.1184000E+00
        -11   -1    0    0    0    0  0.00000000000E+00  0.00000000000E+00  0.45593999997E+02  0.45594000000E+02  0.51100000000E-03 0.  1.
         11   -1    0    0    0    0 -0.00000000000E+00 -0.00000000000E+00 -0.45593999997E+02  0.45594000000E+02  0.51100000000E-03 0. -1.
         23    2    1    2    0    0  0.00000000000E+00  0.00000000000E+00 -0.35527136788E-14  0.91188000000E+02  0.91188000000E+02 0.  0.
    9900012    2    3    3    0    0 -0.70035665230E+01  0.20996754421E+02 -0.29425624514E+02  0.54367068205E+02  0.39999963587E+02 0.  0.
        -12    1    3    3    0    0  0.70035665230E+01 -0.20996754421E+02  0.29425624514E+02  0.36820931795E+02  0.00000000000E+00 0.  1.
         11    1    4    4    0    0 -0.60813081787E+01 -0.32399016937E+01 -0.21010190316E+01  0.72037180248E+01  0.51100000000E-03 0. -1.
        -11    1    4    4    0    0 -0.46144064146E+01 -0.64642067016E+00  0.45806542561E+01  0.65339880561E+01  0.51100000000E-03 0.  1.
         12    1    4    4    0    0  0.36921480703E+01  0.24883076784E+02 -0.31905259738E+02  0.40629362124E+02  0.00000000000E+00 0. -1.
</event>
<event>
 8    1  0.1262344E-006  0.9118800E+02  0.7816164E-02  0.1184000E+00
        -11   -1    0    0    0    0  0.00000000000E+00  0.00000000000E+00  0.45593999997E+02  0.45594000000E+02  0.51100000000E-03 0.  1.
         11   -1    0    0    0    0 -0.00000000000E+00 -0.00000000000E+00 -0.45593999997E+02  0.45594000000E+02  0.51100000000E-03 0. -1.
         23    2    1    2    0    0  0.88817841970E-15 -0.71054273576E-14 -0.17763568394E-14  0.91188000000E+02  0.91188000000E+02 0.  0.
    9900012    2    3    3    0    0 -0.61087986646E+01  0.35038368696E+02  0.95275320284E+01  0.54367101470E+02  0.40000039421E+02 0.  0.
         12    1    3    3    0    0  0.61087986646E+01 -0.35038368696E+02 -0.95275320284E+01  0.36820898530E+02  0.00000000000E+00 0. -1.
         11    1    4    4    0    0  0.72016055498E+00  0.15097275483E+02  0.18210811209E+00  0.15115539086E+02  0.51100000000E-03 0. -1.
        -11    1    4    4    0    0 -0.28692337301E+01  0.28157134390E+02  0.37469413551E+01  0.28549891227E+02  0.51100000000E-03 0.  1.
        -12    1    4    4    0    0 -0.39597254895E+01 -0.82160411769E+01  0.55984825612E+01  0.10701671157E+02  0.00000000000E+00 0.  1.
</event>
<event>
 8    1  0.1262344E-006  0.9118800E+02  0.7816164E-02  0.1184000E+00
        -11   -1    0    0    0    0  0.00000000000E+00  0.00000000000E+00  0.45593999997E+02  0.45594000000E+02  0.51100000000E-03 0.  1.
         11   -1    0    0    0    0 -0.00000000000E+00 -0.00000000000E+00 -0.45593999997E+02  0.45594000000E+02  0.51100000000E-03 0. -1.
         23    2    1    2    0    0  0.00000000000E+00  0.35527136788E-14  0.00000000000E+00  0.91188000000E+02  0.91188000000E+02 0.  0.
    9900012    2    3    3    0    0  0.23819058219E+02  0.22604677857E+02 -0.16657167600E+02  0.54367078937E+02  0.39999988053E+02 0.  0.
        -12    1    3    3    0    0 -0.23819058219E+02 -0.22604677857E+02  0.16657167600E+02  0.36820921063E+02  0.00000000000E+00 0.  1.
         11    1    4    4    0    0  0.13441710471E+02 -0.67401821182E+00  0.43210219755E+01  0.14135243617E+02  0.51100000000E-03 0. -1.
        -11    1    4    4    0    0 -0.14249484697E+01 -0.13501967968E+00  0.38588202266E+01  0.41157262127E+01  0.51100000000E-03 0.  1.
         12    1    4    4    0    0  0.11802296218E+02  0.23413715748E+02 -0.24837009802E+02  0.36116109108E+02  0.00000000000E+00 0. -1.
</event>
<event>
 8    1  0.1262344E-006  0.9118800E+02  0.7816164E-02  0.1184000E+00
        -11   -1    0    0    0    0  0.00000000000E+00  0.00000000000E+00  0.45593999997E+02  0.45594000000E+02  0.51100000000E-03 0. -1.
         11   -1    0    0    0    0 -0.00000000000E+00 -0.00000000000E+00 -0.45593999997E+02  0.45594000000E+02  0.51100000000E-03 0.  1.
         23    2    1    2    0    0  0.00000000000E+00  0.35527136788E-14  0.22204460493E-15  0.91188000000E+02  0.91188000000E+02 0.  0.
    9900012    2    3    3    0    0  0.29939198567E+02  0.21377049595E+02 -0.15639305092E+01  0.54367085579E+02  0.40000003193E+02 0.  0.
         12    1    3    3    0    0 -0.29939198567E+02 -0.21377049595E+02  0.15639305092E+01  0.36820914421E+02  0.00000000000E+00 0. -1.
         11    1    4    4    0    0  0.63133075560E+01 -0.79691925914E+01 -0.66582848080E+01  0.12153132917E+02  0.51100000000E-03 0.  1.
        -11    1    4    4    0    0  0.17707191035E+02  0.30971592600E+02  0.53276440287E+01  0.36071705722E+02  0.51100000000E-03 0. -1.
         12    1    4    4    0    0  0.59186999755E+01 -0.16253504137E+01 -0.23328972990E+00  0.61422469395E+01  0.00000000000E+00 0. -1.
</event>
<event>
 8    1  0.1262344E-006  0.9118800E+02  0.7816164E-02  0.1184000E+00
        -11   -1    0    0    0    0  0.00000000000E+00  0.00000000000E+00  0.45593999997E+02  0.45594000000E+02  0.51100000000E-03 0. -1.
         11   -1    0    0    0    0 -0.00000000000E+00 -0.00000000000E+00 -0.45593999997E+02  0.45594000000E+02  0.51100000000E-03 0.  1.
         23    2    1    2    0    0 -0.35527136788E-14  0.00000000000E+00  0.00000000000E+00  0.91188000000E+02  0.91188000000E+02 0.  0.
    9900012    2    3    3    0    0 -0.26941154828E+02 -0.12942132130E+02 -0.21504762884E+02  0.54367089715E+02  0.40000012624E+02 0.  0.
         12    1    3    3    0    0  0.26941154828E+02  0.12942132130E+02  0.21504762884E+02  0.36820910285E+02  0.00000000000E+00 0. -1.
         11    1    4    4    0    0 -0.73748872779E+01  0.44219341393E+01 -0.11790459621E+02  0.14593060070E+02  0.51100000000E-03 0. -1.
        -11    1    4    4    0    0 -0.15504041072E+02 -0.18178109535E+01  0.65338958231E+01  0.16922515213E+02  0.51100000000E-03 0.  1.
        -12    1    4    4    0    0 -0.40622264774E+01 -0.15546255316E+02 -0.16248199086E+02  0.22851514432E+02  0.00000000000E+00 0.  1.
</event>
<event>
 8    1  0.1262344E-006  0.9118800E+02  0.7816164E-02  0.1184000E+00
        -11   -1    0    0    0    0  0.00000000000E+00  0.00000000000E+00  0.45593999997E+02  0.45594000000E+02  0.51100000000E-03 0. -1.
         11   -1    0    0    0    0 -0.00000000000E+00 -0.00000000000E+00 -0.45593999997E+02  0.45594000000E+02  0.51100000000E-03 0.  1.
         23    2    1    2    0    0  0.88817841970E-15  0.00000000000E+00  0.00000000000E+00  0.91188000000E+02  0.91188000000E+02 0.  0.
    9900012    2    3    3    0    0 -0.69722140149E+01 -0.27347687352E+02  0.23648923965E+02  0.54367090499E+02  0.40000014410E+02 0.  0.
        -12    1    3    3    0    0  0.69722140149E+01  0.27347687352E+02 -0.23648923965E+02  0.36820909501E+02  0.00000000000E+00 0.  1.
         11    1    4    4    0    0 -0.13079966947E+01  0.55642842323E+01 -0.52231804816E+01  0.77429793345E+01  0.51100000000E-03 0. -1.
        -11    1    4    4    0    0  0.24586869974E+01 -0.16660399219E+02  0.20746411895E+02  0.26721295827E+02  0.51100000000E-03 0.  1.
         12    1    4    4    0    0 -0.81229043176E+01 -0.16251572365E+02  0.81256925518E+01  0.19902815337E+02  0.00000000000E+00 0. -1.
</event>
<event>
 8    1  0.1262344E-006  0.9118800E+02  0.7816164E-02  0.1184000E+00
        -11   -1    0    0    0    0  0.00000000000E+00  0.00000000000E+00  0.45593999997E+02  0.45594000000E+02  0.51100000000E-03 0. -1.
         11   -1    0    0    0    0 -0.00000000000E+00 -0.00000000000E+00 -0.45593999997E+02  0.45594000000E+02  0.51100000000E-03 0.  1.
         23    2    1    2    0    0  0.00000000000E+00  0.00000000000E+00  0.00000000000E+00  0.91188000000E+02  0.91188000000E+02 0.  0.
    9900012    2    3    3    0    0 -0.19546469915E+02  0.22196923521E+02  0.21931942249E+02  0.54367109316E+02  0.40000057309E+02 0.  0.
        -12    1    3    3    0    0  0.19546469915E+02 -0.22196923521E+02 -0.21931942249E+02  0.36820890684E+02  0.00000000000E+00 0.  1.
         11    1    4    4    0    0 -0.19135059676E+01  0.54217830137E+01  0.72730556963E+01  0.92711690503E+01  0.51100000000E-03 0. -1.
        -11    1    4    4    0    0 -0.28285135928E+02  0.11297452848E+02  0.12508733611E+02  0.32926429690E+02  0.51100000000E-03 0.  1.
        -12    1    4    4    0    0  0.10652171981E+02  0.54776876597E+01  0.21501529412E+01  0.12169510576E+02  0.00000000000E+00 0.  1.
</event>
<event>
 8    1  0.1262344E-006  0.9118800E+02  0.7816164E-02  0.1184000E+00
        -11   -1    0    0    0    0  0.00000000000E+00  0.00000000000E+00  0.45593999997E+02  0.45594000000E+02  0.51100000000E-03 0. -1.
         11   -1    0    0    0    0 -0.00000000000E+00 -0.00000000000E+00 -0.45593999997E+02  0.45594000000E+02  0.51100000000E-03 0.  1.
         23    2    1    2    0    0 -0.71054273576E-14  0.00000000000E+00  0.26645352591E-14  0.91188000000E+02  0.91188000000E+02 0.  0.
    9900012    2    3    3    0    0 -0.29510707760E+02 -0.20551972661E+02  0.79065203383E+01  0.54367102175E+02  0.40000041029E+02 0.  0.
        -12    1    3    3    0    0  0.29510707760E+02  0.20551972661E+02 -0.79065203383E+01  0.36820897825E+02  0.00000000000E+00 0.  1.
         11    1    4    4    0    0 -0.65606308211E+01 -0.65765282986E+01  0.37109769634E+01  0.10003197065E+02  0.51100000000E-03 0. -1.
        -11    1    4    4    0    0  0.75650935193E+01 -0.66414422040E+01 -0.55579302598E+01  0.11499129686E+02  0.51100000000E-03 0.  1.
         12    1    4    4    0    0 -0.30515170458E+02 -0.73340021584E+01  0.97534736347E+01  0.32864775424E+02  0.00000000000E+00 0. -1.
</event>
<event>
 8    1  0.1262344E-006  0.9118800E+02  0.7816164E-02  0.1184000E+00
        -11   -1    0    0    0    0  0.00000000000E+00  0.00000000000E+00  0.45593999997E+02  0.45594000000E+02  0.51100000000E-03 0.  1.
         11   -1    0    0    0    0 -0.00000000000E+00 -0.00000000000E+00 -0.45593999997E+02  0.45594000000E+02  0.51100000000E-03 0. -1.
         23    2    1    2    0    0  0.00000000000E+00  0.00000000000E+00 -0.35527136788E-14  0.91188000000E+02  0.91188000000E+02 0.  0.
    9900012    2    3    3    0    0 -0.22537556569E+02  0.13252581288E+02  0.25926961915E+02  0.54367085821E+02  0.40000003745E+02 0.  0.
         12    1    3    3    0    0  0.22537556569E+02 -0.13252581288E+02 -0.25926961915E+02  0.36820914179E+02  0.00000000000E+00 0. -1.
         11    1    4    4    0    0 -0.36374351108E+00 -0.85128271210E+01  0.60380944004E+01  0.10443137420E+02  0.51100000000E-03 0. -1.
        -11    1    4    4    0    0 -0.24737672232E+02  0.18612674584E+02  0.23196669729E+02  0.38684228949E+02  0.51100000000E-03 0.  1.
        -12    1    4    4    0    0  0.25638591743E+01  0.31527338244E+01 -0.33078022144E+01  0.52397194507E+01  0.00000000000E+00 0.  1.
</event>
<event>
 8    1  0.1262344E-006  0.9118800E+02  0.7816164E-02  0.1184000E+00
        -11   -1    0    0    0    0  0.00000000000E+00  0.00000000000E+00  0.45593999997E+02  0.45594000000E+02  0.51100000000E-03 0. -1.
         11   -1    0    0    0    0 -0.00000000000E+00 -0.00000000000E+00 -0.45593999997E+02  0.45594000000E+02  0.51100000000E-03 0.  1.
         23    2    1    2    0    0  0.00000000000E+00  0.00000000000E+00 -0.88817841970E-15  0.91188000000E+02  0.91188000000E+02 0.  0.
    9900012    2    3    3    0    0 -0.30516689556E+02 -0.20027476790E+02  0.48385431118E+01  0.54367086548E+02  0.40000005403E+02 0.  0.
        -12    1    3    3    0    0  0.30516689556E+02  0.20027476790E+02 -0.48385431118E+01  0.36820913452E+02  0.00000000000E+00 0.  1.
         11    1    4    4    0    0 -0.25641161525E+02 -0.22457811579E+02 -0.37610166440E+01  0.34292385623E+02  0.51100000000E-03 0. -1.
        -11    1    4    4    0    0  0.25389801238E+01 -0.58319936286E+01  0.59508623700E+00  0.63884816384E+01  0.51100000000E-03 0.  1.
        -12    1    4    4    0    0 -0.74145081543E+01  0.82623284173E+01  0.80044735188E+01  0.13686219287E+02  0.00000000000E+00 0.  1.
</event>
<event>
 8    1  0.1262344E-006  0.9118800E+02  0.7816164E-02  0.1184000E+00
        -11   -1    0    0    0    0  0.00000000000E+00  0.00000000000E+00  0.45593999997E+02  0.45594000000E+02  0.51100000000E-03 0. -1.
         11   -1    0    0    0    0 -0.00000000000E+00 -0.00000000000E+00 -0.45593999997E+02  0.45594000000E+02  0.51100000000E-03 0.  1.
         23    2    1    2    0    0  0.88817841970E-15  0.00000000000E+00  0.00000000000E+00  0.91188000000E+02  0.91188000000E+02 0.  0.
    9900012    2    3    3    0    0 -0.51353368773E+01 -0.47215745981E+01 -0.36154024489E+02  0.54367103239E+02  0.40000043455E+02 0.  0.
         12    1    3    3    0    0  0.51353368773E+01  0.47215745981E+01  0.36154024489E+02  0.36820896761E+02  0.00000000000E+00 0. -1.
         11    1    4    4    0    0 -0.13376610319E+02 -0.80844019214E+01 -0.26797334349E+02  0.31022385248E+02  0.51100000000E-03 0. -1.
        -11    1    4    4    0    0  0.13291905329E+02  0.28886526399E+00 -0.10947116473E+02  0.17222007715E+02  0.51100000000E-03 0.  1.
         12    1    4    4    0    0 -0.50506318870E+01  0.30739620593E+01  0.15904263329E+01  0.61227102758E+01  0.00000000000E+00 0. -1.
</event>
<event>
 8    1  0.1262344E-006  0.9118800E+02  0.7816164E-02  0.1184000E+00
        -11   -1    0    0    0    0  0.00000000000E+00  0.00000000000E+00  0.45593999997E+02  0.45594000000E+02  0.51100000000E-03 0. -1.
         11   -1    0    0    0    0 -0.00000000000E+00 -0.00000000000E+00 -0.45593999997E+02  0.45594000000E+02  0.51100000000E-03 0.  1.
         23    2    1    2    0    0  0.00000000000E+00  0.00000000000E+00  0.00000000000E+00  0.91188000000E+02  0.91188000000E+02 0.  0.
    9900012    2    3    3    0    0 -0.27014711976E+02 -0.21624765369E+02  0.12583895882E+02  0.54367087790E+02  0.40000008235E+02 0.  0.
         12    1    3    3    0    0  0.27014711976E+02  0.21624765369E+02 -0.12583895882E+02  0.36820912210E+02  0.00000000000E+00 0. -1.
         11    1    4    4    0    0 -0.14458274344E+02  0.26593891086E+01 -0.18420384195E+01  0.14815773798E+02  0.51100000000E-03 0. -1.
        -11    1    4    4    0    0 -0.14273083874E+02 -0.16867313006E+02 -0.12430739804E+01  0.22130802166E+02  0.51100000000E-03 0.  1.
         12    1    4    4    0    0  0.17166462421E+01 -0.74168414720E+01  0.15669008282E+02  0.17420511826E+02  0.00000000000E+00 0. -1.
</event>
<event>
 8    1  0.1262344E-006  0.9118800E+02  0.7816164E-02  0.1184000E+00
        -11   -1    0    0    0    0  0.00000000000E+00  0.00000000000E+00  0.45593999997E+02  0.45594000000E+02  0.51100000000E-03 0.  1.
         11   -1    0    0    0    0 -0.00000000000E+00 -0.00000000000E+00 -0.45593999997E+02  0.45594000000E+02  0.51100000000E-03 0. -1.
         23    2    1    2    0    0  0.00000000000E+00  0.00000000000E+00  0.88817841970E-15  0.91188000000E+02  0.91188000000E+02 0.  0.
    9900012    2    3    3    0    0  0.34783162282E+02  0.11181842005E+02  0.45692483611E+01  0.54367082038E+02  0.39999995122E+02 0.  0.
         12    1    3    3    0    0 -0.34783162282E+02 -0.11181842005E+02 -0.45692483611E+01  0.36820917962E+02  0.00000000000E+00 0. -1.
         11    1    4    4    0    0 -0.65651430168E+01  0.84475511664E+01 -0.27839129689E-01  0.10698738188E+02  0.51100000000E-03 0. -1.
        -11    1    4    4    0    0 -0.18755118270E-01  0.16427746773E+01 -0.97966818240E+00  0.19128017157E+01  0.51100000000E-03 0.  1.
        -12    1    4    4    0    0  0.41367060417E+02  0.10915161616E+01  0.55767556731E+01  0.41755542134E+02  0.00000000000E+00 0.  1.
</event>
<event>
 8    1  0.1262344E-006  0.9118800E+02  0.7816164E-02  0.1184000E+00
        -11   -1    0    0    0    0  0.00000000000E+00  0.00000000000E+00  0.45593999997E+02  0.45594000000E+02  0.51100000000E-03 0. -1.
         11   -1    0    0    0    0 -0.00000000000E+00 -0.00000000000E+00 -0.45593999997E+02  0.45594000000E+02  0.51100000000E-03 0.  1.
         23    2    1    2    0    0  0.71054273576E-14 -0.44408920985E-15  0.44408920985E-15  0.91188000000E+02  0.91188000000E+02 0.  0.
    9900012    2    3    3    0    0  0.36512063823E+02 -0.38352869532E+01 -0.28179532375E+01  0.54367067216E+02  0.39999961333E+02 0.  0.
        -12    1    3    3    0    0 -0.36512063823E+02  0.38352869532E+01  0.28179532375E+01  0.36820932784E+02  0.00000000000E+00 0.  1.
         11    1    4    4    0    0  0.24735372028E+02 -0.48933929337E+01 -0.20310813574E+01  0.25296426932E+02  0.51100000000E-03 0. -1.
        -11    1    4    4    0    0  0.11894675128E+02  0.93765942895E+01 -0.88023947209E+01  0.17518161147E+02  0.51100000000E-03 0.  1.
        -12    1    4    4    0    0 -0.11798333397E+00 -0.83184883089E+01  0.80155228408E+01  0.11552479138E+02  0.00000000000E+00 0.  1.
</event>
<event>
 8    1  0.1262344E-006  0.9118800E+02  0.7816164E-02  0.1184000E+00
        -11   -1    0    0    0    0  0.00000000000E+00  0.00000000000E+00  0.45593999997E+02  0.45594000000E+02  0.51100000000E-03 0.  1.
         11   -1    0    0    0    0 -0.00000000000E+00 -0.00000000000E+00 -0.45593999997E+02  0.45594000000E+02  0.51100000000E-03 0. -1.
         23    2    1    2    0    0  0.26645352591E-14 -0.26645352591E-14  0.00000000000E+00  0.91188000000E+02  0.91188000000E+02 0.  0.
    9900012    2    3    3    0    0 -0.33657616167E+01  0.73109463657E+01 -0.35930505586E+02  0.54367088555E+02  0.40000009978E+02 0.  0.
        -12    1    3    3    0    0  0.33657616167E+01 -0.73109463657E+01  0.35930505586E+02  0.36820911445E+02  0.00000000000E+00 0.  1.
         11    1    4    4    0    0  0.72421646230E+01 -0.69823293422E+01 -0.30873990774E+02  0.32471605720E+02  0.51100000000E-03 0. -1.
        -11    1    4    4    0    0 -0.35599578061E+01  0.13473166361E+02 -0.49827676159E+01  0.14799577182E+02  0.51100000000E-03 0.  1.
         12    1    4    4    0    0 -0.70479684337E+01  0.82010934661E+00 -0.73747195692E-01  0.70959056526E+01  0.00000000000E+00 0. -1.
</event>
<event>
 8    1  0.1262344E-006  0.9118800E+02  0.7816164E-02  0.1184000E+00
        -11   -1    0    0    0    0  0.00000000000E+00  0.00000000000E+00  0.45593999997E+02  0.45594000000E+02  0.51100000000E-03 0.  1.
         11   -1    0    0    0    0 -0.00000000000E+00 -0.00000000000E+00 -0.45593999997E+02  0.45594000000E+02  0.51100000000E-03 0. -1.
         23    2    1    2    0    0  0.00000000000E+00  0.00000000000E+00 -0.44408920985E-15  0.91188000000E+02  0.91188000000E+02 0.  0.
    9900012    2    3    3    0    0 -0.19743036409E+02  0.31064139654E+02  0.10066561894E+01  0.54367060091E+02  0.39999945090E+02 0.  0.
         12    1    3    3    0    0  0.19743036409E+02 -0.31064139654E+02 -0.10066561894E+01  0.36820939909E+02  0.00000000000E+00 0. -1.
         11    1    4    4    0    0  0.91457421174E+01  0.10226874287E+02 -0.34945828033E+01  0.14157883521E+02  0.51100000000E-03 0. -1.
        -11    1    4    4    0    0 -0.62431776995E+01  0.11719611871E+02  0.80682015450E+01  0.15537774828E+02  0.51100000000E-03 0.  1.
         12    1    4    4    0    0 -0.22645600827E+02  0.91176534960E+01 -0.35669625524E+01  0.24671401742E+02  0.00000000000E+00 0. -1.
</event>
<event>
 8    1  0.1262344E-006  0.9118800E+02  0.7816164E-02  0.1184000E+00
        -11   -1    0    0    0    0  0.00000000000E+00  0.00000000000E+00  0.45593999997E+02  0.45594000000E+02  0.51100000000E-03 0. -1.
         11   -1    0    0    0    0 -0.00000000000E+00 -0.00000000000E+00 -0.45593999997E+02  0.45594000000E+02  0.51100000000E-03 0.  1.
         23    2    1    2    0    0  0.00000000000E+00 -0.88817841970E-15  0.00000000000E+00  0.91188000000E+02  0.91188000000E+02 0.  0.
    9900012    2    3    3    0    0 -0.29930009734E+02  0.15453408219E+01 -0.21391265784E+02  0.54367084574E+02  0.40000000904E+02 0.  0.
         12    1    3    3    0    0  0.29930009734E+02 -0.15453408219E+01  0.21391265784E+02  0.36820915426E+02  0.00000000000E+00 0. -1.
         11    1    4    4    0    0 -0.16955864159E+02  0.75329652566E+01  0.61657025565E+01  0.19551541710E+02  0.51100000000E-03 0. -1.
        -11    1    4    4    0    0 -0.17816156636E+01  0.24968855157E+01 -0.16923818276E+02  0.17199541184E+02  0.51100000000E-03 0.  1.
         12    1    4    4    0    0 -0.11192529911E+02 -0.84845099503E+01 -0.10633150065E+02  0.17616001681E+02  0.00000000000E+00 0. -1.
</event>
<event>
 8    1  0.1262344E-006  0.9118800E+02  0.7816164E-02  0.1184000E+00
        -11   -1    0    0    0    0  0.00000000000E+00  0.00000000000E+00  0.45593999997E+02  0.45594000000E+02  0.51100000000E-03 0. -1.
         11   -1    0    0    0    0 -0.00000000000E+00 -0.00000000000E+00 -0.45593999997E+02  0.45594000000E+02  0.51100000000E-03 0.  1.
         23    2    1    2    0    0  0.00000000000E+00  0.17763568394E-14  0.71054273576E-14  0.91188000000E+02  0.91188000000E+02 0.  0.
    9900012    2    3    3    0    0  0.11163367105E+02  0.64254621006E+01  0.34494494569E+02  0.54367116199E+02  0.40000072999E+02 0.  0.
        -12    1    3    3    0    0 -0.11163367105E+02 -0.64254621006E+01 -0.34494494569E+02  0.36820883801E+02  0.00000000000E+00 0.  1.
         11    1    4    4    0    0 -0.46236925485E+01  0.10831013405E+02  0.14527718432E+02  0.18701443454E+02  0.51100000000E-03 0. -1.
        -11    1    4    4    0    0 -0.54138857763E+01 -0.50857519080E+01  0.15802822414E+01  0.75942296444E+01  0.51100000000E-03 0.  1.
         12    1    4    4    0    0  0.21200945429E+02  0.68020060371E+00  0.18386493895E+02  0.28071443100E+02  0.00000000000E+00 0. -1.
</event>
<event>
 8    1  0.1262344E-006  0.9118800E+02  0.7816164E-02  0.1184000E+00
        -11   -1    0    0    0    0  0.00000000000E+00  0.00000000000E+00  0.45593999997E+02  0.45594000000E+02  0.51100000000E-03 0.  1.
         11   -1    0    0    0    0 -0.00000000000E+00 -0.00000000000E+00 -0.45593999997E+02  0.45594000000E+02  0.51100000000E-03 0. -1.
         23    2    1    2    0    0  0.00000000000E+00  0.00000000000E+00  0.17763568394E-14  0.91188000000E+02  0.91188000000E+02 0.  0.
    9900012    2    3    3    0    0 -0.27950279025E+02  0.18787261245E+02 -0.14886258324E+02  0.54367082446E+02  0.39999996052E+02 0.  0.
        -12    1    3    3    0    0  0.27950279025E+02 -0.18787261245E+02  0.14886258324E+02  0.36820917554E+02  0.00000000000E+00 0.  1.
         11    1    4    4    0    0  0.15624443781E+01  0.78168011080E+01  0.45520776675E+01  0.91795982129E+01  0.51100000000E-03 0. -1.
        -11    1    4    4    0    0 -0.30321139941E+02  0.15657625882E+02 -0.11645143769E+02  0.36057483956E+02  0.51100000000E-03 0.  1.
         12    1    4    4    0    0  0.80841653858E+00 -0.46871657454E+01 -0.77931922229E+01  0.91300002764E+01  0.00000000000E+00 0. -1.
</event>
<event>
 8    1  0.1262344E-006  0.9118800E+02  0.7816164E-02  0.1184000E+00
        -11   -1    0    0    0    0  0.00000000000E+00  0.00000000000E+00  0.45593999997E+02  0.45594000000E+02  0.51100000000E-03 0.  1.
         11   -1    0    0    0    0 -0.00000000000E+00 -0.00000000000E+00 -0.45593999997E+02  0.45594000000E+02  0.51100000000E-03 0. -1.
         23    2    1    2    0    0  0.33306690739E-15 -0.17763568394E-14  0.00000000000E+00  0.91188000000E+02  0.91188000000E+02 0.  0.
    9900012    2    3    3    0    0  0.18608669242E+00  0.90805221932E+01  0.35683233525E+02  0.54367032246E+02  0.39999881610E+02 0.  0.
         12    1    3    3    0    0 -0.18608669242E+00 -0.90805221932E+01 -0.35683233525E+02  0.36820967754E+02  0.00000000000E+00 0. -1.
         11    1    4    4    0    0  0.15389822627E+02  0.11567726722E+02  0.24309579517E+02  0.31009911296E+02  0.51100000000E-03 0.  1.
        -11    1    4    4    0    0 -0.12705660094E+02 -0.70280873230E+01  0.10893960741E+02  0.18152305384E+02  0.51100000000E-03 0. -1.
        -12    1    4    4    0    0 -0.24980758403E+01  0.45408827939E+01  0.47969326694E+00  0.52048155666E+01  0.00000000000E+00 0.  1.
</event>
<event>
 8    1  0.1262344E-006  0.9118800E+02  0.7816164E-02  0.1184000E+00
        -11   -1    0    0    0    0  0.00000000000E+00  0.00000000000E+00  0.45593999997E+02  0.45594000000E+02  0.51100000000E-03 0.  1.
         11   -1    0    0    0    0 -0.00000000000E+00 -0.00000000000E+00 -0.45593999997E+02  0.45594000000E+02  0.51100000000E-03 0. -1.
         23    2    1    2    0    0  0.00000000000E+00  0.00000000000E+00  0.00000000000E+00  0.91188000000E+02  0.91188000000E+02 0.  0.
    9900012    2    3    3    0    0 -0.21449718966E+02 -0.25055850083E+02 -0.16367470913E+02  0.54367079707E+02  0.39999989808E+02 0.  0.
        -12    1    3    3    0    0  0.21449718966E+02  0.25055850083E+02  0.16367470913E+02  0.36820920293E+02  0.00000000000E+00 0.  1.
         11    1    4    4    0    0 -0.12540201060E+02 -0.31388730568E+02 -0.46505369195E+01  0.34119445236E+02  0.51100000000E-03 0. -1.
        -11    1    4    4    0    0 -0.65144751577E+01  0.21464470403E+01  0.73114105940E+00  0.68978394434E+01  0.51100000000E-03 0.  1.
         12    1    4    4    0    0 -0.23950427490E+01  0.41864334443E+01 -0.12448075053E+02  0.13349795028E+02  0.00000000000E+00 0. -1.
</event>
<event>
 8    1  0.1262344E-006  0.9118800E+02  0.7816164E-02  0.1184000E+00
        -11   -1    0    0    0    0  0.00000000000E+00  0.00000000000E+00  0.45593999997E+02  0.45594000000E+02  0.51100000000E-03 0.  1.
         11   -1    0    0    0    0 -0.00000000000E+00 -0.00000000000E+00 -0.45593999997E+02  0.45594000000E+02  0.51100000000E-03 0. -1.
         23    2    1    2    0    0  0.35527136788E-14  0.00000000000E+00  0.35527136788E-14  0.91188000000E+02  0.91188000000E+02 0.  0.
    9900012    2    3    3    0    0 -0.26348054239E+02  0.12514017482E+02 -0.22471303365E+02  0.54367081073E+02  0.39999992922E+02 0.  0.
        -12    1    3    3    0    0  0.26348054239E+02 -0.12514017482E+02  0.22471303365E+02  0.36820918927E+02  0.00000000000E+00 0.  1.
         11    1    4    4    0    0  0.30710877067E+01 -0.21756764828E+01  0.21690052351E+01  0.43439304589E+01  0.51100000000E-03 0. -1.
        -11    1    4    4    0    0 -0.17485005560E+01 -0.11008953985E+01 -0.17177849056E+02  0.17301668224E+02  0.51100000000E-03 0.  1.
         12    1    4    4    0    0 -0.27670641390E+02  0.15790589364E+02 -0.74624595441E+01  0.32721482390E+02  0.00000000000E+00 0. -1.
</event>
<event>
 8    1  0.1262344E-006  0.9118800E+02  0.7816164E-02  0.1184000E+00
        -11   -1    0    0    0    0  0.00000000000E+00  0.00000000000E+00  0.45593999997E+02  0.45594000000E+02  0.51100000000E-03 0. -1.
         11   -1    0    0    0    0 -0.00000000000E+00 -0.00000000000E+00 -0.45593999997E+02  0.45594000000E+02  0.51100000000E-03 0.  1.
         23    2    1    2    0    0  0.88817841970E-15  0.00000000000E+00 -0.11102230246E-15  0.91188000000E+02  0.91188000000E+02 0.  0.
    9900012    2    3    3    0    0  0.74825724260E+01 -0.36042468519E+02  0.85584271067E+00  0.54367069895E+02  0.39999967439E+02 0.  0.
        -12    1    3    3    0    0 -0.74825724260E+01  0.36042468519E+02 -0.85584271067E+00  0.36820930105E+02  0.00000000000E+00 0.  1.
         11    1    4    4    0    0 -0.45398187470E+01 -0.81065277501E+01 -0.16444385587E+01  0.94355670128E+01  0.51100000000E-03 0. -1.
        -11    1    4    4    0    0  0.17617381771E+02 -0.21358256352E+02 -0.10257767834E+02  0.29525735488E+02  0.51100000000E-03 0.  1.
         12    1    4    4    0    0 -0.55949905984E+01 -0.65776844170E+01  0.12758049103E+02  0.15405767394E+02  0.00000000000E+00 0. -1.
</event>
<event>
 8    1  0.1262344E-006  0.9118800E+02  0.7816164E-02  0.1184000E+00
        -11   -1    0    0    0    0  0.00000000000E+00  0.00000000000E+00  0.45593999997E+02  0.45594000000E+02  0.51100000000E-03 0. -1.
         11   -1    0    0    0    0 -0.00000000000E+00 -0.00000000000E+00 -0.45593999997E+02  0.45594000000E+02  0.51100000000E-03 0.  1.
         23    2    1    2    0    0  0.00000000000E+00  0.00000000000E+00 -0.26645352591E-14  0.91188000000E+02  0.91188000000E+02 0.  0.
    9900012    2    3    3    0    0 -0.14528376081E+02 -0.33824916203E+02  0.76115123338E+00  0.54367108934E+02  0.40000056438E+02 0.  0.
        -12    1    3    3    0    0  0.14528376081E+02  0.33824916203E+02 -0.76115123338E+00  0.36820891066E+02  0.00000000000E+00 0.  1.
         11    1    4    4    0    0 -0.99680259920E+01 -0.18431394341E+02 -0.13543118517E+02  0.24949827634E+02  0.51100000000E-03 0. -1.
        -11    1    4    4    0    0  0.61969782853E+01 -0.43336439686E+01 -0.10689052181E+01  0.76371178164E+01  0.51100000000E-03 0.  1.
         12    1    4    4    0    0 -0.10757328374E+02 -0.11059877893E+02  0.15373174969E+02  0.21780163484E+02  0.00000000000E+00 0. -1.
</event>
<event>
 8    1  0.1262344E-006  0.9118800E+02  0.7816164E-02  0.1184000E+00
        -11   -1    0    0    0    0  0.00000000000E+00  0.00000000000E+00  0.45593999997E+02  0.45594000000E+02  0.51100000000E-03 0. -1.
         11   -1    0    0    0    0 -0.00000000000E+00 -0.00000000000E+00 -0.45593999997E+02  0.45594000000E+02  0.51100000000E-03 0.  1.
         23    2    1    2    0    0  0.00000000000E+00 -0.35527136788E-14  0.00000000000E+00  0.91188000000E+02  0.91188000000E+02 0.  0.
    9900012    2    3    3    0    0  0.19304087647E+02  0.29460972293E+02 -0.10732376255E+02  0.54367074042E+02  0.39999976893E+02 0.  0.
         12    1    3    3    0    0 -0.19304087647E+02 -0.29460972293E+02  0.10732376255E+02  0.36820925958E+02  0.00000000000E+00 0. -1.
         11    1    4    4    0    0 -0.42360887165E+01  0.15965164401E+02  0.64114064548E+00  0.16530032775E+02  0.51100000000E-03 0. -1.
        -11    1    4    4    0    0 -0.42043813971E+01  0.20777016625E+01 -0.55652658764E+01  0.72777641942E+01  0.51100000000E-03 0.  1.
        -12    1    4    4    0    0  0.27744557761E+02  0.11418106230E+02 -0.58082510240E+01  0.30559277072E+02  0.00000000000E+00 0.  1.
</event>
<event>
 8    1  0.1262344E-006  0.9118800E+02  0.7816164E-02  0.1184000E+00
        -11   -1    0    0    0    0  0.00000000000E+00  0.00000000000E+00  0.45593999997E+02  0.45594000000E+02  0.51100000000E-03 0.  1.
         11   -1    0    0    0    0 -0.00000000000E+00 -0.00000000000E+00 -0.45593999997E+02  0.45594000000E+02  0.51100000000E-03 0. -1.
         23    2    1    2    0    0  0.00000000000E+00  0.88817841970E-15  0.00000000000E+00  0.91188000000E+02  0.91188000000E+02 0.  0.
    9900012    2    3    3    0    0  0.10112012753E+02 -0.36846229503E+01  0.35212931460E+02  0.54367084881E+02  0.40000001604E+02 0.  0.
         12    1    3    3    0    0 -0.10112012753E+02  0.36846229503E+01 -0.35212931460E+02  0.36820915119E+02  0.00000000000E+00 0. -1.
         11    1    4    4    0    0 -0.41607555307E+01  0.45861802619E+01 -0.18016029780E+01  0.64490859455E+01  0.51100000000E-03 0. -1.
        -11    1    4    4    0    0  0.12765734147E+02 -0.86557637149E+01  0.55147351299E+01  0.16379820439E+02  0.51100000000E-03 0.  1.
         12    1    4    4    0    0  0.15070341371E+01  0.38496050272E+00  0.31499799308E+02  0.31538178497E+02  0.00000000000E+00 0. -1.
</event>
<event>
 8    1  0.1262344E-006  0.9118800E+02  0.7816164E-02  0.1184000E+00
        -11   -1    0    0    0    0  0.00000000000E+00  0.00000000000E+00  0.45593999997E+02  0.45594000000E+02  0.51100000000E-03 0.  1.
         11   -1    0    0    0    0 -0.00000000000E+00 -0.00000000000E+00 -0.45593999997E+02  0.45594000000E+02  0.51100000000E-03 0. -1.
         23    2    1    2    0    0 -0.71054273576E-14  0.17763568394E-14  0.88817841970E-15  0.91188000000E+02  0.91188000000E+02 0.  0.
    9900012    2    3    3    0    0 -0.33247382455E+02 -0.14297184085E+02  0.67808825473E+01  0.54367105375E+02  0.40000048323E+02 0.  0.
        -12    1    3    3    0    0  0.33247382455E+02  0.14297184085E+02 -0.67808825473E+01  0.36820894625E+02  0.00000000000E+00 0.  1.
         11    1    4    4    0    0 -0.14642328820E+02 -0.21630319220E+02  0.13346254125E+02  0.29332422373E+02  0.51100000000E-03 0.  1.
        -11    1    4    4    0    0 -0.10931595878E+02 -0.28849227444E+01 -0.21055447890E+01  0.11500255945E+02  0.51100000000E-03 0. -1.
        -12    1    4    4    0    0 -0.76734577573E+01  0.10218057880E+02 -0.44598267883E+01  0.13534427057E+02  0.00000000000E+00 0.  1.
</event>
<event>
 8    1  0.1262344E-006  0.9118800E+02  0.7816164E-02  0.1184000E+00
        -11   -1    0    0    0    0  0.00000000000E+00  0.00000000000E+00  0.45593999997E+02  0.45594000000E+02  0.51100000000E-03 0. -1.
         11   -1    0    0    0    0 -0.00000000000E+00 -0.00000000000E+00 -0.45593999997E+02  0.45594000000E+02  0.51100000000E-03 0.  1.
         23    2    1    2    0    0  0.35527136788E-14  0.00000000000E+00  0.35527136788E-14  0.91188000000E+02  0.91188000000E+02 0.  0.
    9900012    2    3    3    0    0  0.25316435667E+02 -0.65616245343E+01  0.25919146757E+02  0.54367095612E+02  0.40000026066E+02 0.  0.
        -12    1    3    3    0    0 -0.25316435667E+02  0.65616245343E+01 -0.25919146757E+02  0.36820904388E+02  0.00000000000E+00 0.  1.
         11    1    4    4    0    0  0.19503702541E+02  0.50754715920E+00  0.12926001638E+01  0.19553077312E+02  0.51100000000E-03 0. -1.
        -11    1    4    4    0    0 -0.43920755384E+01  0.77359914816E+00 -0.22645037899E+01  0.50016758044E+01  0.51100000000E-03 0.  1.
         12    1    4    4    0    0  0.10204808664E+02 -0.78427708417E+01  0.26891050383E+02  0.29812342495E+02  0.00000000000E+00 0. -1.
</event>
<event>
 8    1  0.1262344E-006  0.9118800E+02  0.7816164E-02  0.1184000E+00
        -11   -1    0    0    0    0  0.00000000000E+00  0.00000000000E+00  0.45593999997E+02  0.45594000000E+02  0.51100000000E-03 0. -1.
         11   -1    0    0    0    0 -0.00000000000E+00 -0.00000000000E+00 -0.45593999997E+02  0.45594000000E+02  0.51100000000E-03 0.  1.
         23    2    1    2    0    0 -0.35527136788E-14 -0.35527136788E-14  0.00000000000E+00  0.91188000000E+02  0.91188000000E+02 0.  0.
    9900012    2    3    3    0    0  0.26819024274E+02 -0.16535524726E+02 -0.19055065405E+02  0.54367093459E+02  0.40000021158E+02 0.  0.
         12    1    3    3    0    0 -0.26819024274E+02  0.16535524726E+02  0.19055065405E+02  0.36820906541E+02  0.00000000000E+00 0. -1.
         11    1    4    4    0    0 -0.31818558830E+01 -0.33168667256E+01 -0.96081647240E+00  0.46956341734E+01  0.51100000000E-03 0. -1.
        -11    1    4    4    0    0  0.29895216666E+02 -0.15938624745E+02 -0.25094648563E+02  0.42160468748E+02  0.51100000000E-03 0.  1.
        -12    1    4    4    0    0  0.10566349039E+00  0.27199667450E+01  0.70003996304E+01  0.75109905374E+01  0.00000000000E+00 0.  1.
</event>
<event>
 8    1  0.1262344E-006  0.9118800E+02  0.7816164E-02  0.1184000E+00
        -11   -1    0    0    0    0  0.00000000000E+00  0.00000000000E+00  0.45593999997E+02  0.45594000000E+02  0.51100000000E-03 0.  1.
         11   -1    0    0    0    0 -0.00000000000E+00 -0.00000000000E+00 -0.45593999997E+02  0.45594000000E+02  0.51100000000E-03 0. -1.
         23    2    1    2    0    0  0.00000000000E+00  0.00000000000E+00  0.00000000000E+00  0.91188000000E+02  0.91188000000E+02 0.  0.
    9900012    2    3    3    0    0  0.20759064537E+02  0.22610963510E+02 -0.20336781774E+02  0.54367093924E+02  0.40000022219E+02 0.  0.
        -12    1    3    3    0    0 -0.20759064537E+02 -0.22610963510E+02  0.20336781774E+02  0.36820906076E+02  0.00000000000E+00 0.  1.
         11    1    4    4    0    0  0.15863245462E+02  0.26839750809E+01 -0.22751203503E+02  0.27865095369E+02  0.51100000000E-03 0. -1.
        -11    1    4    4    0    0 -0.31628993462E+01 -0.10045046954E+01  0.23609243681E+01  0.40727050090E+01  0.51100000000E-03 0.  1.
         12    1    4    4    0    0  0.80587184212E+01  0.20931493125E+02  0.53497360306E-01  0.22429293546E+02  0.00000000000E+00 0. -1.
</event>
<event>
 8    1  0.1262344E-006  0.9118800E+02  0.7816164E-02  0.1184000E+00
        -11   -1    0    0    0    0  0.00000000000E+00  0.00000000000E+00  0.45593999997E+02  0.45594000000E+02  0.51100000000E-03 0.  1.
         11   -1    0    0    0    0 -0.00000000000E+00 -0.00000000000E+00 -0.45593999997E+02  0.45594000000E+02  0.51100000000E-03 0. -1.
         23    2    1    2    0    0 -0.17763568394E-14  0.00000000000E+00  0.00000000000E+00  0.91188000000E+02  0.91188000000E+02 0.  0.
    9900012    2    3    3    0    0  0.13251960104E+02  0.19169649468E+02 -0.28507687540E+02  0.54367107069E+02  0.40000052186E+02 0.  0.
        -12    1    3    3    0    0 -0.13251960104E+02 -0.19169649468E+02  0.28507687540E+02  0.36820892931E+02  0.00000000000E+00 0.  1.
         11    1    4    4    0    0 -0.49177249582E+01  0.79709406774E+01 -0.23611256686E+02  0.25401010937E+02  0.51100000000E-03 0. -1.
        -11    1    4    4    0    0  0.19535392700E+02  0.12372675655E+02 -0.87408281535E+01  0.24720775633E+02  0.51100000000E-03 0.  1.
        -12    1    4    4    0    0 -0.13657076384E+01 -0.11739668646E+01  0.38443972990E+01  0.42453204997E+01  0.00000000000E+00 0.  1.
</event>
<event>
 8    1  0.1262344E-006  0.9118800E+02  0.7816164E-02  0.1184000E+00
        -11   -1    0    0    0    0  0.00000000000E+00  0.00000000000E+00  0.45593999997E+02  0.45594000000E+02  0.51100000000E-03 0.  1.
         11   -1    0    0    0    0 -0.00000000000E+00 -0.00000000000E+00 -0.45593999997E+02  0.45594000000E+02  0.51100000000E-03 0. -1.
         23    2    1    2    0    0 -0.35527136788E-14  0.00000000000E+00  0.00000000000E+00  0.91188000000E+02  0.91188000000E+02 0.  0.
    9900012    2    3    3    0    0 -0.16648769376E+02 -0.16205747745E+02  0.28565214753E+02  0.54367091869E+02  0.40000017534E+02 0.  0.
         12    1    3    3    0    0  0.16648769376E+02  0.16205747745E+02 -0.28565214753E+02  0.36820908131E+02  0.00000000000E+00 0. -1.
         11    1    4    4    0    0  0.17431590738E+01 -0.15934352891E+01  0.12161778533E+02  0.12388966742E+02  0.51100000000E-03 0. -1.
        -11    1    4    4    0    0  0.48264905410E+01 -0.35432854390E+00  0.13780322699E+02  0.14605404945E+02  0.51100000000E-03 0.  1.
        -12    1    4    4    0    0 -0.23218418990E+02 -0.14257983912E+02  0.26231135207E+01  0.27372720182E+02  0.00000000000E+00 0.  1.
</event>
<event>
 8    1  0.1262344E-006  0.9118800E+02  0.7816164E-02  0.1184000E+00
        -11   -1    0    0    0    0  0.00000000000E+00  0.00000000000E+00  0.45593999997E+02  0.45594000000E+02  0.51100000000E-03 0.  1.
         11   -1    0    0    0    0 -0.00000000000E+00 -0.00000000000E+00 -0.45593999997E+02  0.45594000000E+02  0.51100000000E-03 0. -1.
         23    2    1    2    0    0  0.71054273576E-14  0.71054273576E-14 -0.24424906542E-14  0.91188000000E+02  0.91188000000E+02 0.  0.
    9900012    2    3    3    0    0 -0.29552503157E+02 -0.21926165533E+02  0.12932719675E+01  0.54367085696E+02  0.40000003461E+02 0.  0.
        -12    1    3    3    0    0  0.29552503157E+02  0.21926165533E+02 -0.12932719675E+01  0.36820914304E+02  0.00000000000E+00 0.  1.
         11    1    4    4    0    0 -0.73137331104E+01 -0.22066333428E+01 -0.44146337743E+01  0.88232031792E+01  0.51100000000E-03 0.  1.
        -11    1    4    4    0    0 -0.55456656456E+01 -0.44907343893E+01 -0.13901209082E+02  0.15625770926E+02  0.51100000000E-03 0. -1.
         12    1    4    4    0    0 -0.16693104401E+02 -0.15228797801E+02  0.19609114824E+02  0.29918111591E+02  0.00000000000E+00 0. -1.
</event>
<event>
 8    1  0.1262344E-006  0.9118800E+02  0.7816164E-02  0.1184000E+00
        -11   -1    0    0    0    0  0.00000000000E+00  0.00000000000E+00  0.45593999997E+02  0.45594000000E+02  0.51100000000E-03 0.  1.
         11   -1    0    0    0    0 -0.00000000000E+00 -0.00000000000E+00 -0.45593999997E+02  0.45594000000E+02  0.51100000000E-03 0. -1.
         23    2    1    2    0    0  0.00000000000E+00  0.00000000000E+00  0.00000000000E+00  0.91188000000E+02  0.91188000000E+02 0.  0.
    9900012    2    3    3    0    0 -0.50433702711E+01 -0.95952689534E+01  0.35189136619E+02  0.54367080593E+02  0.39999991828E+02 0.  0.
         12    1    3    3    0    0  0.50433702711E+01  0.95952689534E+01 -0.35189136619E+02  0.36820919407E+02  0.00000000000E+00 0. -1.
         11    1    4    4    0    0  0.12315598253E+01 -0.43850962571E+01  0.11804294323E+02  0.12652556007E+02  0.51100000000E-03 0. -1.
        -11    1    4    4    0    0  0.35416315282E+01 -0.17823366498E+02  0.15538365638E+02  0.23909336130E+02  0.51100000000E-03 0.  1.
         12    1    4    4    0    0 -0.98165616246E+01  0.12613193802E+02  0.78464766580E+01  0.17805188456E+02  0.00000000000E+00 0. -1.
</event>
<event>
 8    1  0.1262344E-006  0.9118800E+02  0.7816164E-02  0.1184000E+00
        -11   -1    0    0    0    0  0.00000000000E+00  0.00000000000E+00  0.45593999997E+02  0.45594000000E+02  0.51100000000E-03 0.  1.
         11   -1    0    0    0    0 -0.00000000000E+00 -0.00000000000E+00 -0.45593999997E+02  0.45594000000E+02  0.51100000000E-03 0. -1.
         23    2    1    2    0    0  0.00000000000E+00 -0.11934897515E-14  0.35527136788E-14  0.91188000000E+02  0.91188000000E+02 0.  0.
    9900012    2    3    3    0    0 -0.22534616382E+02  0.15718314315E+00 -0.29119369742E+02  0.54367199680E+02  0.40000263310E+02 0.  0.
        -12    1    3    3    0    0  0.22534616382E+02 -0.15718314315E+00  0.29119369742E+02  0.36820800320E+02  0.00000000000E+00 0.  1.
         11    1    4    4    0    0  0.35468377311E+01  0.57084948728E+01 -0.89960070331E+00  0.67805791265E+01  0.51100000000E-03 0.  1.
        -11    1    4    4    0    0 -0.24647655013E+02  0.61310020175E+01 -0.24379720930E+02  0.35206063061E+02  0.51100000000E-03 0. -1.
        -12    1    4    4    0    0 -0.14337990996E+01 -0.11682313747E+02 -0.38400481088E+01  0.12380557492E+02  0.00000000000E+00 0.  1.
</event>
<event>
 8    1  0.1262344E-006  0.9118800E+02  0.7816164E-02  0.1184000E+00
        -11   -1    0    0    0    0  0.00000000000E+00  0.00000000000E+00  0.45593999997E+02  0.45594000000E+02  0.51100000000E-03 0. -1.
         11   -1    0    0    0    0 -0.00000000000E+00 -0.00000000000E+00 -0.45593999997E+02  0.45594000000E+02  0.51100000000E-03 0.  1.
         23    2    1    2    0    0 -0.33306690739E-15  0.00000000000E+00 -0.44408920985E-15  0.91188000000E+02  0.91188000000E+02 0.  0.
    9900012    2    3    3    0    0  0.91056082169E+00  0.36720677327E+02 -0.25579881306E+01  0.54367074324E+02  0.39999977536E+02 0.  0.
        -12    1    3    3    0    0 -0.91056082169E+00 -0.36720677327E+02  0.25579881306E+01  0.36820925676E+02  0.00000000000E+00 0.  1.
         11    1    4    4    0    0 -0.12820385128E+02  0.24658762393E+02 -0.15710863334E+01  0.27836758973E+02  0.51100000000E-03 0. -1.
        -11    1    4    4    0    0  0.21727065758E+01  0.74646561682E+01 -0.88769279543E+01  0.11800067616E+02  0.51100000000E-03 0.  1.
         12    1    4    4    0    0  0.11558239374E+02  0.45972587655E+01  0.78900261571E+01  0.14730247735E+02  0.00000000000E+00 0. -1.
</event>
<event>
 8    1  0.1262344E-006  0.9118800E+02  0.7816164E-02  0.1184000E+00
        -11   -1    0    0    0    0  0.00000000000E+00  0.00000000000E+00  0.45593999997E+02  0.45594000000E+02  0.51100000000E-03 0. -1.
         11   -1    0    0    0    0 -0.00000000000E+00 -0.00000000000E+00 -0.45593999997E+02  0.45594000000E+02  0.51100000000E-03 0.  1.
         23    2    1    2    0    0  0.71054273576E-14 -0.88817841970E-15  0.00000000000E+00  0.91188000000E+02  0.91188000000E+02 0.  0.
    9900012    2    3    3    0    0  0.25126753290E+02 -0.25640607429E+01  0.26792735425E+02  0.54367098192E+02  0.40000031948E+02 0.  0.
        -12    1    3    3    0    0 -0.25126753290E+02  0.25640607429E+01 -0.26792735425E+02  0.36820901808E+02  0.00000000000E+00 0.  1.
         11    1    4    4    0    0  0.18468124774E+02  0.99773840885E+01  0.27695448298E+02  0.34751369507E+02  0.51100000000E-03 0. -1.
        -11    1    4    4    0    0 -0.35668902996E+01 -0.24037400034E+01  0.22813154932E+01  0.48687855831E+01  0.51100000000E-03 0.  1.
        -12    1    4    4    0    0  0.10225518815E+02 -0.10137704828E+02 -0.31840283655E+01  0.14746943102E+02  0.00000000000E+00 0.  1.
</event>
<event>
 8    1  0.1262344E-006  0.9118800E+02  0.7816164E-02  0.1184000E+00
        -11   -1    0    0    0    0  0.00000000000E+00  0.00000000000E+00  0.45593999997E+02  0.45594000000E+02  0.51100000000E-03 0. -1.
         11   -1    0    0    0    0 -0.00000000000E+00 -0.00000000000E+00 -0.45593999997E+02  0.45594000000E+02  0.51100000000E-03 0.  1.
         23    2    1    2    0    0  0.00000000000E+00  0.31086244690E-14  0.00000000000E+00  0.91188000000E+02  0.91188000000E+02 0.  0.
    9900012    2    3    3    0    0  0.36608054891E+02 -0.16202496005E+01 -0.36059171546E+01  0.54367115570E+02  0.40000071565E+02 0.  0.
         12    1    3    3    0    0 -0.36608054891E+02  0.16202496005E+01  0.36059171546E+01  0.36820884430E+02  0.00000000000E+00 0. -1.
         11    1    4    4    0    0  0.27509476066E+02  0.11069372737E+02 -0.34978430609E+01  0.29858620071E+02  0.51100000000E-03 0. -1.
        -11    1    4    4    0    0  0.11268220120E+02 -0.12800694726E+02 -0.61180028862E+01  0.18117961522E+02  0.51100000000E-03 0.  1.
         12    1    4    4    0    0 -0.21696412950E+01  0.11107238827E+00  0.60099287925E+01  0.63905339773E+01  0.00000000000E+00 0. -1.
</event>
<event>
 8    1  0.1262344E-006  0.9118800E+02  0.7816164E-02  0.1184000E+00
        -11   -1    0    0    0    0  0.00000000000E+00  0.00000000000E+00  0.45593999997E+02  0.45594000000E+02  0.51100000000E-03 0.  1.
         11   -1    0    0    0    0 -0.00000000000E+00 -0.00000000000E+00 -0.45593999997E+02  0.45594000000E+02  0.51100000000E-03 0. -1.
         23    2    1    2    0    0  0.35527136788E-14 -0.17763568394E-14  0.00000000000E+00  0.91188000000E+02  0.91188000000E+02 0.  0.
    9900012    2    3    3    0    0 -0.28260649752E+02  0.51062716819E+01  0.23044332239E+02  0.54367087692E+02  0.40000008012E+02 0.  0.
         12    1    3    3    0    0  0.28260649752E+02 -0.51062716819E+01 -0.23044332239E+02  0.36820912308E+02  0.00000000000E+00 0. -1.
         11    1    4    4    0    0 -0.13433579807E+02  0.21560668692E+00  0.30351976348E+02  0.33192619981E+02  0.51100000000E-03 0.  1.
        -11    1    4    4    0    0  0.13758385337E+01  0.85732399667E+00 -0.37737910453E+01  0.41072418021E+01  0.51100000000E-03 0. -1.
         12    1    4    4    0    0 -0.16202908478E+02  0.40333409983E+01 -0.35338530647E+01  0.17067225909E+02  0.00000000000E+00 0. -1.
</event>
<event>
 8    1  0.1262344E-006  0.9118800E+02  0.7816164E-02  0.1184000E+00
        -11   -1    0    0    0    0  0.00000000000E+00  0.00000000000E+00  0.45593999997E+02  0.45594000000E+02  0.51100000000E-03 0. -1.
         11   -1    0    0    0    0 -0.00000000000E+00 -0.00000000000E+00 -0.45593999997E+02  0.45594000000E+02  0.51100000000E-03 0.  1.
         23    2    1    2    0    0  0.00000000000E+00  0.00000000000E+00  0.13322676296E-14  0.91188000000E+02  0.91188000000E+02 0.  0.
    9900012    2    3    3    0    0 -0.14887116937E+02 -0.33530327393E+02 -0.31418278621E+01  0.54367079477E+02  0.39999989285E+02 0.  0.
        -12    1    3    3    0    0  0.14887116937E+02  0.33530327393E+02  0.31418278621E+01  0.36820920523E+02  0.00000000000E+00 0.  1.
         11    1    4    4    0    0  0.15230200022E+01 -0.21716986737E+02  0.11770071957E+02  0.24748367562E+02  0.51100000000E-03 0. -1.
        -11    1    4    4    0    0 -0.25290917511E+01  0.27400607630E+01 -0.71445909530E+01  0.80591201888E+01  0.51100000000E-03 0.  1.
         12    1    4    4    0    0 -0.13881045188E+02 -0.14553401420E+02 -0.77673088658E+01  0.21559591727E+02  0.00000000000E+00 0. -1.
</event>
<event>
 8    1  0.1262344E-006  0.9118800E+02  0.7816164E-02  0.1184000E+00
        -11   -1    0    0    0    0  0.00000000000E+00  0.00000000000E+00  0.45593999997E+02  0.45594000000E+02  0.51100000000E-03 0. -1.
         11   -1    0    0    0    0 -0.00000000000E+00 -0.00000000000E+00 -0.45593999997E+02  0.45594000000E+02  0.51100000000E-03 0.  1.
         23    2    1    2    0    0  0.00000000000E+00  0.00000000000E+00  0.00000000000E+00  0.91188000000E+02  0.91188000000E+02 0.  0.
    9900012    2    3    3    0    0 -0.12210592306E+02 -0.44896398897E+01 -0.34445934203E+02  0.54367111717E+02  0.40000062782E+02 0.  0.
         12    1    3    3    0    0  0.12210592306E+02  0.44896398897E+01  0.34445934203E+02  0.36820888283E+02  0.00000000000E+00 0. -1.
         11    1    4    4    0    0 -0.13761128463E+02  0.81741684212E+00 -0.27908446370E+02  0.31127451003E+02  0.51100000000E-03 0. -1.
        -11    1    4    4    0    0  0.55894111105E+01  0.70926977558E+01 -0.43238334254E+01  0.10012163291E+02  0.51100000000E-03 0.  1.
         12    1    4    4    0    0 -0.40388749542E+01 -0.12399754488E+02 -0.22136544071E+01  0.13227497423E+02  0.00000000000E+00 0. -1.
</event>
<event>
 8    1  0.1262344E-006  0.9118800E+02  0.7816164E-02  0.1184000E+00
        -11   -1    0    0    0    0  0.00000000000E+00  0.00000000000E+00  0.45593999997E+02  0.45594000000E+02  0.51100000000E-03 0.  1.
         11   -1    0    0    0    0 -0.00000000000E+00 -0.00000000000E+00 -0.45593999997E+02  0.45594000000E+02  0.51100000000E-03 0. -1.
         23    2    1    2    0    0  0.35527136788E-14  0.00000000000E+00 -0.55511151231E-15  0.91188000000E+02  0.91188000000E+02 0.  0.
    9900012    2    3    3    0    0 -0.21200517125E+02 -0.30090907186E+02  0.92433735833E+00  0.54367095323E+02  0.40000025408E+02 0.  0.
        -12    1    3    3    0    0  0.21200517125E+02  0.30090907186E+02 -0.92433735833E+00  0.36820904677E+02  0.00000000000E+00 0.  1.
         11    1    4    4    0    0 -0.15298081920E+02 -0.31658823800E+02 -0.12332859454E+01  0.35182857037E+02  0.51100000000E-03 0. -1.
        -11    1    4    4    0    0 -0.12269740760E+00  0.51419908305E+01 -0.64293984805E+01  0.82336073162E+01  0.51100000000E-03 0.  1.
        -12    1    4    4    0    0 -0.57797377973E+01 -0.35740742173E+01  0.85870217842E+01  0.10950630970E+02  0.00000000000E+00 0.  1.
</event>
<event>
 8    1  0.1262344E-006  0.9118800E+02  0.7816164E-02  0.1184000E+00
        -11   -1    0    0    0    0  0.00000000000E+00  0.00000000000E+00  0.45593999997E+02  0.45594000000E+02  0.51100000000E-03 0. -1.
         11   -1    0    0    0    0 -0.00000000000E+00 -0.00000000000E+00 -0.45593999997E+02  0.45594000000E+02  0.51100000000E-03 0.  1.
         23    2    1    2    0    0  0.71054273576E-14  0.00000000000E+00 -0.69388939039E-15  0.91188000000E+02  0.91188000000E+02 0.  0.
    9900012    2    3    3    0    0  0.33022583690E+02  0.16286706459E+02 -0.18220960312E+00  0.54367067893E+02  0.39999962877E+02 0.  0.
        -12    1    3    3    0    0 -0.33022583690E+02 -0.16286706459E+02  0.18220960312E+00  0.36820932107E+02  0.00000000000E+00 0.  1.
         11    1    4    4    0    0  0.94827521011E+01 -0.44477036268E+01  0.12076056435E+02  0.15985486988E+02  0.51100000000E-03 0. -1.
        -11    1    4    4    0    0  0.46833790673E+00  0.95072208194E+01  0.87251790664E+00  0.95586545006E+01  0.51100000000E-03 0.  1.
        -12    1    4    4    0    0  0.23071493682E+02  0.11227189266E+02 -0.13130783944E+02  0.28822926405E+02  0.00000000000E+00 0.  1.
</event>
<event>
 8    1  0.1262344E-006  0.9118800E+02  0.7816164E-02  0.1184000E+00
        -11   -1    0    0    0    0  0.00000000000E+00  0.00000000000E+00  0.45593999997E+02  0.45594000000E+02  0.51100000000E-03 0.  1.
         11   -1    0    0    0    0 -0.00000000000E+00 -0.00000000000E+00 -0.45593999997E+02  0.45594000000E+02  0.51100000000E-03 0. -1.
         23    2    1    2    0    0  0.00000000000E+00  0.00000000000E+00  0.00000000000E+00  0.91188000000E+02  0.91188000000E+02 0.  0.
    9900012    2    3    3    0    0  0.33156004774E+02 -0.10031530286E+02  0.12483077951E+02  0.54367088990E+02  0.40000010972E+02 0.  0.
        -12    1    3    3    0    0 -0.33156004774E+02  0.10031530286E+02 -0.12483077951E+02  0.36820911010E+02  0.00000000000E+00 0.  1.
         11    1    4    4    0    0  0.25946807995E+02 -0.21047559231E+01 -0.96728270650E+01  0.27771035745E+02  0.51100000000E-03 0. -1.
        -11    1    4    4    0    0  0.73129531909E+01 -0.83461863036E+01  0.23061651259E+02  0.25592535420E+02  0.51100000000E-03 0.  1.
         12    1    4    4    0    0 -0.10375641227E+00  0.41941194038E+00 -0.90574624334E+00  0.10035178255E+01  0.00000000000E+00 0. -1.
</event>
<event>
 8    1  0.1262344E-006  0.9118800E+02  0.7816164E-02  0.1184000E+00
        -11   -1    0    0    0    0  0.00000000000E+00  0.00000000000E+00  0.45593999997E+02  0.45594000000E+02  0.51100000000E-03 0.  1.
         11   -1    0    0    0    0 -0.00000000000E+00 -0.00000000000E+00 -0.45593999997E+02  0.45594000000E+02  0.51100000000E-03 0. -1.
         23    2    1    2    0    0  0.00000000000E+00 -0.17763568394E-14  0.00000000000E+00  0.91188000000E+02  0.91188000000E+02 0.  0.
    9900012    2    3    3    0    0 -0.33885171703E+02  0.11822571410E+02 -0.82341532628E+01  0.54367091048E+02  0.40000015661E+02 0.  0.
         12    1    3    3    0    0  0.33885171703E+02 -0.11822571410E+02  0.82341532628E+01  0.36820908952E+02  0.00000000000E+00 0. -1.
         11    1    4    4    0    0 -0.79395296829E+01  0.20906121351E+00 -0.18513533004E+00  0.79444391576E+01  0.51100000000E-03 0. -1.
        -11    1    4    4    0    0 -0.16695359319E+02  0.88149391120E+01  0.13228754865E+02  0.23052941892E+02  0.51100000000E-03 0.  1.
         12    1    4    4    0    0 -0.92502827012E+01  0.27985710849E+01 -0.21277772797E+02  0.23369709998E+02  0.00000000000E+00 0. -1.
</event>
<event>
 8    1  0.1262344E-006  0.9118800E+02  0.7816164E-02  0.1184000E+00
        -11   -1    0    0    0    0  0.00000000000E+00  0.00000000000E+00  0.45593999997E+02  0.45594000000E+02  0.51100000000E-03 0.  1.
         11   -1    0    0    0    0 -0.00000000000E+00 -0.00000000000E+00 -0.45593999997E+02  0.45594000000E+02  0.51100000000E-03 0. -1.
         23    2    1    2    0    0 -0.71054273576E-14  0.44408920985E-15 -0.17763568394E-14  0.91188000000E+02  0.91188000000E+02 0.  0.
    9900012    2    3    3    0    0  0.35200070818E+02  0.37392301019E+01  0.10136676047E+02  0.54367095222E+02  0.40000025178E+02 0.  0.
        -12    1    3    3    0    0 -0.35200070818E+02 -0.37392301019E+01 -0.10136676047E+02  0.36820904778E+02  0.00000000000E+00 0.  1.
         11    1    4    4    0    0  0.34044859529E+02  0.52854954123E+01  0.87638463966E+01  0.35549879409E+02  0.51100000000E-03 0. -1.
        -11    1    4    4    0    0 -0.15775336462E+00 -0.82438457723E+01  0.63190735841E+01  0.10388290065E+02  0.51100000000E-03 0.  1.
         12    1    4    4    0    0  0.13129646540E+01  0.66975804619E+01 -0.49462439333E+01  0.84289257485E+01  0.00000000000E+00 0. -1.
</event>
<event>
 8    1  0.1262344E-006  0.9118800E+02  0.7816164E-02  0.1184000E+00
        -11   -1    0    0    0    0  0.00000000000E+00  0.00000000000E+00  0.45593999997E+02  0.45594000000E+02  0.51100000000E-03 0.  1.
         11   -1    0    0    0    0 -0.00000000000E+00 -0.00000000000E+00 -0.45593999997E+02  0.45594000000E+02  0.51100000000E-03 0. -1.
         23    2    1    2    0    0  0.35527136788E-14  0.00000000000E+00  0.00000000000E+00  0.91188000000E+02  0.91188000000E+02 0.  0.
    9900012    2    3    3    0    0  0.20478109589E+02  0.10018108239E+02 -0.28914777755E+02  0.54367084237E+02  0.40000000134E+02 0.  0.
        -12    1    3    3    0    0 -0.20478109589E+02 -0.10018108239E+02  0.28914777755E+02  0.36820915763E+02  0.00000000000E+00 0.  1.
         11    1    4    4    0    0  0.11309096712E+02 -0.62211545843E+01 -0.23079139068E+02  0.26443242864E+02  0.51100000000E-03 0. -1.
        -11    1    4    4    0    0  0.11212353988E+02  0.67522587752E+01 -0.10849465859E+02  0.17000611466E+02  0.51100000000E-03 0.  1.
        -12    1    4    4    0    0 -0.20433411111E+01  0.94870040477E+01  0.50138271712E+01  0.10923229907E+02  0.00000000000E+00 0.  1.
</event>
<event>
 8    1  0.1262344E-006  0.9118800E+02  0.7816164E-02  0.1184000E+00
        -11   -1    0    0    0    0  0.00000000000E+00  0.00000000000E+00  0.45593999997E+02  0.45594000000E+02  0.51100000000E-03 0. -1.
         11   -1    0    0    0    0 -0.00000000000E+00 -0.00000000000E+00 -0.45593999997E+02  0.45594000000E+02  0.51100000000E-03 0.  1.
         23    2    1    2    0    0  0.66613381478E-15  0.71054273576E-14  0.00000000000E+00  0.91188000000E+02  0.91188000000E+02 0.  0.
    9900012    2    3    3    0    0 -0.13196342765E+01  0.32880941408E+02  0.16519117243E+02  0.54367095924E+02  0.40000026778E+02 0.  0.
        -12    1    3    3    0    0  0.13196342765E+01 -0.32880941408E+02 -0.16519117243E+02  0.36820904076E+02  0.00000000000E+00 0.  1.
         11    1    4    4    0    0 -0.18263559277E+02  0.96043936282E+01  0.88047383434E+01  0.22434914575E+02  0.51100000000E-03 0. -1.
        -11    1    4    4    0    0  0.12836827739E+02  0.80787268643E+01  0.26688547728E+01  0.15400414287E+02  0.51100000000E-03 0.  1.
         12    1    4    4    0    0  0.41070972614E+01  0.15197820915E+02  0.50455241267E+01  0.16531767062E+02  0.00000000000E+00 0. -1.
</event>
<event>
 8    1  0.1262344E-006  0.9118800E+02  0.7816164E-02  0.1184000E+00
        -11   -1    0    0    0    0  0.00000000000E+00  0.00000000000E+00  0.45593999997E+02  0.45594000000E+02  0.51100000000E-03 0. -1.
         11   -1    0    0    0    0 -0.00000000000E+00 -0.00000000000E+00 -0.45593999997E+02  0.45594000000E+02  0.51100000000E-03 0.  1.
         23    2    1    2    0    0  0.35527136788E-14  0.00000000000E+00  0.35527136788E-14  0.91188000000E+02  0.91188000000E+02 0.  0.
    9900012    2    3    3    0    0 -0.24617495143E+02 -0.16482662182E+02  0.21865074447E+02  0.54367072522E+02  0.39999973429E+02 0.  0.
        -12    1    3    3    0    0  0.24617495143E+02  0.16482662182E+02 -0.21865074447E+02  0.36820927478E+02  0.00000000000E+00 0.  1.
         11    1    4    4    0    0 -0.13249441803E+01 -0.12626375831E+02  0.21567526418E+02  0.25026766467E+02  0.51100000000E-03 0. -1.
        -11    1    4    4    0    0 -0.14197222843E+02 -0.10769703235E+02  0.13285951622E+01  0.17869325941E+02  0.51100000000E-03 0.  1.
        -12    1    4    4    0    0 -0.90953281200E+01  0.69134168832E+01 -0.10310471333E+01  0.11470980115E+02  0.00000000000E+00 0.  1.
</event>
<event>
 8    1  0.1262344E-006  0.9118800E+02  0.7816164E-02  0.1184000E+00
        -11   -1    0    0    0    0  0.00000000000E+00  0.00000000000E+00  0.45593999997E+02  0.45594000000E+02  0.51100000000E-03 0.  1.
         11   -1    0    0    0    0 -0.00000000000E+00 -0.00000000000E+00 -0.45593999997E+02  0.45594000000E+02  0.51100000000E-03 0. -1.
         23    2    1    2    0    0  0.00000000000E+00  0.17763568394E-14  0.00000000000E+00  0.91188000000E+02  0.91188000000E+02 0.  0.
    9900012    2    3    3    0    0 -0.16753647714E+02 -0.14564495172E+02 -0.29376334878E+02  0.54367105359E+02  0.40000048287E+02 0.  0.
        -12    1    3    3    0    0  0.16753647714E+02  0.14564495172E+02  0.29376334878E+02  0.36820894641E+02  0.00000000000E+00 0.  1.
         11    1    4    4    0    0 -0.12192254453E+02  0.56189870850E+01 -0.12678187208E+02  0.18465116183E+02  0.51100000000E-03 0. -1.
        -11    1    4    4    0    0 -0.54176325131E+01  0.43842109850E+01 -0.19594573863E+01  0.72395802031E+01  0.51100000000E-03 0.  1.
        -12    1    4    4    0    0  0.85623925214E+00 -0.24567693242E+02 -0.14738690283E+02  0.28662408973E+02  0.00000000000E+00 0.  1.
</event>
<event>
 8    1  0.1262344E-006  0.9118800E+02  0.7816164E-02  0.1184000E+00
        -11   -1    0    0    0    0  0.00000000000E+00  0.00000000000E+00  0.45593999997E+02  0.45594000000E+02  0.51100000000E-03 0.  1.
         11   -1    0    0    0    0 -0.00000000000E+00 -0.00000000000E+00 -0.45593999997E+02  0.45594000000E+02  0.51100000000E-03 0. -1.
         23    2    1    2    0    0  0.00000000000E+00 -0.66613381478E-15 -0.17763568394E-14  0.91188000000E+02  0.91188000000E+02 0.  0.
    9900012    2    3    3    0    0  0.34743203044E+02  0.13064441061E+01  0.12123691958E+02  0.54367070345E+02  0.39999968466E+02 0.  0.
         12    1    3    3    0    0 -0.34743203044E+02 -0.13064441061E+01 -0.12123691958E+02  0.36820929655E+02  0.00000000000E+00 0. -1.
         11    1    4    4    0    0 -0.20187492454E+01 -0.11162249951E+02 -0.23453365921E+01  0.11583254140E+02  0.51100000000E-03 0. -1.
        -11    1    4    4    0    0  0.83583486447E+01  0.59941603562E+01  0.77721818999E+01  0.12891809888E+02  0.51100000000E-03 0.  1.
         12    1    4    4    0    0  0.28403603644E+02  0.64745337005E+01  0.66968466503E+01  0.29892006318E+02  0.00000000000E+00 0. -1.
</event>
<event>
 8    1  0.1262344E-006  0.9118800E+02  0.7816164E-02  0.1184000E+00
        -11   -1    0    0    0    0  0.00000000000E+00  0.00000000000E+00  0.45593999997E+02  0.45594000000E+02  0.51100000000E-03 0.  1.
         11   -1    0    0    0    0 -0.00000000000E+00 -0.00000000000E+00 -0.45593999997E+02  0.45594000000E+02  0.51100000000E-03 0. -1.
         23    2    1    2    0    0  0.55511151231E-16  0.00000000000E+00  0.00000000000E+00  0.91188000000E+02  0.91188000000E+02 0.  0.
    9900012    2    3    3    0    0  0.31383542216E+00  0.35708046032E+02  0.89787620961E+01  0.54367065562E+02  0.39999957562E+02 0.  0.
         12    1    3    3    0    0 -0.31383542216E+00 -0.35708046032E+02 -0.89787620961E+01  0.36820934438E+02  0.00000000000E+00 0. -1.
         11    1    4    4    0    0  0.97827684497E+01  0.30986307258E+02 -0.81066933824E+01  0.33489883157E+02  0.51100000000E-03 0. -1.
        -11    1    4    4    0    0 -0.99798045081E+01  0.34917249641E+01  0.14245600996E+02  0.17740512655E+02  0.51100000000E-03 0.  1.
         12    1    4    4    0    0  0.51087148060E+00  0.12300138102E+01  0.28398544822E+01  0.31366697504E+01  0.00000000000E+00 0. -1.
</event>
<event>
 8    1  0.1262344E-006  0.9118800E+02  0.7816164E-02  0.1184000E+00
        -11   -1    0    0    0    0  0.00000000000E+00  0.00000000000E+00  0.45593999997E+02  0.45594000000E+02  0.51100000000E-03 0. -1.
         11   -1    0    0    0    0 -0.00000000000E+00 -0.00000000000E+00 -0.45593999997E+02  0.45594000000E+02  0.51100000000E-03 0.  1.
         23    2    1    2    0    0  0.88817841970E-15  0.35527136788E-14  0.35527136788E-14  0.91188000000E+02  0.91188000000E+02 0.  0.
    9900012    2    3    3    0    0 -0.75392634618E+01 -0.31911114822E+02 -0.16751710042E+02  0.54367088386E+02  0.40000009594E+02 0.  0.
         12    1    3    3    0    0  0.75392634618E+01  0.31911114822E+02  0.16751710042E+02  0.36820911614E+02  0.00000000000E+00 0. -1.
         11    1    4    4    0    0  0.15376222501E+01  0.51957052972E+01  0.60680362186E+01  0.81351520902E+01  0.51100000000E-03 0. -1.
        -11    1    4    4    0    0 -0.70263722984E+01 -0.85264267334E+01 -0.31925439934E+01  0.11500530332E+02  0.51100000000E-03 0.  1.
        -12    1    4    4    0    0 -0.20505134135E+01 -0.28580393386E+02 -0.19627202267E+02  0.34731405963E+02  0.00000000000E+00 0.  1.
</event>
<event>
 8    1  0.1262344E-006  0.9118800E+02  0.7816164E-02  0.1184000E+00
        -11   -1    0    0    0    0  0.00000000000E+00  0.00000000000E+00  0.45593999997E+02  0.45594000000E+02  0.51100000000E-03 0.  1.
         11   -1    0    0    0    0 -0.00000000000E+00 -0.00000000000E+00 -0.45593999997E+02  0.45594000000E+02  0.51100000000E-03 0. -1.
         23    2    1    2    0    0  0.00000000000E+00  0.44408920985E-15  0.17763568394E-14  0.91188000000E+02  0.91188000000E+02 0.  0.
    9900012    2    3    3    0    0  0.34759707947E+02  0.13213090498E+01 -0.12074590253E+02  0.54367097187E+02  0.40000029658E+02 0.  0.
        -12    1    3    3    0    0 -0.34759707947E+02 -0.13213090498E+01  0.12074590253E+02  0.36820902813E+02  0.00000000000E+00 0.  1.
         11    1    4    4    0    0  0.36602954953E+02  0.35017021918E+01  0.37978269073E+01  0.36965682991E+02  0.51100000000E-03 0. -1.
        -11    1    4    4    0    0 -0.98345680114E+00  0.18996136084E+01 -0.98296105668E+01  0.10059670139E+02  0.51100000000E-03 0.  1.
         12    1    4    4    0    0 -0.85979020496E+00 -0.40800067504E+01 -0.60428065933E+01  0.73417440574E+01  0.00000000000E+00 0. -1.
</event>
<event>
 8    1  0.1262344E-006  0.9118800E+02  0.7816164E-02  0.1184000E+00
        -11   -1    0    0    0    0  0.00000000000E+00  0.00000000000E+00  0.45593999997E+02  0.45594000000E+02  0.51100000000E-03 0.  1.
         11   -1    0    0    0    0 -0.00000000000E+00 -0.00000000000E+00 -0.45593999997E+02  0.45594000000E+02  0.51100000000E-03 0. -1.
         23    2    1    2    0    0  0.00000000000E+00 -0.35527136788E-14  0.00000000000E+00  0.91188000000E+02  0.91188000000E+02 0.  0.
    9900012    2    3    3    0    0  0.21949931122E+02 -0.27374663107E+02 -0.11162846365E+02  0.54367071230E+02  0.39999970484E+02 0.  0.
        -12    1    3    3    0    0 -0.21949931122E+02  0.27374663107E+02  0.11162846365E+02  0.36820928770E+02  0.00000000000E+00 0.  1.
         11    1    4    4    0    0 -0.13844795025E+00 -0.23398482883E+02 -0.27095970983E+01  0.23555256011E+02  0.51100000000E-03 0. -1.
        -11    1    4    4    0    0  0.24188797855E+02 -0.75899313921E+01 -0.81130660440E+01  0.26618167501E+02  0.51100000000E-03 0.  1.
        -12    1    4    4    0    0 -0.21004187828E+01  0.36137511675E+01 -0.34018322306E+00  0.41936477187E+01  0.00000000000E+00 0.  1.
</event>
<event>
 8    1  0.1262344E-006  0.9118800E+02  0.7816164E-02  0.1184000E+00
        -11   -1    0    0    0    0  0.00000000000E+00  0.00000000000E+00  0.45593999997E+02  0.45594000000E+02  0.51100000000E-03 0. -1.
         11   -1    0    0    0    0 -0.00000000000E+00 -0.00000000000E+00 -0.45593999997E+02  0.45594000000E+02  0.51100000000E-03 0.  1.
         23    2    1    2    0    0 -0.35527136788E-14  0.17763568394E-14  0.00000000000E+00  0.91188000000E+02  0.91188000000E+02 0.  0.
    9900012    2    3    3    0    0  0.29399962111E+02 -0.13247221744E+02 -0.17774603124E+02  0.54367038955E+02  0.39999896906E+02 0.  0.
         12    1    3    3    0    0 -0.29399962111E+02  0.13247221744E+02  0.17774603124E+02  0.36820961045E+02  0.00000000000E+00 0. -1.
         11    1    4    4    0    0  0.15308984920E+02 -0.68388627044E+01  0.69716160079E+01  0.18158702938E+02  0.51100000000E-03 0. -1.
        -11    1    4    4    0    0  0.11723094233E+02 -0.13974718338E+02 -0.19499756938E+02  0.26701389700E+02  0.51100000000E-03 0.  1.
         12    1    4    4    0    0  0.23678829572E+01  0.75663592979E+01 -0.52464621937E+01  0.95069463170E+01  0.00000000000E+00 0. -1.
</event>
<event>
 8    1  0.1262344E-006  0.9118800E+02  0.7816164E-02  0.1184000E+00
        -11   -1    0    0    0    0  0.00000000000E+00  0.00000000000E+00  0.45593999997E+02  0.45594000000E+02  0.51100000000E-03 0. -1.
         11   -1    0    0    0    0 -0.00000000000E+00 -0.00000000000E+00 -0.45593999997E+02  0.45594000000E+02  0.51100000000E-03 0.  1.
         23    2    1    2    0    0  0.35527136788E-14 -0.19984014443E-14  0.00000000000E+00  0.91188000000E+02  0.91188000000E+02 0.  0.
    9900012    2    3    3    0    0 -0.22593974763E+02  0.86532364455E+00  0.29061045960E+02  0.54367070179E+02  0.39999968087E+02 0.  0.
        -12    1    3    3    0    0  0.22593974763E+02 -0.86532364455E+00 -0.29061045960E+02  0.36820929821E+02  0.00000000000E+00 0.  1.
         11    1    4    4    0    0 -0.33646255205E+01 -0.72164520969E+01  0.49240252257E+01  0.93618326435E+01  0.51100000000E-03 0. -1.
        -11    1    4    4    0    0  0.84472057453E+01  0.10604632255E+01  0.10033651720E+02  0.13158800639E+02  0.51100000000E-03 0.  1.
         12    1    4    4    0    0 -0.27676554988E+02  0.70213125160E+01  0.14103369014E+02  0.31846436896E+02  0.00000000000E+00 0. -1.
</event>
<event>
 8    1  0.1262344E-006  0.9118800E+02  0.7816164E-02  0.1184000E+00
        -11   -1    0    0    0    0  0.00000000000E+00  0.00000000000E+00  0.45593999997E+02  0.45594000000E+02  0.51100000000E-03 0. -1.
         11   -1    0    0    0    0 -0.00000000000E+00 -0.00000000000E+00 -0.45593999997E+02  0.45594000000E+02  0.51100000000E-03 0.  1.
         23    2    1    2    0    0 -0.17763568394E-14  0.00000000000E+00  0.00000000000E+00  0.91188000000E+02  0.91188000000E+02 0.  0.
    9900012    2    3    3    0    0  0.29918801967E+01 -0.22910832031E+02 -0.28669175407E+02  0.54367093032E+02  0.40000020184E+02 0.  0.
         12    1    3    3    0    0 -0.29918801967E+01  0.22910832031E+02  0.28669175407E+02  0.36820906968E+02  0.00000000000E+00 0. -1.
         11    1    4    4    0    0  0.14966132645E+02  0.49054749185E+01 -0.11629529382E+02  0.19577915222E+02  0.51100000000E-03 0. -1.
        -11    1    4    4    0    0 -0.52370829318E+01 -0.12301395523E+02 -0.84780189846E+01  0.15831240495E+02  0.51100000000E-03 0.  1.
         12    1    4    4    0    0 -0.67371695163E+01 -0.15514911426E+02 -0.85616270407E+01  0.18957937315E+02  0.00000000000E+00 0. -1.
</event>
<event>
 8    1  0.1262344E-006  0.9118800E+02  0.7816164E-02  0.1184000E+00
        -11   -1    0    0    0    0  0.00000000000E+00  0.00000000000E+00  0.45593999997E+02  0.45594000000E+02  0.51100000000E-03 0.  1.
         11   -1    0    0    0    0 -0.00000000000E+00 -0.00000000000E+00 -0.45593999997E+02  0.45594000000E+02  0.51100000000E-03 0. -1.
         23    2    1    2    0    0  0.00000000000E+00  0.88817841970E-15  0.35527136788E-14  0.91188000000E+02  0.91188000000E+02 0.  0.
    9900012    2    3    3    0    0 -0.21288255915E+02  0.46665083560E+01  0.29678495456E+02  0.54367092452E+02  0.40000018862E+02 0.  0.
         12    1    3    3    0    0  0.21288255915E+02 -0.46665083560E+01 -0.29678495456E+02  0.36820907548E+02  0.00000000000E+00 0. -1.
         11    1    4    4    0    0  0.29374094917E+01  0.46106801420E+01  0.29427781291E+01  0.62085980118E+01  0.51100000000E-03 0. -1.
        -11    1    4    4    0    0 -0.17309987808E+02  0.15420217974E+02  0.14655125143E+02  0.27426109704E+02  0.51100000000E-03 0.  1.
         12    1    4    4    0    0 -0.69156775993E+01 -0.15364389760E+02  0.12080592183E+02  0.20732384736E+02  0.00000000000E+00 0. -1.
</event>
<event>
 8    1  0.1262344E-006  0.9118800E+02  0.7816164E-02  0.1184000E+00
        -11   -1    0    0    0    0  0.00000000000E+00  0.00000000000E+00  0.45593999997E+02  0.45594000000E+02  0.51100000000E-03 0. -1.
         11   -1    0    0    0    0 -0.00000000000E+00 -0.00000000000E+00 -0.45593999997E+02  0.45594000000E+02  0.51100000000E-03 0.  1.
         23    2    1    2    0    0 -0.35527136788E-14  0.00000000000E+00  0.00000000000E+00  0.91188000000E+02  0.91188000000E+02 0.  0.
    9900012    2    3    3    0    0 -0.18512106599E+02  0.28543770467E+02  0.14083143218E+02  0.54367084122E+02  0.39999999872E+02 0.  0.
         12    1    3    3    0    0  0.18512106599E+02 -0.28543770467E+02 -0.14083143218E+02  0.36820915878E+02  0.00000000000E+00 0. -1.
         11    1    4    4    0    0  0.28954882548E+01 -0.87030293598E-01  0.94670969511E+00  0.30475705101E+01  0.51100000000E-03 0. -1.
        -11    1    4    4    0    0 -0.31431905175E+01  0.24943698093E+02  0.19298847978E+02  0.31694057088E+02  0.51100000000E-03 0.  1.
        -12    1    4    4    0    0 -0.18264404336E+02  0.36871026681E+01 -0.61624144549E+01  0.19625456524E+02  0.00000000000E+00 0.  1.
</event>
<event>
 8    1  0.1262344E-006  0.9118800E+02  0.7816164E-02  0.1184000E+00
        -11   -1    0    0    0    0  0.00000000000E+00  0.00000000000E+00  0.45593999997E+02  0.45594000000E+02  0.51100000000E-03 0.  1.
         11   -1    0    0    0    0 -0.00000000000E+00 -0.00000000000E+00 -0.45593999997E+02  0.45594000000E+02  0.51100000000E-03 0. -1.
         23    2    1    2    0    0  0.00000000000E+00  0.00000000000E+00 -0.88817841970E-15  0.91188000000E+02  0.91188000000E+02 0.  0.
    9900012    2    3    3    0    0  0.27918582489E+02 -0.22712964861E+02 -0.77753047853E+01  0.54367063218E+02  0.39999952218E+02 0.  0.
        -12    1    3    3    0    0 -0.27918582489E+02  0.22712964861E+02  0.77753047853E+01  0.36820936782E+02  0.00000000000E+00 0.  1.
         11    1    4    4    0    0  0.97220658114E+01 -0.62276634387E+01  0.28842867484E+01  0.11900481749E+02  0.51100000000E-03 0. -1.
        -11    1    4    4    0    0  0.19586558639E+02  0.43756744791E+01 -0.35321413517E+01  0.20377826903E+02  0.51100000000E-03 0.  1.
         12    1    4    4    0    0 -0.13900419612E+01 -0.20860975901E+02 -0.71274501821E+01  0.22088754567E+02  0.00000000000E+00 0. -1.
</event>
<event>
 8    1  0.1262344E-006  0.9118800E+02  0.7816164E-02  0.1184000E+00
        -11   -1    0    0    0    0  0.00000000000E+00  0.00000000000E+00  0.45593999997E+02  0.45594000000E+02  0.51100000000E-03 0.  1.
         11   -1    0    0    0    0 -0.00000000000E+00 -0.00000000000E+00 -0.45593999997E+02  0.45594000000E+02  0.51100000000E-03 0. -1.
         23    2    1    2    0    0  0.44408920985E-15  0.35527136788E-14 -0.35527136788E-14  0.91188000000E+02  0.91188000000E+02 0.  0.
    9900012    2    3    3    0    0  0.24050300424E+01  0.30039344014E+02 -0.21157357521E+02  0.54367080192E+02  0.39999990913E+02 0.  0.
        -12    1    3    3    0    0 -0.24050300424E+01 -0.30039344014E+02  0.21157357521E+02  0.36820919808E+02  0.00000000000E+00 0.  1.
         11    1    4    4    0    0 -0.60394021709E+01  0.17245984717E+02  0.31362656797E+01  0.18540079022E+02  0.51100000000E-03 0. -1.
        -11    1    4    4    0    0  0.59810685133E+01  0.78750642721E+01  0.10026442137E+01  0.99395731060E+01  0.51100000000E-03 0.  1.
         12    1    4    4    0    0  0.24633637000E+01  0.49182950242E+01 -0.25296267414E+02  0.25887428064E+02  0.00000000000E+00 0. -1.
</event>
<event>
 8    1  0.1262344E-006  0.9118800E+02  0.7816164E-02  0.1184000E+00
        -11   -1    0    0    0    0  0.00000000000E+00  0.00000000000E+00  0.45593999997E+02  0.45594000000E+02  0.51100000000E-03 0. -1.
         11   -1    0    0    0    0 -0.00000000000E+00 -0.00000000000E+00 -0.45593999997E+02  0.45594000000E+02  0.51100000000E-03 0.  1.
         23    2    1    2    0    0  0.00000000000E+00 -0.44408920985E-15  0.00000000000E+00  0.91188000000E+02  0.91188000000E+02 0.  0.
    9900012    2    3    3    0    0  0.29661572493E+02 -0.16351213165E+01 -0.21755315611E+02  0.54367132794E+02  0.40000110830E+02 0.  0.
         12    1    3    3    0    0 -0.29661572493E+02  0.16351213165E+01  0.21755315611E+02  0.36820867206E+02  0.00000000000E+00 0. -1.
         11    1    4    4    0    0  0.90009794454E+01 -0.64080736294E+01  0.25334040944E+01  0.11335747668E+02  0.51100000000E-03 0. -1.
        -11    1    4    4    0    0  0.83300605775E+01 -0.11596155635E+02 -0.14393113580E+02  0.20273688701E+02  0.51100000000E-03 0.  1.
        -12    1    4    4    0    0  0.12330532470E+02  0.16369107948E+02 -0.98956061251E+01  0.22757696425E+02  0.00000000000E+00 0.  1.
</event>
<event>
 8    1  0.1262344E-006  0.9118800E+02  0.7816164E-02  0.1184000E+00
        -11   -1    0    0    0    0  0.00000000000E+00  0.00000000000E+00  0.45593999997E+02  0.45594000000E+02  0.51100000000E-03 0. -1.
         11   -1    0    0    0    0 -0.00000000000E+00 -0.00000000000E+00 -0.45593999997E+02  0.45594000000E+02  0.51100000000E-03 0.  1.
         23    2    1    2    0    0  0.17763568394E-14  0.00000000000E+00  0.35527136788E-14  0.91188000000E+02  0.91188000000E+02 0.  0.
    9900012    2    3    3    0    0 -0.14396528435E+02  0.20632504632E+02  0.26885301250E+02  0.54367086083E+02  0.40000004343E+02 0.  0.
        -12    1    3    3    0    0  0.14396528435E+02 -0.20632504632E+02 -0.26885301250E+02  0.36820913917E+02  0.00000000000E+00 0.  1.
         11    1    4    4    0    0  0.52837539178E+01  0.12442203561E+02  0.14207263612E+02  0.19610528410E+02  0.51100000000E-03 0. -1.
        -11    1    4    4    0    0 -0.23843355092E+02  0.26175811056E+01  0.13856717076E+02  0.27701370386E+02  0.51100000000E-03 0.  1.
         12    1    4    4    0    0  0.41630727386E+01  0.55727199653E+01 -0.11786794377E+01  0.70551872871E+01  0.00000000000E+00 0. -1.
</event>
<event>
 8    1  0.1262344E-006  0.9118800E+02  0.7816164E-02  0.1184000E+00
        -11   -1    0    0    0    0  0.00000000000E+00  0.00000000000E+00  0.45593999997E+02  0.45594000000E+02  0.51100000000E-03 0.  1.
         11   -1    0    0    0    0 -0.00000000000E+00 -0.00000000000E+00 -0.45593999997E+02  0.45594000000E+02  0.51100000000E-03 0. -1.
         23    2    1    2    0    0 -0.35527136788E-14  0.00000000000E+00  0.00000000000E+00  0.91188000000E+02  0.91188000000E+02 0.  0.
    9900012    2    3    3    0    0  0.18815787559E+02  0.26553533813E+02 -0.17223767214E+02  0.54367052477E+02  0.39999927733E+02 0.  0.
        -12    1    3    3    0    0 -0.18815787559E+02 -0.26553533813E+02  0.17223767214E+02  0.36820947523E+02  0.00000000000E+00 0.  1.
         11    1    4    4    0    0  0.72218072793E+01  0.20044032027E+02 -0.67090347675E+01  0.22336715696E+02  0.51100000000E-03 0. -1.
        -11    1    4    4    0    0  0.19252228093E+02  0.25695480464E+01 -0.12622095612E+02  0.23163940977E+02  0.51100000000E-03 0.  1.
         12    1    4    4    0    0 -0.76582478139E+01  0.39399537398E+01  0.21073631655E+01  0.88663958045E+01  0.00000000000E+00 0. -1.
</event>
<event>
 8    1  0.1262344E-006  0.9118800E+02  0.7816164E-02  0.1184000E+00
        -11   -1    0    0    0    0  0.00000000000E+00  0.00000000000E+00  0.45593999997E+02  0.45594000000E+02  0.51100000000E-03 0.  1.
         11   -1    0    0    0    0 -0.00000000000E+00 -0.00000000000E+00 -0.45593999997E+02  0.45594000000E+02  0.51100000000E-03 0. -1.
         23    2    1    2    0    0  0.00000000000E+00  0.00000000000E+00  0.00000000000E+00  0.91188000000E+02  0.91188000000E+02 0.  0.
    9900012    2    3    3    0    0  0.17250835193E+02  0.19073597248E+02 -0.26351167600E+02  0.54367116513E+02  0.40000073716E+02 0.  0.
        -12    1    3    3    0    0 -0.17250835193E+02 -0.19073597248E+02  0.26351167600E+02  0.36820883487E+02  0.00000000000E+00 0.  1.
         11    1    4    4    0    0 -0.44862038630E+01  0.45769016756E+01  0.29255639137E+00  0.64155781931E+01  0.51100000000E-03 0. -1.
        -11    1    4    4    0    0  0.19109639100E+02  0.47608999442E+01 -0.24818854343E+00  0.19695331239E+02  0.51100000000E-03 0.  1.
        -12    1    4    4    0    0  0.26273999563E+01  0.97357956287E+01 -0.26395535448E+02  0.28256207082E+02  0.00000000000E+00 0.  1.
</event>
<event>
 8    1  0.1262344E-006  0.9118800E+02  0.7816164E-02  0.1184000E+00
        -11   -1    0    0    0    0  0.00000000000E+00  0.00000000000E+00  0.45593999997E+02  0.45594000000E+02  0.51100000000E-03 0.  1.
         11   -1    0    0    0    0 -0.00000000000E+00 -0.00000000000E+00 -0.45593999997E+02  0.45594000000E+02  0.51100000000E-03 0. -1.
         23    2    1    2    0    0  0.00000000000E+00 -0.88817841970E-15  0.00000000000E+00  0.91188000000E+02  0.91188000000E+02 0.  0.
    9900012    2    3    3    0    0 -0.23518171002E+01  0.59408140671E+01  0.36262323060E+02  0.54367076747E+02  0.39999983061E+02 0.  0.
         12    1    3    3    0    0  0.23518171002E+01 -0.59408140671E+01 -0.36262323060E+02  0.36820923253E+02  0.00000000000E+00 0. -1.
         11    1    4    4    0    0 -0.10309013746E+02  0.15251684275E+01 -0.51581044535E+01  0.11627895122E+02  0.51100000000E-03 0. -1.
        -11    1    4    4    0    0  0.59286854187E+01  0.55774604704E+01  0.30194006801E+02  0.31271959053E+02  0.51100000000E-03 0.  1.
         12    1    4    4    0    0  0.20285112270E+01 -0.11618148307E+01  0.11226420713E+02  0.11467222572E+02  0.00000000000E+00 0. -1.
</event>
<event>
 8    1  0.1262344E-006  0.9118800E+02  0.7816164E-02  0.1184000E+00
        -11   -1    0    0    0    0  0.00000000000E+00  0.00000000000E+00  0.45593999997E+02  0.45594000000E+02  0.51100000000E-03 0. -1.
         11   -1    0    0    0    0 -0.00000000000E+00 -0.00000000000E+00 -0.45593999997E+02  0.45594000000E+02  0.51100000000E-03 0.  1.
         23    2    1    2    0    0  0.00000000000E+00  0.00000000000E+00  0.00000000000E+00  0.91188000000E+02  0.91188000000E+02 0.  0.
    9900012    2    3    3    0    0  0.10416783928E+02  0.35303915839E+02 -0.95374874953E+00  0.54367007378E+02  0.39999824920E+02 0.  0.
        -12    1    3    3    0    0 -0.10416783928E+02 -0.35303915839E+02  0.95374874953E+00  0.36820992622E+02  0.00000000000E+00 0.  1.
         11    1    4    4    0    0  0.11175978584E+01  0.19835182784E+02  0.28017232903E+01  0.20063228920E+02  0.51100000000E-03 0. -1.
        -11    1    4    4    0    0 -0.79745816983E+01 -0.25544238401E+01 -0.41296600125E+01  0.93366549951E+01  0.51100000000E-03 0.  1.
        -12    1    4    4    0    0  0.17273767768E+02  0.18023156895E+02  0.37418797267E+00  0.24967123463E+02  0.00000000000E+00 0.  1.
</event>
<event>
 8    1  0.1262344E-006  0.9118800E+02  0.7816164E-02  0.1184000E+00
        -11   -1    0    0    0    0  0.00000000000E+00  0.00000000000E+00  0.45593999997E+02  0.45594000000E+02  0.51100000000E-03 0. -1.
         11   -1    0    0    0    0 -0.00000000000E+00 -0.00000000000E+00 -0.45593999997E+02  0.45594000000E+02  0.51100000000E-03 0.  1.
         23    2    1    2    0    0 -0.17763568394E-14  0.00000000000E+00  0.00000000000E+00  0.91188000000E+02  0.91188000000E+02 0.  0.
    9900012    2    3    3    0    0  0.14195933473E+02 -0.19083435293E+02 -0.28108323052E+02  0.54367084007E+02  0.39999999611E+02 0.  0.
         12    1    3    3    0    0 -0.14195933473E+02  0.19083435293E+02  0.28108323052E+02  0.36820915993E+02  0.00000000000E+00 0. -1.
         11    1    4    4    0    0  0.11758834483E+01 -0.73342502218E+01  0.71310144666E+01  0.10296858540E+02  0.51100000000E-03 0. -1.
        -11    1    4    4    0    0  0.85911507048E+01 -0.15819268952E+02 -0.16609898575E+02  0.24493792511E+02  0.51100000000E-03 0.  1.
        -12    1    4    4    0    0  0.44288993203E+01  0.40700838805E+01 -0.18629438943E+02  0.19576432957E+02  0.00000000000E+00 0.  1.
</event>
<event>
 8    1  0.1262344E-006  0.9118800E+02  0.7816164E-02  0.1184000E+00
        -11   -1    0    0    0    0  0.00000000000E+00  0.00000000000E+00  0.45593999997E+02  0.45594000000E+02  0.51100000000E-03 0.  1.
         11   -1    0    0    0    0 -0.00000000000E+00 -0.00000000000E+00 -0.45593999997E+02  0.45594000000E+02  0.51100000000E-03 0. -1.
         23    2    1    2    0    0  0.00000000000E+00 -0.17763568394E-14 -0.35527136788E-14  0.91188000000E+02  0.91188000000E+02 0.  0.
    9900012    2    3    3    0    0  0.23784425676E+02 -0.11354043402E+02 -0.25713251308E+02  0.54367020937E+02  0.39999855830E+02 0.  0.
        -12    1    3    3    0    0 -0.23784425676E+02  0.11354043402E+02  0.25713251308E+02  0.36820979063E+02  0.00000000000E+00 0.  1.
         11    1    4    4    0    0 -0.40815307105E+01  0.58176063386E+01 -0.12415617865E+02  0.14305628392E+02  0.51100000000E-03 0. -1.
        -11    1    4    4    0    0 -0.24439479625E+00  0.23604271590E+01 -0.38992356143E+01  0.45645792606E+01  0.51100000000E-03 0.  1.
        -12    1    4    4    0    0  0.28110351183E+02 -0.19532076900E+02 -0.93983978287E+01  0.35496813285E+02  0.00000000000E+00 0.  1.
</event>
<event>
 8    1  0.1262344E-006  0.9118800E+02  0.7816164E-02  0.1184000E+00
        -11   -1    0    0    0    0  0.00000000000E+00  0.00000000000E+00  0.45593999997E+02  0.45594000000E+02  0.51100000000E-03 0. -1.
         11   -1    0    0    0    0 -0.00000000000E+00 -0.00000000000E+00 -0.45593999997E+02  0.45594000000E+02  0.51100000000E-03 0.  1.
         23    2    1    2    0    0  0.17763568394E-14  0.17763568394E-14  0.00000000000E+00  0.91188000000E+02  0.91188000000E+02 0.  0.
    9900012    2    3    3    0    0 -0.10044009460E+02  0.13531034956E+02  0.32738491262E+02  0.54367084162E+02  0.39999999965E+02 0.  0.
        -12    1    3    3    0    0  0.10044009460E+02 -0.13531034956E+02 -0.32738491262E+02  0.36820915838E+02  0.00000000000E+00 0.  1.
         11    1    4    4    0    0  0.31952452478E+01  0.17692307160E+02  0.13889557445E+02  0.22718871695E+02  0.51100000000E-03 0. -1.
        -11    1    4    4    0    0  0.31808800472E+01  0.54904781894E+01  0.40459215798E+01  0.75254787432E+01  0.51100000000E-03 0.  1.
        -12    1    4    4    0    0 -0.16420134755E+02 -0.96517503931E+01  0.14803012238E+02  0.24122733724E+02  0.00000000000E+00 0.  1.
</event>
<event>
 8    1  0.1262344E-006  0.9118800E+02  0.7816164E-02  0.1184000E+00
        -11   -1    0    0    0    0  0.00000000000E+00  0.00000000000E+00  0.45593999997E+02  0.45594000000E+02  0.51100000000E-03 0. -1.
         11   -1    0    0    0    0 -0.00000000000E+00 -0.00000000000E+00 -0.45593999997E+02  0.45594000000E+02  0.51100000000E-03 0.  1.
         23    2    1    2    0    0  0.00000000000E+00 -0.17763568394E-14 -0.88817841970E-15  0.91188000000E+02  0.91188000000E+02 0.  0.
    9900012    2    3    3    0    0 -0.33865451787E+02 -0.13123283922E+02  0.60572142491E+01  0.54367092215E+02  0.40000018322E+02 0.  0.
        -12    1    3    3    0    0  0.33865451787E+02  0.13123283922E+02 -0.60572142491E+01  0.36820907785E+02  0.00000000000E+00 0.  1.
         11    1    4    4    0    0 -0.21461963425E+02  0.77256428657E-01  0.19767536140E+02  0.29178370892E+02  0.51100000000E-03 0. -1.
        -11    1    4    4    0    0  0.16048359938E+00 -0.48273090192E+01 -0.53750520003E-01  0.48302750162E+01  0.51100000000E-03 0.  1.
         12    1    4    4    0    0 -0.12563971962E+02 -0.83732313315E+01 -0.13656571371E+02  0.20358446307E+02  0.00000000000E+00 0. -1.
</event>
<event>
 8    1  0.1262344E-006  0.9118800E+02  0.7816164E-02  0.1184000E+00
        -11   -1    0    0    0    0  0.00000000000E+00  0.00000000000E+00  0.45593999997E+02  0.45594000000E+02  0.51100000000E-03 0. -1.
         11   -1    0    0    0    0 -0.00000000000E+00 -0.00000000000E+00 -0.45593999997E+02  0.45594000000E+02  0.51100000000E-03 0.  1.
         23    2    1    2    0    0 -0.88817841970E-15  0.35527136788E-14  0.35527136788E-14  0.91188000000E+02  0.91188000000E+02 0.  0.
    9900012    2    3    3    0    0 -0.63962042122E+01  0.29301257782E+02  0.21361332419E+02  0.54367059509E+02  0.39999943762E+02 0.  0.
         12    1    3    3    0    0  0.63962042122E+01 -0.29301257782E+02 -0.21361332419E+02  0.36820940491E+02  0.00000000000E+00 0. -1.
         11    1    4    4    0    0 -0.16468796462E+02  0.38667054351E+01  0.19425950533E+01  0.17027810888E+02  0.51100000000E-03 0. -1.
        -11    1    4    4    0    0 -0.20272556200E+01  0.71400475586E+01 -0.85440316442E+00  0.74712816515E+01  0.51100000000E-03 0.  1.
         12    1    4    4    0    0  0.12099847870E+02  0.18294504788E+02  0.20273140530E+02  0.29867966969E+02  0.00000000000E+00 0. -1.
</event>
<event>
 8    1  0.1262344E-006  0.9118800E+02  0.7816164E-02  0.1184000E+00
        -11   -1    0    0    0    0  0.00000000000E+00  0.00000000000E+00  0.45593999997E+02  0.45594000000E+02  0.51100000000E-03 0. -1.
         11   -1    0    0    0    0 -0.00000000000E+00 -0.00000000000E+00 -0.45593999997E+02  0.45594000000E+02  0.51100000000E-03 0.  1.
         23    2    1    2    0    0 -0.35527136788E-14  0.00000000000E+00  0.00000000000E+00  0.91188000000E+02  0.91188000000E+02 0.  0.
    9900012    2    3    3    0    0 -0.25572653240E+02 -0.80686857774E+01  0.25233216697E+02  0.54367088702E+02  0.40000010314E+02 0.  0.
        -12    1    3    3    0    0  0.25572653240E+02  0.80686857774E+01 -0.25233216697E+02  0.36820911298E+02  0.00000000000E+00 0.  1.
         11    1    4    4    0    0 -0.26243698107E+02  0.16706270797E+01  0.14828585974E+02  0.30189561895E+02  0.51100000000E-03 0. -1.
        -11    1    4    4    0    0 -0.51860158667E+01 -0.75553794013E+00  0.12223816424E+02  0.13299897984E+02  0.51100000000E-03 0.  1.
        -12    1    4    4    0    0  0.58570607339E+01 -0.89837749169E+01 -0.18191857004E+01  0.10877628823E+02  0.00000000000E+00 0.  1.
</event>
<event>
 8    1  0.1262344E-006  0.9118800E+02  0.7816164E-02  0.1184000E+00
        -11   -1    0    0    0    0  0.00000000000E+00  0.00000000000E+00  0.45593999997E+02  0.45594000000E+02  0.51100000000E-03 0.  1.
         11   -1    0    0    0    0 -0.00000000000E+00 -0.00000000000E+00 -0.45593999997E+02  0.45594000000E+02  0.51100000000E-03 0. -1.
         23    2    1    2    0    0 -0.71054273576E-14 -0.88817841970E-15  0.00000000000E+00  0.91188000000E+02  0.91188000000E+02 0.  0.
    9900012    2    3    3    0    0  0.34230850143E+02  0.48933553961E+01  0.12652415657E+02  0.54367086778E+02  0.40000005928E+02 0.  0.
        -12    1    3    3    0    0 -0.34230850143E+02 -0.48933553961E+01 -0.12652415657E+02  0.36820913222E+02  0.00000000000E+00 0.  1.
         11    1    4    4    0    0  0.82991946925E+00 -0.86396779031E+01  0.25822313177E+01  0.90554248622E+01  0.51100000000E-03 0.  1.
        -11    1    4    4    0    0  0.24204316057E+02 -0.35228909208E+01  0.84037777726E+01  0.25862775515E+02  0.51100000000E-03 0. -1.
         12    1    4    4    0    0  0.91966146170E+01  0.17055924220E+02  0.16664065662E+01  0.19448886401E+02  0.00000000000E+00 0. -1.
</event>
<event>
 8    1  0.1262344E-006  0.9118800E+02  0.7816164E-02  0.1184000E+00
        -11   -1    0    0    0    0  0.00000000000E+00  0.00000000000E+00  0.45593999997E+02  0.45594000000E+02  0.51100000000E-03 0. -1.
         11   -1    0    0    0    0 -0.00000000000E+00 -0.00000000000E+00 -0.45593999997E+02  0.45594000000E+02  0.51100000000E-03 0.  1.
         23    2    1    2    0    0  0.00000000000E+00  0.35527136788E-14 -0.55511151231E-15  0.91188000000E+02  0.91188000000E+02 0.  0.
    9900012    2    3    3    0    0  0.31884582561E+02 -0.18404521790E+02  0.65252632739E+00  0.54367098082E+02  0.40000031698E+02 0.  0.
         12    1    3    3    0    0 -0.31884582561E+02  0.18404521790E+02 -0.65252632739E+00  0.36820901918E+02  0.00000000000E+00 0. -1.
         11    1    4    4    0    0  0.25504444205E+02 -0.11950784267E+02  0.10276271792E+01  0.28184285278E+02  0.51100000000E-03 0. -1.
        -11    1    4    4    0    0  0.10618120384E+02 -0.99302814503E+01  0.76781401007E+01  0.16441070702E+02  0.51100000000E-03 0.  1.
         12    1    4    4    0    0 -0.42379820269E+01  0.34765439275E+01 -0.80532409525E+01  0.97417421018E+01  0.00000000000E+00 0. -1.
</event>
<event>
 8    1  0.1262344E-006  0.9118800E+02  0.7816164E-02  0.1184000E+00
        -11   -1    0    0    0    0  0.00000000000E+00  0.00000000000E+00  0.45593999997E+02  0.45594000000E+02  0.51100000000E-03 0. -1.
         11   -1    0    0    0    0 -0.00000000000E+00 -0.00000000000E+00 -0.45593999997E+02  0.45594000000E+02  0.51100000000E-03 0.  1.
         23    2    1    2    0    0  0.00000000000E+00  0.17763568394E-14  0.71054273576E-14  0.91188000000E+02  0.91188000000E+02 0.  0.
    9900012    2    3    3    0    0 -0.80050298401E+01 -0.92550758221E+01 -0.34728131142E+02  0.54367081708E+02  0.39999994370E+02 0.  0.
         12    1    3    3    0    0  0.80050298401E+01  0.92550758221E+01  0.34728131142E+02  0.36820918292E+02  0.00000000000E+00 0. -1.
         11    1    4    4    0    0  0.36330524657E+00 -0.11437766247E+02 -0.31754432742E+02  0.33753495914E+02  0.51100000000E-03 0. -1.
        -11    1    4    4    0    0 -0.49182384752E+01 -0.59046428577E+01 -0.74882804725E+01  0.10729781996E+02  0.51100000000E-03 0.  1.
        -12    1    4    4    0    0 -0.34500966114E+01  0.80873332824E+01  0.45145820717E+01  0.98838037986E+01  0.00000000000E+00 0.  1.
</event>
<event>
 8    1  0.1262344E-006  0.9118800E+02  0.7816164E-02  0.1184000E+00
        -11   -1    0    0    0    0  0.00000000000E+00  0.00000000000E+00  0.45593999997E+02  0.45594000000E+02  0.51100000000E-03 0.  1.
         11   -1    0    0    0    0 -0.00000000000E+00 -0.00000000000E+00 -0.45593999997E+02  0.45594000000E+02  0.51100000000E-03 0. -1.
         23    2    1    2    0    0  0.66613381478E-15  0.00000000000E+00  0.00000000000E+00  0.91188000000E+02  0.91188000000E+02 0.  0.
    9900012    2    3    3    0    0 -0.16565122121E+01  0.32409192500E+02  0.17397719912E+02  0.54367075931E+02  0.39999981199E+02 0.  0.
         12    1    3    3    0    0  0.16565122121E+01 -0.32409192500E+02 -0.17397719912E+02  0.36820924069E+02  0.00000000000E+00 0. -1.
         11    1    4    4    0    0 -0.11588438603E+02  0.18977904825E+02 -0.96979172946E+00  0.22257431952E+02  0.51100000000E-03 0. -1.
        -11    1    4    4    0    0  0.31105884863E+01 -0.52504952926E+01  0.66520613669E+01  0.90273685113E+01  0.51100000000E-03 0.  1.
        -12    1    4    4    0    0  0.68213379048E+01  0.18681782967E+02  0.11715450274E+02  0.23082275468E+02  0.00000000000E+00 0.  1.
</event>
<event>
 8    1  0.1262344E-006  0.9118800E+02  0.7816164E-02  0.1184000E+00
        -11   -1    0    0    0    0  0.00000000000E+00  0.00000000000E+00  0.45593999997E+02  0.45594000000E+02  0.51100000000E-03 0. -1.
         11   -1    0    0    0    0 -0.00000000000E+00 -0.00000000000E+00 -0.45593999997E+02  0.45594000000E+02  0.51100000000E-03 0.  1.
         23    2    1    2    0    0  0.00000000000E+00 -0.17763568394E-14  0.00000000000E+00  0.91188000000E+02  0.91188000000E+02 0.  0.
    9900012    2    3    3    0    0 -0.28195747661E+02 -0.15336280155E+02 -0.18044067412E+02  0.54366945643E+02  0.39999684182E+02 0.  0.
         12    1    3    3    0    0  0.28195747661E+02  0.15336280155E+02  0.18044067412E+02  0.36821054357E+02  0.00000000000E+00 0. -1.
         11    1    4    4    0    0  0.57039829329E+01 -0.88981927241E+00 -0.63673077305E+01  0.85947546581E+01  0.51100000000E-03 0. -1.
        -11    1    4    4    0    0 -0.30456527632E+02 -0.38939842671E+01 -0.15017646902E+02  0.34180299993E+02  0.51100000000E-03 0.  1.
        -12    1    4    4    0    0 -0.34432029617E+01 -0.10552476616E+02  0.33408872204E+01  0.11591890992E+02  0.00000000000E+00 0.  1.
</event>
<event>
 8    1  0.1262344E-006  0.9118800E+02  0.7816164E-02  0.1184000E+00
        -11   -1    0    0    0    0  0.00000000000E+00  0.00000000000E+00  0.45593999997E+02  0.45594000000E+02  0.51100000000E-03 0.  1.
         11   -1    0    0    0    0 -0.00000000000E+00 -0.00000000000E+00 -0.45593999997E+02  0.45594000000E+02  0.51100000000E-03 0. -1.
         23    2    1    2    0    0 -0.35527136788E-14  0.00000000000E+00 -0.19984014443E-14  0.91188000000E+02  0.91188000000E+02 0.  0.
    9900012    2    3    3    0    0  0.26420489170E+02  0.25621196278E+02 -0.11361976640E+01  0.54367097080E+02  0.40000029412E+02 0.  0.
         12    1    3    3    0    0 -0.26420489170E+02 -0.25621196278E+02  0.11361976640E+01  0.36820902920E+02  0.00000000000E+00 0. -1.
         11    1    4    4    0    0  0.68586640215E+01  0.40720351788E+01 -0.15850825210E+02  0.17744616162E+02  0.51100000000E-03 0. -1.
        -11    1    4    4    0    0  0.77033566431E+01  0.15596425191E+02  0.15543536540E+02  0.23327916982E+02  0.51100000000E-03 0.  1.
        -12    1    4    4    0    0  0.11858468506E+02  0.59527359081E+01 -0.82890899382E+00  0.13294563935E+02  0.00000000000E+00 0.  1.
</event>
<event>
 8    1  0.1262344E-006  0.9118800E+02  0.7816164E-02  0.1184000E+00
        -11   -1    0    0    0    0  0.00000000000E+00  0.00000000000E+00  0.45593999997E+02  0.45594000000E+02  0.51100000000E-03 0. -1.
         11   -1    0    0    0    0 -0.00000000000E+00 -0.00000000000E+00 -0.45593999997E+02  0.45594000000E+02  0.51100000000E-03 0.  1.
         23    2    1    2    0    0  0.00000000000E+00 -0.55511151231E-16  0.71054273576E-14  0.91188000000E+02  0.91188000000E+02 0.  0.
    9900012    2    3    3    0    0 -0.17752809332E+02 -0.42451154685E+00 -0.32255789090E+02  0.54367104043E+02  0.40000045287E+02 0.  0.
         12    1    3    3    0    0  0.17752809332E+02  0.42451154685E+00  0.32255789090E+02  0.36820895957E+02  0.00000000000E+00 0. -1.
         11    1    4    4    0    0 -0.14988343171E+02  0.37552143506E+01 -0.14816197002E+02  0.21407282866E+02  0.51100000000E-03 0. -1.
        -11    1    4    4    0    0 -0.10630920771E+01 -0.72187873339E+01 -0.24242705342E+02  0.25316986746E+02  0.51100000000E-03 0.  1.
         12    1    4    4    0    0 -0.17013740842E+01  0.30390614364E+01  0.68031132546E+01  0.76428344313E+01  0.00000000000E+00 0. -1.
</event>
<event>
 8    1  0.1262344E-006  0.9118800E+02  0.7816164E-02  0.1184000E+00
        -11   -1    0    0    0    0  0.00000000000E+00  0.00000000000E+00  0.45593999997E+02  0.45594000000E+02  0.51100000000E-03 0.  1.
         11   -1    0    0    0    0 -0.00000000000E+00 -0.00000000000E+00 -0.45593999997E+02  0.45594000000E+02  0.51100000000E-03 0. -1.
         23    2    1    2    0    0 -0.88817841970E-15 -0.17763568394E-14  0.71054273576E-14  0.91188000000E+02  0.91188000000E+02 0.  0.
    9900012    2    3    3    0    0  0.67756363818E+01 -0.10818952100E+02 -0.34537229842E+02  0.54367092650E+02  0.40000019315E+02 0.  0.
        -12    1    3    3    0    0 -0.67756363818E+01  0.10818952100E+02  0.34537229842E+02  0.36820907350E+02  0.00000000000E+00 0.  1.
         11    1    4    4    0    0 -0.95876128901E+01 -0.78165813795E+01 -0.17909104352E+02  0.21765966194E+02  0.51100000000E-03 0. -1.
        -11    1    4    4    0    0  0.13014851518E+02  0.77641951773E+01 -0.14792391603E+02  0.21177439326E+02  0.51100000000E-03 0.  1.
        -12    1    4    4    0    0  0.33483977537E+01 -0.10766565898E+02 -0.18357338863E+01  0.11423687131E+02  0.00000000000E+00 0.  1.
</event>
<event>
 8    1  0.1262344E-006  0.9118800E+02  0.7816164E-02  0.1184000E+00
        -11   -1    0    0    0    0  0.00000000000E+00  0.00000000000E+00  0.45593999997E+02  0.45594000000E+02  0.51100000000E-03 0. -1.
         11   -1    0    0    0    0 -0.00000000000E+00 -0.00000000000E+00 -0.45593999997E+02  0.45594000000E+02  0.51100000000E-03 0.  1.
         23    2    1    2    0    0  0.00000000000E+00  0.17763568394E-14  0.00000000000E+00  0.91188000000E+02  0.91188000000E+02 0.  0.
    9900012    2    3    3    0    0 -0.22863228054E+02 -0.14688764095E+02 -0.24845381071E+02  0.54367082735E+02  0.39999996710E+02 0.  0.
         12    1    3    3    0    0  0.22863228054E+02  0.14688764095E+02  0.24845381071E+02  0.36820917265E+02  0.00000000000E+00 0. -1.
         11    1    4    4    0    0 -0.42218928283E+01 -0.20520217499E+02 -0.14447768291E+02  0.25448805750E+02  0.51100000000E-03 0. -1.
        -11    1    4    4    0    0 -0.76786591809E+01 -0.58518577691E+01 -0.83545009340E+01  0.12767291501E+02  0.51100000000E-03 0.  1.
         12    1    4    4    0    0 -0.10962676045E+02  0.11683311174E+02 -0.20431118466E+01  0.16150985483E+02  0.00000000000E+00 0. -1.
</event>
<event>
 8    1  0.1262344E-006  0.9118800E+02  0.7816164E-02  0.1184000E+00
        -11   -1    0    0    0    0  0.00000000000E+00  0.00000000000E+00  0.45593999997E+02  0.45594000000E+02  0.51100000000E-03 0. -1.
         11   -1    0    0    0    0 -0.00000000000E+00 -0.00000000000E+00 -0.45593999997E+02  0.45594000000E+02  0.51100000000E-03 0.  1.
         23    2    1    2    0    0  0.44408920985E-15 -0.53290705182E-14  0.00000000000E+00  0.91188000000E+02  0.91188000000E+02 0.  0.
    9900012    2    3    3    0    0 -0.13540251747E+01  0.15370526133E+02  0.33431926750E+02  0.54367079533E+02  0.39999989412E+02 0.  0.
        -12    1    3    3    0    0  0.13540251747E+01 -0.15370526133E+02 -0.33431926750E+02  0.36820920467E+02  0.00000000000E+00 0.  1.
         11    1    4    4    0    0 -0.92994940338E+01  0.39382218319E+01  0.14725744331E+02  0.17856027746E+02  0.51100000000E-03 0. -1.
        -11    1    4    4    0    0 -0.47214304481E+01 -0.99020686343E+00 -0.49692000013E+01  0.69257031429E+01  0.51100000000E-03 0.  1.
        -12    1    4    4    0    0  0.12666899307E+02  0.12422511164E+02  0.23675382420E+02  0.29585348645E+02  0.00000000000E+00 0.  1.
</event>
<event>
 8    1  0.1262344E-006  0.9118800E+02  0.7816164E-02  0.1184000E+00
        -11   -1    0    0    0    0  0.00000000000E+00  0.00000000000E+00  0.45593999997E+02  0.45594000000E+02  0.51100000000E-03 0.  1.
         11   -1    0    0    0    0 -0.00000000000E+00 -0.00000000000E+00 -0.45593999997E+02  0.45594000000E+02  0.51100000000E-03 0. -1.
         23    2    1    2    0    0  0.00000000000E+00  0.35527136788E-14 -0.17763568394E-14  0.91188000000E+02  0.91188000000E+02 0.  0.
    9900012    2    3    3    0    0  0.17404010862E+02  0.30391653076E+02 -0.11367839488E+02  0.54367082773E+02  0.39999996798E+02 0.  0.
        -12    1    3    3    0    0 -0.17404010862E+02 -0.30391653076E+02  0.11367839488E+02  0.36820917227E+02  0.00000000000E+00 0.  1.
         11    1    4    4    0    0  0.10531248256E+02  0.14545379705E+02 -0.94749658437E+01  0.20303946380E+02  0.51100000000E-03 0. -1.
        -11    1    4    4    0    0 -0.32167938008E+01  0.66899118746E+01 -0.13993536111E+02  0.15840509347E+02  0.51100000000E-03 0.  1.
        -12    1    4    4    0    0  0.10089556407E+02  0.91563614963E+01  0.12100662466E+02  0.18222627046E+02  0.00000000000E+00 0.  1.
</event>
<event>
 8    1  0.1262344E-006  0.9118800E+02  0.7816164E-02  0.1184000E+00
        -11   -1    0    0    0    0  0.00000000000E+00  0.00000000000E+00  0.45593999997E+02  0.45594000000E+02  0.51100000000E-03 0.  1.
         11   -1    0    0    0    0 -0.00000000000E+00 -0.00000000000E+00 -0.45593999997E+02  0.45594000000E+02  0.51100000000E-03 0. -1.
         23    2    1    2    0    0  0.35527136788E-14 -0.88817841970E-15  0.00000000000E+00  0.91188000000E+02  0.91188000000E+02 0.  0.
    9900012    2    3    3    0    0  0.23851982109E+02  0.52489968556E+01  0.27555617580E+02  0.54367067384E+02  0.39999961715E+02 0.  0.
         12    1    3    3    0    0 -0.23851982109E+02 -0.52489968556E+01 -0.27555617580E+02  0.36820932616E+02  0.00000000000E+00 0. -1.
         11    1    4    4    0    0 -0.14947179268E+01  0.54430448785E+01  0.57099249412E+01  0.80289577359E+01  0.51100000000E-03 0. -1.
        -11    1    4    4    0    0 -0.30342668941E+01 -0.78898186013E+01  0.13223068216E+02  0.15694124584E+02  0.51100000000E-03 0.  1.
         12    1    4    4    0    0  0.28380966930E+02  0.76957705783E+01  0.86226244228E+01  0.30643985064E+02  0.00000000000E+00 0. -1.
</event>
<event>
 8    1  0.1262344E-006  0.9118800E+02  0.7816164E-02  0.1184000E+00
        -11   -1    0    0    0    0  0.00000000000E+00  0.00000000000E+00  0.45593999997E+02  0.45594000000E+02  0.51100000000E-03 0.  1.
         11   -1    0    0    0    0 -0.00000000000E+00 -0.00000000000E+00 -0.45593999997E+02  0.45594000000E+02  0.51100000000E-03 0. -1.
         23    2    1    2    0    0  0.00000000000E+00  0.44408920985E-15 -0.88817841970E-15  0.91188000000E+02  0.91188000000E+02 0.  0.
    9900012    2    3    3    0    0 -0.36609916263E+02  0.33760605374E+01 -0.20241168486E+01  0.54367071134E+02  0.39999970263E+02 0.  0.
        -12    1    3    3    0    0  0.36609916263E+02 -0.33760605374E+01  0.20241168486E+01  0.36820928866E+02  0.00000000000E+00 0.  1.
         11    1    4    4    0    0 -0.34026181880E+01  0.90467741114E+01 -0.62419075648E+01  0.11505796047E+02  0.51100000000E-03 0. -1.
        -11    1    4    4    0    0 -0.42465745428E+01 -0.12223064566E+02  0.66552223922E+00  0.12956836915E+02  0.51100000000E-03 0.  1.
        -12    1    4    4    0    0 -0.28960723533E+02  0.65523509920E+01  0.35522684769E+01  0.29904438172E+02  0.00000000000E+00 0.  1.
</event>
<event>
 8    1  0.1262344E-006  0.9118800E+02  0.7816164E-02  0.1184000E+00
        -11   -1    0    0    0    0  0.00000000000E+00  0.00000000000E+00  0.45593999997E+02  0.45594000000E+02  0.51100000000E-03 0.  1.
         11   -1    0    0    0    0 -0.00000000000E+00 -0.00000000000E+00 -0.45593999997E+02  0.45594000000E+02  0.51100000000E-03 0. -1.
         23    2    1    2    0    0  0.00000000000E+00  0.00000000000E+00  0.00000000000E+00  0.91188000000E+02  0.91188000000E+02 0.  0.
    9900012    2    3    3    0    0 -0.73014640101E+01 -0.21122138083E+01 -0.36027866766E+02  0.54367081929E+02  0.39999994874E+02 0.  0.
        -12    1    3    3    0    0  0.73014640101E+01  0.21122138083E+01  0.36027866766E+02  0.36820918071E+02  0.00000000000E+00 0.  1.
         11    1    4    4    0    0  0.77305101033E+00  0.10412307474E+01 -0.40566315382E+01  0.42588764988E+01  0.51100000000E-03 0. -1.
        -11    1    4    4    0    0 -0.83052965542E+01 -0.20031959610E+02 -0.18730771656E+02  0.28654827931E+02  0.51100000000E-03 0.  1.
        -12    1    4    4    0    0  0.23078153381E+00  0.16878515054E+02 -0.13240463572E+02  0.21453377499E+02  0.00000000000E+00 0.  1.
</event>
<event>
 8    1  0.1262344E-006  0.9118800E+02  0.7816164E-02  0.1184000E+00
        -11   -1    0    0    0    0  0.00000000000E+00  0.00000000000E+00  0.45593999997E+02  0.45594000000E+02  0.51100000000E-03 0.  1.
         11   -1    0    0    0    0 -0.00000000000E+00 -0.00000000000E+00 -0.45593999997E+02  0.45594000000E+02  0.51100000000E-03 0. -1.
         23    2    1    2    0    0 -0.10658141036E-13  0.00000000000E+00  0.00000000000E+00  0.91188000000E+02  0.91188000000E+02 0.  0.
    9900012    2    3    3    0    0 -0.24686054905E+02 -0.25774656433E+02 -0.90579031975E+01  0.54367084322E+02  0.40000000329E+02 0.  0.
         12    1    3    3    0    0  0.24686054905E+02  0.25774656433E+02  0.90579031975E+01  0.36820915678E+02  0.00000000000E+00 0. -1.
         11    1    4    4    0    0 -0.32347397632E+01 -0.17022811853E+02 -0.18195205333E+00  0.17328380523E+02  0.51100000000E-03 0. -1.
        -11    1    4    4    0    0  0.41902108300E+01  0.34813068234E+01  0.30311615988E+01  0.62342044318E+01  0.51100000000E-03 0.  1.
        -12    1    4    4    0    0 -0.25641525972E+02 -0.12233151403E+02 -0.11907112743E+02  0.30804499368E+02  0.00000000000E+00 0.  1.
</event>
<event>
 8    1  0.1262344E-006  0.9118800E+02  0.7816164E-02  0.1184000E+00
        -11   -1    0    0    0    0  0.00000000000E+00  0.00000000000E+00  0.45593999997E+02  0.45594000000E+02  0.51100000000E-03 0.  1.
         11   -1    0    0    0    0 -0.00000000000E+00 -0.00000000000E+00 -0.45593999997E+02  0.45594000000E+02  0.51100000000E-03 0. -1.
         23    2    1    2    0    0 -0.44408920985E-15  0.00000000000E+00  0.00000000000E+00  0.91188000000E+02  0.91188000000E+02 0.  0.
    9900012    2    3    3    0    0 -0.23153509516E+01 -0.93619827314E+01  0.35535509063E+02  0.54367082371E+02  0.39999995880E+02 0.  0.
         12    1    3    3    0    0  0.23153509516E+01  0.93619827314E+01 -0.35535509063E+02  0.36820917629E+02  0.00000000000E+00 0. -1.
         11    1    4    4    0    0 -0.38763297570E+01 -0.70003677460E+01 -0.40217993607E+01  0.89557775387E+01  0.51100000000E-03 0. -1.
        -11    1    4    4    0    0  0.14035422657E+01  0.56613443145E+01  0.86605432967E+00  0.58966770899E+01  0.51100000000E-03 0.  1.
         12    1    4    4    0    0  0.15743653971E+00 -0.80229592999E+01  0.38691254094E+02  0.39514627742E+02  0.00000000000E+00 0. -1.
</event>
<event>
 8    1  0.1262344E-006  0.9118800E+02  0.7816164E-02  0.1184000E+00
        -11   -1    0    0    0    0  0.00000000000E+00  0.00000000000E+00  0.45593999997E+02  0.45594000000E+02  0.51100000000E-03 0.  1.
         11   -1    0    0    0    0 -0.00000000000E+00 -0.00000000000E+00 -0.45593999997E+02  0.45594000000E+02  0.51100000000E-03 0. -1.
         23    2    1    2    0    0  0.00000000000E+00  0.00000000000E+00 -0.44408920985E-15  0.91188000000E+02  0.91188000000E+02 0.  0.
    9900012    2    3    3    0    0  0.20586822207E+02 -0.30428125257E+02  0.24678419270E+01  0.54367105131E+02  0.40000047766E+02 0.  0.
         12    1    3    3    0    0 -0.20586822207E+02  0.30428125257E+02 -0.24678419270E+01  0.36820894869E+02  0.00000000000E+00 0. -1.
         11    1    4    4    0    0 -0.22418657364E+01  0.12657489920E+01 -0.14710811306E+01  0.29651580809E+01  0.51100000000E-03 0. -1.
        -11    1    4    4    0    0  0.31066760971E+02 -0.20005843613E+02  0.29167028108E+01  0.37065948948E+02  0.51100000000E-03 0.  1.
        -12    1    4    4    0    0 -0.82380730271E+01 -0.11688030635E+02  0.10222202469E+01  0.14335998102E+02  0.00000000000E+00 0.  1.
</event>
<event>
 8    1  0.1262344E-006  0.9118800E+02  0.7816164E-02  0.1184000E+00
        -11   -1    0    0    0    0  0.00000000000E+00  0.00000000000E+00  0.45593999997E+02  0.45594000000E+02  0.51100000000E-03 0.  1.
         11   -1    0    0    0    0 -0.00000000000E+00 -0.00000000000E+00 -0.45593999997E+02  0.45594000000E+02  0.51100000000E-03 0. -1.
         23    2    1    2    0    0 -0.35527136788E-14 -0.35527136788E-14 -0.10658141036E-13  0.91188000000E+02  0.91188000000E+02 0.  0.
    9900012    2    3    3    0    0  0.17668034360E+02  0.10924732993E+02  0.30401887592E+02  0.54367027739E+02  0.39999871336E+02 0.  0.
         12    1    3    3    0    0 -0.17668034360E+02 -0.10924732993E+02 -0.30401887592E+02  0.36820972261E+02  0.00000000000E+00 0. -1.
         11    1    4    4    0    0 -0.54340291756E+01 -0.72813062337E+01  0.11449252178E+02  0.14616137289E+02  0.51100000000E-03 0. -1.
        -11    1    4    4    0    0  0.11884382181E+02  0.16343298454E+02  0.19873328767E+02  0.28342391232E+02  0.51100000000E-03 0.  1.
         12    1    4    4    0    0  0.11217681355E+02  0.18627407721E+01 -0.92069335358E+00  0.11408499218E+02  0.00000000000E+00 0. -1.
</event>
<event>
 8    1  0.1262344E-006  0.9118800E+02  0.7816164E-02  0.1184000E+00
        -11   -1    0    0    0    0  0.00000000000E+00  0.00000000000E+00  0.45593999997E+02  0.45594000000E+02  0.51100000000E-03 0. -1.
         11   -1    0    0    0    0 -0.00000000000E+00 -0.00000000000E+00 -0.45593999997E+02  0.45594000000E+02  0.51100000000E-03 0.  1.
         23    2    1    2    0    0 -0.22204460493E-15 -0.17763568394E-14  0.00000000000E+00  0.91188000000E+02  0.91188000000E+02 0.  0.
    9900012    2    3    3    0    0 -0.14821236926E+01  0.11456706479E+02 -0.34961799667E+02  0.54367078638E+02  0.39999987372E+02 0.  0.
         12    1    3    3    0    0  0.14821236926E+01 -0.11456706479E+02  0.34961799667E+02  0.36820921362E+02  0.00000000000E+00 0. -1.
         11    1    4    4    0    0  0.15435898788E+02  0.37301367291E+01 -0.77078102379E+01  0.17651946927E+02  0.51100000000E-03 0.  1.
        -11    1    4    4    0    0 -0.14185487410E+02 -0.14641330760E+01 -0.11713634321E+02  0.18454835897E+02  0.51100000000E-03 0. -1.
         12    1    4    4    0    0 -0.27325350701E+01  0.91907028258E+01 -0.15540355108E+02  0.18260295814E+02  0.00000000000E+00 0. -1.
</event>
<event>
 8    1  0.1262344E-006  0.9118800E+02  0.7816164E-02  0.1184000E+00
        -11   -1    0    0    0    0  0.00000000000E+00  0.00000000000E+00  0.45593999997E+02  0.45594000000E+02  0.51100000000E-03 0. -1.
         11   -1    0    0    0    0 -0.00000000000E+00 -0.00000000000E+00 -0.45593999997E+02  0.45594000000E+02  0.51100000000E-03 0.  1.
         23    2    1    2    0    0  0.00000000000E+00  0.71054273576E-14  0.17763568394E-14  0.91188000000E+02  0.91188000000E+02 0.  0.
    9900012    2    3    3    0    0 -0.95697912654E+01  0.32678347769E+02  0.14011636507E+02  0.54367064713E+02  0.39999955627E+02 0.  0.
        -12    1    3    3    0    0  0.95697912654E+01 -0.32678347769E+02 -0.14011636507E+02  0.36820935287E+02  0.00000000000E+00 0.  1.
         11    1    4    4    0    0 -0.14465307380E+01  0.50184155484E+01  0.89163568822E+01  0.10333361801E+02  0.51100000000E-03 0. -1.
        -11    1    4    4    0    0  0.10538629812E+02  0.78655644696E+01 -0.62479835723E+01  0.14559090690E+02  0.51100000000E-03 0.  1.
         12    1    4    4    0    0 -0.18661890339E+02  0.19794367751E+02  0.11343263197E+02  0.29474612223E+02  0.00000000000E+00 0. -1.
</event>
<event>
 8    1  0.1262344E-006  0.9118800E+02  0.7816164E-02  0.1184000E+00
        -11   -1    0    0    0    0  0.00000000000E+00  0.00000000000E+00  0.45593999997E+02  0.45594000000E+02  0.51100000000E-03 0.  1.
         11   -1    0    0    0    0 -0.00000000000E+00 -0.00000000000E+00 -0.45593999997E+02  0.45594000000E+02  0.51100000000E-03 0. -1.
         23    2    1    2    0    0  0.00000000000E+00 -0.71054273576E-14 -0.49960036108E-15  0.91188000000E+02  0.91188000000E+02 0.  0.
    9900012    2    3    3    0    0  0.11024337426E+02  0.35131777294E+02 -0.10219806096E+00  0.54366970194E+02  0.39999740150E+02 0.  0.
         12    1    3    3    0    0 -0.11024337426E+02 -0.35131777294E+02  0.10219806096E+00  0.36821029806E+02  0.00000000000E+00 0. -1.
         11    1    4    4    0    0 -0.24840842800E+01 -0.14430196397E+01 -0.11284908340E+02  0.11644833055E+02  0.51100000000E-03 0. -1.
        -11    1    4    4    0    0  0.15013399486E+02  0.36446919882E+02  0.11712821676E+02  0.41121409568E+02  0.51100000000E-03 0.  1.
        -12    1    4    4    0    0 -0.15049777807E+01  0.12787705232E+00 -0.53011139722E+00  0.16007275703E+01  0.00000000000E+00 0.  1.
</event>
<event>
 8    1  0.1262344E-006  0.9118800E+02  0.7816164E-02  0.1184000E+00
        -11   -1    0    0    0    0  0.00000000000E+00  0.00000000000E+00  0.45593999997E+02  0.45594000000E+02  0.51100000000E-03 0.  1.
         11   -1    0    0    0    0 -0.00000000000E+00 -0.00000000000E+00 -0.45593999997E+02  0.45594000000E+02  0.51100000000E-03 0. -1.
         23    2    1    2    0    0  0.00000000000E+00  0.00000000000E+00  0.00000000000E+00  0.91188000000E+02  0.91188000000E+02 0.  0.
    9900012    2    3    3    0    0 -0.26581681065E+01  0.89092030345E+01  0.35627813834E+02  0.54367070151E+02  0.39999968023E+02 0.  0.
         12    1    3    3    0    0  0.26581681065E+01 -0.89092030345E+01 -0.35627813834E+02  0.36820929849E+02  0.00000000000E+00 0. -1.
         11    1    4    4    0    0 -0.15214882612E+02  0.16600131856E+01  0.11997313030E+02  0.19446948780E+02  0.51100000000E-03 0. -1.
        -11    1    4    4    0    0 -0.16856435950E+01 -0.50930748796E+01  0.10983891627E+02  0.12224020680E+02  0.51100000000E-03 0.  1.
         12    1    4    4    0    0  0.14242358100E+02  0.12342264729E+02  0.12646609177E+02  0.22696100690E+02  0.00000000000E+00 0. -1.
</event>
<event>
 8    1  0.1262344E-006  0.9118800E+02  0.7816164E-02  0.1184000E+00
        -11   -1    0    0    0    0  0.00000000000E+00  0.00000000000E+00  0.45593999997E+02  0.45594000000E+02  0.51100000000E-03 0.  1.
         11   -1    0    0    0    0 -0.00000000000E+00 -0.00000000000E+00 -0.45593999997E+02  0.45594000000E+02  0.51100000000E-03 0. -1.
         23    2    1    2    0    0  0.00000000000E+00  0.88817841970E-15  0.00000000000E+00  0.91188000000E+02  0.91188000000E+02 0.  0.
    9900012    2    3    3    0    0 -0.35566920794E+02 -0.48215155563E+01  0.82174331402E+01  0.54367094601E+02  0.40000023762E+02 0.  0.
        -12    1    3    3    0    0  0.35566920794E+02  0.48215155563E+01 -0.82174331402E+01  0.36820905399E+02  0.00000000000E+00 0.  1.
         11    1    4    4    0    0  0.27409533882E+01  0.67271100102E+01  0.68648981449E+01  0.99946816541E+01  0.51100000000E-03 0. -1.
        -11    1    4    4    0    0 -0.15373208432E+01 -0.66004134117E+01 -0.21386484647E+01  0.71065202523E+01  0.51100000000E-03 0.  1.
         12    1    4    4    0    0 -0.36770553339E+02 -0.49482121549E+01  0.34911834601E+01  0.37265892694E+02  0.00000000000E+00 0. -1.
</event>
<event>
 8    1  0.1262344E-006  0.9118800E+02  0.7816164E-02  0.1184000E+00
        -11   -1    0    0    0    0  0.00000000000E+00  0.00000000000E+00  0.45593999997E+02  0.45594000000E+02  0.51100000000E-03 0. -1.
         11   -1    0    0    0    0 -0.00000000000E+00 -0.00000000000E+00 -0.45593999997E+02  0.45594000000E+02  0.51100000000E-03 0.  1.
         23    2    1    2    0    0 -0.88817841970E-15 -0.17763568394E-14  0.71054273576E-14  0.91188000000E+02  0.91188000000E+02 0.  0.
    9900012    2    3    3    0    0 -0.61498058214E+01 -0.10467946675E+02  0.34761794733E+02  0.54367076705E+02  0.39999982965E+02 0.  0.
        -12    1    3    3    0    0  0.61498058214E+01  0.10467946675E+02 -0.34761794733E+02  0.36820923295E+02  0.00000000000E+00 0.  1.
         11    1    4    4    0    0 -0.10109363655E+02 -0.22842276264E+02  0.13541328505E+02  0.28413665663E+02  0.51100000000E-03 0.  1.
        -11    1    4    4    0    0  0.59984096034E+01  0.96479567723E+01  0.14506083991E+02  0.18425266909E+02  0.51100000000E-03 0. -1.
        -12    1    4    4    0    0 -0.20388517702E+01  0.27263728167E+01  0.67143822363E+01  0.75281441333E+01  0.00000000000E+00 0.  1.
</event>
<event>
 8    1  0.1262344E-006  0.9118800E+02  0.7816164E-02  0.1184000E+00
        -11   -1    0    0    0    0  0.00000000000E+00  0.00000000000E+00  0.45593999997E+02  0.45594000000E+02  0.51100000000E-03 0.  1.
         11   -1    0    0    0    0 -0.00000000000E+00 -0.00000000000E+00 -0.45593999997E+02  0.45594000000E+02  0.51100000000E-03 0. -1.
         23    2    1    2    0    0  0.00000000000E+00 -0.88817841970E-15  0.35527136788E-14  0.91188000000E+02  0.91188000000E+02 0.  0.
    9900012    2    3    3    0    0  0.22227528209E+02 -0.50415427005E+01  0.28918777356E+02  0.54367138429E+02  0.40000123676E+02 0.  0.
         12    1    3    3    0    0 -0.22227528209E+02  0.50415427005E+01 -0.28918777356E+02  0.36820861571E+02  0.00000000000E+00 0. -1.
         11    1    4    4    0    0  0.14441222274E+02  0.12494577428E+02  0.25579218953E+02  0.31921149860E+02  0.51100000000E-03 0.  1.
        -11    1    4    4    0    0  0.64236167583E+00 -0.14801648775E+01 -0.32893288111E+01  0.36637686712E+01  0.51100000000E-03 0. -1.
         12    1    4    4    0    0  0.71439442586E+01 -0.16055955251E+02  0.66288872142E+01  0.18782219898E+02  0.00000000000E+00 0. -1.
</event>
<event>
 8    1  0.1262344E-006  0.9118800E+02  0.7816164E-02  0.1184000E+00
        -11   -1    0    0    0    0  0.00000000000E+00  0.00000000000E+00  0.45593999997E+02  0.45594000000E+02  0.51100000000E-03 0.  1.
         11   -1    0    0    0    0 -0.00000000000E+00 -0.00000000000E+00 -0.45593999997E+02  0.45594000000E+02  0.51100000000E-03 0. -1.
         23    2    1    2    0    0 -0.88817841970E-15  0.88817841970E-15  0.00000000000E+00  0.91188000000E+02  0.91188000000E+02 0.  0.
    9900012    2    3    3    0    0 -0.21322185944E+01  0.31565231991E+01 -0.36623353232E+02  0.54367082076E+02  0.39999995209E+02 0.  0.
        -12    1    3    3    0    0  0.21322185944E+01 -0.31565231991E+01  0.36623353232E+02  0.36820917924E+02  0.00000000000E+00 0.  1.
         11    1    4    4    0    0  0.84859124352E+01  0.29825478001E+01 -0.13910986216E+02  0.16565682570E+02  0.51100000000E-03 0. -1.
        -11    1    4    4    0    0  0.24003824377E+01 -0.12057143006E+02 -0.80893558675E+01  0.14716460577E+02  0.51100000000E-03 0.  1.
         12    1    4    4    0    0 -0.13018513467E+02  0.12231118405E+02 -0.14623011148E+02  0.23084938929E+02  0.00000000000E+00 0. -1.
</event>
<event>
 8    1  0.1262344E-006  0.9118800E+02  0.7816164E-02  0.1184000E+00
        -11   -1    0    0    0    0  0.00000000000E+00  0.00000000000E+00  0.45593999997E+02  0.45594000000E+02  0.51100000000E-03 0. -1.
         11   -1    0    0    0    0 -0.00000000000E+00 -0.00000000000E+00 -0.45593999997E+02  0.45594000000E+02  0.51100000000E-03 0.  1.
         23    2    1    2    0    0  0.17763568394E-14  0.88817841970E-15  0.00000000000E+00  0.91188000000E+02  0.91188000000E+02 0.  0.
    9900012    2    3    3    0    0  0.25241177347E+01  0.64462850714E+01  0.36164264801E+02  0.54367084610E+02  0.40000000986E+02 0.  0.
        -12    1    3    3    0    0 -0.25241177347E+01 -0.64462850714E+01 -0.36164264801E+02  0.36820915390E+02  0.00000000000E+00 0.  1.
         11    1    4    4    0    0  0.13059811766E+01  0.33709831230E+01 -0.27070415332E+01  0.45163246311E+01  0.51100000000E-03 0.  1.
        -11    1    4    4    0    0  0.13169206943E+02 -0.74049371303E+01  0.16082449242E+02  0.22065952943E+02  0.51100000000E-03 0. -1.
         12    1    4    4    0    0 -0.11951070385E+02  0.10480239079E+02  0.22788857092E+02  0.27784807036E+02  0.00000000000E+00 0. -1.
</event>
<event>
 8    1  0.1262344E-006  0.9118800E+02  0.7816164E-02  0.1184000E+00
        -11   -1    0    0    0    0  0.00000000000E+00  0.00000000000E+00  0.45593999997E+02  0.45594000000E+02  0.51100000000E-03 0. -1.
         11   -1    0    0    0    0 -0.00000000000E+00 -0.00000000000E+00 -0.45593999997E+02  0.45594000000E+02  0.51100000000E-03 0.  1.
         23    2    1    2    0    0  0.00000000000E+00  0.71054273576E-14  0.00000000000E+00  0.91188000000E+02  0.91188000000E+02 0.  0.
    9900012    2    3    3    0    0 -0.70693018271E+01 -0.35540505409E+02 -0.65327941697E+01  0.54367082674E+02  0.39999996572E+02 0.  0.
        -12    1    3    3    0    0  0.70693018271E+01  0.35540505409E+02  0.65327941697E+01  0.36820917326E+02  0.00000000000E+00 0.  1.
         11    1    4    4    0    0 -0.11329634589E+02  0.20836802857E+01 -0.79246202328E+01  0.13982201170E+02  0.51100000000E-03 0. -1.
        -11    1    4    4    0    0  0.80116475790E+01 -0.23706906068E+02 -0.32676055756E+01  0.25236504091E+02  0.51100000000E-03 0.  1.
         12    1    4    4    0    0 -0.37513148170E+01 -0.13917279627E+02  0.46594316386E+01  0.15148377413E+02  0.00000000000E+00 0. -1.
</event>
<event>
 8    1  0.1262344E-006  0.9118800E+02  0.7816164E-02  0.1184000E+00
        -11   -1    0    0    0    0  0.00000000000E+00  0.00000000000E+00  0.45593999997E+02  0.45594000000E+02  0.51100000000E-03 0.  1.
         11   -1    0    0    0    0 -0.00000000000E+00 -0.00000000000E+00 -0.45593999997E+02  0.45594000000E+02  0.51100000000E-03 0. -1.
         23    2    1    2    0    0  0.00000000000E+00 -0.22204460493E-15  0.00000000000E+00  0.91188000000E+02  0.91188000000E+02 0.  0.
    9900012    2    3    3    0    0  0.36453135302E+02 -0.60268068086E+00 -0.51561380096E+01  0.54367081264E+02  0.39999993359E+02 0.  0.
         12    1    3    3    0    0 -0.36453135302E+02  0.60268068086E+00  0.51561380096E+01  0.36820918736E+02  0.00000000000E+00 0. -1.
         11    1    4    4    0    0  0.35173277252E+02 -0.24944267282E+01 -0.29649323223E+01  0.35386048399E+02  0.51100000000E-03 0. -1.
        -11    1    4    4    0    0  0.41955485538E+01  0.11145723587E+01 -0.98419093400E+01  0.10756768982E+02  0.51100000000E-03 0.  1.
        -12    1    4    4    0    0 -0.29156905033E+01  0.77717368858E+00  0.76507036527E+01  0.82242638841E+01  0.00000000000E+00 0.  1.
</event>
<event>
 8    1  0.1262344E-006  0.9118800E+02  0.7816164E-02  0.1184000E+00
        -11   -1    0    0    0    0  0.00000000000E+00  0.00000000000E+00  0.45593999997E+02  0.45594000000E+02  0.51100000000E-03 0. -1.
         11   -1    0    0    0    0 -0.00000000000E+00 -0.00000000000E+00 -0.45593999997E+02  0.45594000000E+02  0.51100000000E-03 0.  1.
         23    2    1    2    0    0  0.00000000000E+00  0.35527136788E-14  0.35527136788E-14  0.91188000000E+02  0.91188000000E+02 0.  0.
    9900012    2    3    3    0    0 -0.13269930922E+02  0.20772106687E+02 -0.27353390338E+02  0.54367089557E+02  0.40000012264E+02 0.  0.
         12    1    3    3    0    0  0.13269930922E+02 -0.20772106687E+02  0.27353390338E+02  0.36820910443E+02  0.00000000000E+00 0. -1.
         11    1    4    4    0    0  0.75013170304E+00  0.22312653519E+01 -0.54086742004E+01  0.58987286350E+01  0.51100000000E-03 0. -1.
        -11    1    4    4    0    0  0.11576058211E+02  0.45569405894E+01 -0.12922835436E+02  0.17937962738E+02  0.51100000000E-03 0.  1.
        -12    1    4    4    0    0 -0.25596120836E+02  0.13983900745E+02 -0.90218807013E+01  0.30530398184E+02  0.00000000000E+00 0.  1.
</event>
<event>
 8    1  0.1262344E-006  0.9118800E+02  0.7816164E-02  0.1184000E+00
        -11   -1    0    0    0    0  0.00000000000E+00  0.00000000000E+00  0.45593999997E+02  0.45594000000E+02  0.51100000000E-03 0.  1.
         11   -1    0    0    0    0 -0.00000000000E+00 -0.00000000000E+00 -0.45593999997E+02  0.45594000000E+02  0.51100000000E-03 0. -1.
         23    2    1    2    0    0 -0.88817841970E-15 -0.35527136788E-14  0.00000000000E+00  0.91188000000E+02  0.91188000000E+02 0.  0.
    9900012    2    3    3    0    0 -0.26648153189E+01 -0.21826418246E+02  0.29534513399E+02  0.54367064978E+02  0.39999956231E+02 0.  0.
         12    1    3    3    0    0  0.26648153189E+01  0.21826418246E+02 -0.29534513399E+02  0.36820935022E+02  0.00000000000E+00 0. -1.
         11    1    4    4    0    0 -0.99697301256E+01 -0.67609128137E+01 -0.32275197279E+00  0.12050295845E+02  0.51100000000E-03 0. -1.
        -11    1    4    4    0    0  0.10246353127E+02 -0.48328250354E+01  0.29569938379E+02  0.31665836578E+02  0.51100000000E-03 0.  1.
        -12    1    4    4    0    0 -0.29414383200E+01 -0.10232680397E+02  0.28732699304E+00  0.10650932555E+02  0.00000000000E+00 0.  1.
</event>
<event>
 8    1  0.1262344E-006  0.9118800E+02  0.7816164E-02  0.1184000E+00
        -11   -1    0    0    0    0  0.00000000000E+00  0.00000000000E+00  0.45593999997E+02  0.45594000000E+02  0.51100000000E-03 0. -1.
         11   -1    0    0    0    0 -0.00000000000E+00 -0.00000000000E+00 -0.45593999997E+02  0.45594000000E+02  0.51100000000E-03 0.  1.
         23    2    1    2    0    0  0.00000000000E+00 -0.17763568394E-14  0.35527136788E-14  0.91188000000E+02  0.91188000000E+02 0.  0.
    9900012    2    3    3    0    0 -0.24006655385E+02 -0.10721047394E+02  0.25778253444E+02  0.54367099541E+02  0.40000035024E+02 0.  0.
        -12    1    3    3    0    0  0.24006655385E+02  0.10721047394E+02 -0.25778253444E+02  0.36820900459E+02  0.00000000000E+00 0.  1.
         11    1    4    4    0    0 -0.18194619829E+02 -0.17696989724E+02  0.30532402722E+02  0.39704599888E+02  0.51100000000E-03 0. -1.
        -11    1    4    4    0    0 -0.28387182371E+00  0.95596611595E+00 -0.62709751080E+01  0.63497703497E+01  0.51100000000E-03 0.  1.
         12    1    4    4    0    0 -0.55281637319E+01  0.60199762142E+01  0.15168258295E+01  0.83127293029E+01  0.00000000000E+00 0. -1.
</event>
<event>
 8    1  0.1262344E-006  0.9118800E+02  0.7816164E-02  0.1184000E+00
        -11   -1    0    0    0    0  0.00000000000E+00  0.00000000000E+00  0.45593999997E+02  0.45594000000E+02  0.51100000000E-03 0. -1.
         11   -1    0    0    0    0 -0.00000000000E+00 -0.00000000000E+00 -0.45593999997E+02  0.45594000000E+02  0.51100000000E-03 0.  1.
         23    2    1    2    0    0  0.35527136788E-14  0.00000000000E+00  0.00000000000E+00  0.91188000000E+02  0.91188000000E+02 0.  0.
    9900012    2    3    3    0    0 -0.20942877352E+02  0.29615456530E+02  0.63324728471E+01  0.54367087605E+02  0.40000007813E+02 0.  0.
        -12    1    3    3    0    0  0.20942877352E+02 -0.29615456530E+02 -0.63324728471E+01  0.36820912395E+02  0.00000000000E+00 0.  1.
         11    1    4    4    0    0 -0.58535188042E+01  0.31700720748E+02  0.12753649162E+02  0.34667779645E+02  0.51100000000E-03 0. -1.
        -11    1    4    4    0    0 -0.76137976195E+01 -0.44719419352E+00  0.24241051502E+01  0.80028859093E+01  0.51100000000E-03 0.  1.
        -12    1    4    4    0    0 -0.74755609280E+01 -0.16380700244E+01 -0.88452814650E+01  0.11696422051E+02  0.00000000000E+00 0.  1.
</event>
<event>
 8    1  0.1262344E-006  0.9118800E+02  0.7816164E-02  0.1184000E+00
        -11   -1    0    0    0    0  0.00000000000E+00  0.00000000000E+00  0.45593999997E+02  0.45594000000E+02  0.51100000000E-03 0.  1.
         11   -1    0    0    0    0 -0.00000000000E+00 -0.00000000000E+00 -0.45593999997E+02  0.45594000000E+02  0.51100000000E-03 0. -1.
         23    2    1    2    0    0 -0.17763568394E-14  0.00000000000E+00  0.00000000000E+00  0.91188000000E+02  0.91188000000E+02 0.  0.
    9900012    2    3    3    0    0 -0.10413415284E+02  0.15039341267E+02  0.31955538610E+02  0.54367116639E+02  0.40000074002E+02 0.  0.
         12    1    3    3    0    0  0.10413415284E+02 -0.15039341267E+02 -0.31955538610E+02  0.36820883361E+02  0.00000000000E+00 0. -1.
         11    1    4    4    0    0 -0.15383863678E+01 -0.93655384945E+01  0.15211728665E+02  0.17929769467E+02  0.51100000000E-03 0. -1.
        -11    1    4    4    0    0 -0.81508570378E+01  0.60162476667E+00  0.19512019105E+01  0.84027145594E+01  0.51100000000E-03 0.  1.
        -12    1    4    4    0    0 -0.72417187795E+00  0.23803254995E+02  0.14792608034E+02  0.28034632612E+02  0.00000000000E+00 0.  1.
</event>
<event>
 8    1  0.1262344E-006  0.9118800E+02  0.7816164E-02  0.1184000E+00
        -11   -1    0    0    0    0  0.00000000000E+00  0.00000000000E+00  0.45593999997E+02  0.45594000000E+02  0.51100000000E-03 0.  1.
         11   -1    0    0    0    0 -0.00000000000E+00 -0.00000000000E+00 -0.45593999997E+02  0.45594000000E+02  0.51100000000E-03 0. -1.
         23    2    1    2    0    0 -0.71054273576E-14  0.71054273576E-14  0.00000000000E+00  0.91188000000E+02  0.91188000000E+02 0.  0.
    9900012    2    3    3    0    0 -0.27644223359E+02  0.21545306481E+02  0.11286143661E+02  0.54367077208E+02  0.39999984111E+02 0.  0.
         12    1    3    3    0    0  0.27644223359E+02 -0.21545306481E+02 -0.11286143661E+02  0.36820922792E+02  0.00000000000E+00 0. -1.
         11    1    4    4    0    0 -0.24347946761E+02 -0.52497701244E+01  0.19660109806E+01  0.24984951416E+02  0.51100000000E-03 0. -1.
        -11    1    4    4    0    0 -0.34962470562E+01  0.62311794446E+01  0.37837343064E+01  0.80850470815E+01  0.51100000000E-03 0.  1.
        -12    1    4    4    0    0  0.19997045791E+00  0.20563897161E+02  0.55363983737E+01  0.21297078710E+02  0.00000000000E+00 0.  1.
</event>
<event>
 8    1  0.1262344E-006  0.9118800E+02  0.7816164E-02  0.1184000E+00
        -11   -1    0    0    0    0  0.00000000000E+00  0.00000000000E+00  0.45593999997E+02  0.45594000000E+02  0.51100000000E-03 0. -1.
         11   -1    0    0    0    0 -0.00000000000E+00 -0.00000000000E+00 -0.45593999997E+02  0.45594000000E+02  0.51100000000E-03 0.  1.
         23    2    1    2    0    0  0.00000000000E+00  0.00000000000E+00  0.35527136788E-14  0.91188000000E+02  0.91188000000E+02 0.  0.
    9900012    2    3    3    0    0  0.13685771086E+02  0.15148100394E+02 -0.30643343240E+02  0.54367085282E+02  0.40000002517E+02 0.  0.
         12    1    3    3    0    0 -0.13685771086E+02 -0.15148100394E+02  0.30643343240E+02  0.36820914718E+02  0.00000000000E+00 0. -1.
         11    1    4    4    0    0  0.63211941427E+01  0.89983240232E+01  0.33782660611E+01  0.11503912919E+02  0.51100000000E-03 0. -1.
        -11    1    4    4    0    0 -0.68137964949E+01 -0.46345234395E+01 -0.11517889703E+02  0.14162217823E+02  0.51100000000E-03 0.  1.
         12    1    4    4    0    0  0.14178373439E+02  0.10784299810E+02 -0.22503719598E+02  0.28700954540E+02  0.00000000000E+00 0. -1.
</event>
<event>
 8    1  0.1262344E-006  0.9118800E+02  0.7816164E-02  0.1184000E+00
        -11   -1    0    0    0    0  0.00000000000E+00  0.00000000000E+00  0.45593999997E+02  0.45594000000E+02  0.51100000000E-03 0.  1.
         11   -1    0    0    0    0 -0.00000000000E+00 -0.00000000000E+00 -0.45593999997E+02  0.45594000000E+02  0.51100000000E-03 0. -1.
         23    2    1    2    0    0  0.00000000000E+00  0.35527136788E-14  0.35527136788E-14  0.91188000000E+02  0.91188000000E+02 0.  0.
    9900012    2    3    3    0    0 -0.44511007635E+01 -0.25270119469E+02 -0.26408114557E+02  0.54367085421E+02  0.40000002834E+02 0.  0.
        -12    1    3    3    0    0  0.44511007635E+01  0.25270119469E+02  0.26408114557E+02  0.36820914579E+02  0.00000000000E+00 0.  1.
         11    1    4    4    0    0 -0.26978506291E+01 -0.96694318532E-01 -0.29834778458E+01  0.40235417390E+01  0.51100000000E-03 0. -1.
        -11    1    4    4    0    0 -0.11308037825E+02 -0.17199477416E+02 -0.29911295581E+02  0.36309493889E+02  0.51100000000E-03 0.  1.
        -12    1    4    4    0    0  0.95547876910E+01 -0.79739477348E+01  0.64866588700E+01  0.14034049793E+02  0.00000000000E+00 0.  1.
</event>
<event>
 8    1  0.1262344E-006  0.9118800E+02  0.7816164E-02  0.1184000E+00
        -11   -1    0    0    0    0  0.00000000000E+00  0.00000000000E+00  0.45593999997E+02  0.45594000000E+02  0.51100000000E-03 0. -1.
         11   -1    0    0    0    0 -0.00000000000E+00 -0.00000000000E+00 -0.45593999997E+02  0.45594000000E+02  0.51100000000E-03 0.  1.
         23    2    1    2    0    0 -0.88817841970E-15  0.00000000000E+00  0.35527136788E-14  0.91188000000E+02  0.91188000000E+02 0.  0.
    9900012    2    3    3    0    0  0.11641629908E+01 -0.31378865829E+02 -0.19229802637E+02  0.54367166146E+02  0.40000186864E+02 0.  0.
        -12    1    3    3    0    0 -0.11641629908E+01  0.31378865829E+02  0.19229802637E+02  0.36820833854E+02  0.00000000000E+00 0.  1.
         11    1    4    4    0    0  0.12016985574E+02 -0.17995141192E+02 -0.16069599062E+02  0.26953015844E+02  0.51100000000E-03 0. -1.
        -11    1    4    4    0    0 -0.12326779346E+02 -0.99784631801E+01 -0.10617058219E+02  0.19085102619E+02  0.51100000000E-03 0.  1.
        -12    1    4    4    0    0  0.14739567624E+01 -0.34052614568E+01  0.74568546443E+01  0.83290476834E+01  0.00000000000E+00 0.  1.
</event>
<event>
 8    1  0.1262344E-006  0.9118800E+02  0.7816164E-02  0.1184000E+00
        -11   -1    0    0    0    0  0.00000000000E+00  0.00000000000E+00  0.45593999997E+02  0.45594000000E+02  0.51100000000E-03 0. -1.
         11   -1    0    0    0    0 -0.00000000000E+00 -0.00000000000E+00 -0.45593999997E+02  0.45594000000E+02  0.51100000000E-03 0.  1.
         23    2    1    2    0    0 -0.88817841970E-15 -0.35527136788E-14  0.00000000000E+00  0.91188000000E+02  0.91188000000E+02 0.  0.
    9900012    2    3    3    0    0  0.54432820055E+01 -0.27568022506E+02 -0.23794216165E+02  0.54366947505E+02  0.39999688427E+02 0.  0.
         12    1    3    3    0    0 -0.54432820055E+01  0.27568022506E+02  0.23794216165E+02  0.36821052495E+02  0.00000000000E+00 0. -1.
         11    1    4    4    0    0 -0.66372719380E+01 -0.99193581430E+01  0.16309422966E+01  0.12046037431E+02  0.51100000000E-03 0. -1.
        -11    1    4    4    0    0  0.74104766876E+00 -0.17281422965E+02 -0.25692171734E+02  0.30972316995E+02  0.51100000000E-03 0.  1.
        -12    1    4    4    0    0  0.11339506275E+02 -0.36724139805E+00  0.26701327261E+00  0.11348593080E+02  0.00000000000E+00 0.  1.
</event>
<event>
 8    1  0.1262344E-006  0.9118800E+02  0.7816164E-02  0.1184000E+00
        -11   -1    0    0    0    0  0.00000000000E+00  0.00000000000E+00  0.45593999997E+02  0.45594000000E+02  0.51100000000E-03 0.  1.
         11   -1    0    0    0    0 -0.00000000000E+00 -0.00000000000E+00 -0.45593999997E+02  0.45594000000E+02  0.51100000000E-03 0. -1.
         23    2    1    2    0    0 -0.17763568394E-14 -0.35527136788E-14  0.35527136788E-14  0.91188000000E+02  0.91188000000E+02 0.  0.
    9900012    2    3    3    0    0  0.14592266922E+02  0.15178736408E+02 -0.30206828464E+02  0.54367071457E+02  0.39999971002E+02 0.  0.
        -12    1    3    3    0    0 -0.14592266922E+02 -0.15178736408E+02  0.30206828464E+02  0.36820928543E+02  0.00000000000E+00 0.  1.
         11    1    4    4    0    0  0.25137449695E+01  0.52480535162E+01 -0.33912489072E+02  0.34408107981E+02  0.51100000000E-03 0. -1.
        -11    1    4    4    0    0  0.51821368302E+01  0.22593861912E+00 -0.32974486813E+01  0.61464427479E+01  0.51100000000E-03 0.  1.
        -12    1    4    4    0    0  0.68963851224E+01  0.97047442729E+01  0.70031092896E+01  0.13812520729E+02  0.00000000000E+00 0.  1.
</event>
<event>
 8    1  0.1262344E-006  0.9118800E+02  0.7816164E-02  0.1184000E+00
        -11   -1    0    0    0    0  0.00000000000E+00  0.00000000000E+00  0.45593999997E+02  0.45594000000E+02  0.51100000000E-03 0.  1.
         11   -1    0    0    0    0 -0.00000000000E+00 -0.00000000000E+00 -0.45593999997E+02  0.45594000000E+02  0.51100000000E-03 0. -1.
         23    2    1    2    0    0  0.00000000000E+00  0.35527136788E-14 -0.26645352591E-14  0.91188000000E+02  0.91188000000E+02 0.  0.
    9900012    2    3    3    0    0 -0.24536823287E+02  0.27206895182E+02 -0.36752800416E+01  0.54367102050E+02  0.40000040744E+02 0.  0.
         12    1    3    3    0    0  0.24536823287E+02 -0.27206895182E+02  0.36752800416E+01  0.36820897950E+02  0.00000000000E+00 0. -1.
         11    1    4    4    0    0 -0.16271308862E+01  0.72922958628E+01 -0.97626830460E+01  0.12293702225E+02  0.51100000000E-03 0. -1.
        -11    1    4    4    0    0 -0.18154537893E+02 -0.28449199232E+01  0.24111804244E+01  0.18533607495E+02  0.51100000000E-03 0.  1.
        -12    1    4    4    0    0 -0.47551545085E+01  0.22759519242E+02  0.36762225799E+01  0.23539792331E+02  0.00000000000E+00 0.  1.
</event>
<event>
 8    1  0.1262344E-006  0.9118800E+02  0.7816164E-02  0.1184000E+00
        -11   -1    0    0    0    0  0.00000000000E+00  0.00000000000E+00  0.45593999997E+02  0.45594000000E+02  0.51100000000E-03 0.  1.
         11   -1    0    0    0    0 -0.00000000000E+00 -0.00000000000E+00 -0.45593999997E+02  0.45594000000E+02  0.51100000000E-03 0. -1.
         23    2    1    2    0    0 -0.17763568394E-14  0.00000000000E+00 -0.35527136788E-14  0.91188000000E+02  0.91188000000E+02 0.  0.
    9900012    2    3    3    0    0 -0.11916304533E+02  0.18919337192E+02 -0.29254683430E+02  0.54367134501E+02  0.40000114722E+02 0.  0.
         12    1    3    3    0    0  0.11916304533E+02 -0.18919337192E+02  0.29254683430E+02  0.36820865499E+02  0.00000000000E+00 0. -1.
         11    1    4    4    0    0 -0.28820655307E+01 -0.63263571767E+01 -0.90858963423E+01  0.11440393763E+02  0.51100000000E-03 0. -1.
        -11    1    4    4    0    0 -0.17243604114E+02  0.12097342920E+02 -0.59396255906E+01  0.21885308794E+02  0.51100000000E-03 0.  1.
         12    1    4    4    0    0  0.82093651121E+01  0.13148351449E+02 -0.14229161497E+02  0.21041431944E+02  0.00000000000E+00 0. -1.
</event>
<event>
 8    1  0.1262344E-006  0.9118800E+02  0.7816164E-02  0.1184000E+00
        -11   -1    0    0    0    0  0.00000000000E+00  0.00000000000E+00  0.45593999997E+02  0.45594000000E+02  0.51100000000E-03 0. -1.
         11   -1    0    0    0    0 -0.00000000000E+00 -0.00000000000E+00 -0.45593999997E+02  0.45594000000E+02  0.51100000000E-03 0.  1.
         23    2    1    2    0    0 -0.99920072216E-15  0.00000000000E+00  0.00000000000E+00  0.91188000000E+02  0.91188000000E+02 0.  0.
    9900012    2    3    3    0    0 -0.92663129068E+00  0.86021364230E+01 -0.35790013910E+02  0.54367075348E+02  0.39999979870E+02 0.  0.
         12    1    3    3    0    0  0.92663129068E+00 -0.86021364230E+01  0.35790013910E+02  0.36820924652E+02  0.00000000000E+00 0. -1.
         11    1    4    4    0    0 -0.10866733758E+02  0.10113784782E+02 -0.11452011249E+02  0.18748949493E+02  0.51100000000E-03 0. -1.
        -11    1    4    4    0    0  0.37992907986E+01 -0.95955479744E+00  0.45929815343E+01  0.60374527424E+01  0.51100000000E-03 0.  1.
        -12    1    4    4    0    0  0.61408116690E+01 -0.55209356115E+00 -0.28930984196E+02  0.29580673112E+02  0.00000000000E+00 0.  1.
</event>
<event>
 8    1  0.1262344E-006  0.9118800E+02  0.7816164E-02  0.1184000E+00
        -11   -1    0    0    0    0  0.00000000000E+00  0.00000000000E+00  0.45593999997E+02  0.45594000000E+02  0.51100000000E-03 0.  1.
         11   -1    0    0    0    0 -0.00000000000E+00 -0.00000000000E+00 -0.45593999997E+02  0.45594000000E+02  0.51100000000E-03 0. -1.
         23    2    1    2    0    0  0.00000000000E+00 -0.35527136788E-14  0.17763568394E-14  0.91188000000E+02  0.91188000000E+02 0.  0.
    9900012    2    3    3    0    0  0.18425656347E+02 -0.28621154995E+02 -0.14039328483E+02  0.54367108249E+02  0.40000054876E+02 0.  0.
        -12    1    3    3    0    0 -0.18425656347E+02  0.28621154995E+02  0.14039328483E+02  0.36820891751E+02  0.00000000000E+00 0.  1.
         11    1    4    4    0    0  0.90352929410E+01 -0.69179362389E+01 -0.22589417910E+02  0.25293796910E+02  0.51100000000E-03 0. -1.
        -11    1    4    4    0    0  0.13217618359E+02 -0.16875012403E+02  0.80310043833E+01  0.22890358458E+02  0.51100000000E-03 0.  1.
         12    1    4    4    0    0 -0.38272549523E+01 -0.48282063523E+01  0.51908504333E+00  0.61829528813E+01  0.00000000000E+00 0. -1.
</event>
<event>
 8    1  0.1262344E-006  0.9118800E+02  0.7816164E-02  0.1184000E+00
        -11   -1    0    0    0    0  0.00000000000E+00  0.00000000000E+00  0.45593999997E+02  0.45594000000E+02  0.51100000000E-03 0.  1.
         11   -1    0    0    0    0 -0.00000000000E+00 -0.00000000000E+00 -0.45593999997E+02  0.45594000000E+02  0.51100000000E-03 0. -1.
         23    2    1    2    0    0 -0.22204460493E-15  0.88817841970E-15 -0.71054273576E-14  0.91188000000E+02  0.91188000000E+02 0.  0.
    9900012    2    3    3    0    0 -0.13249053801E+01  0.51300307571E+01 -0.36437692187E+02  0.54367109167E+02  0.40000056967E+02 0.  0.
        -12    1    3    3    0    0  0.13249053801E+01 -0.51300307571E+01  0.36437692187E+02  0.36820890833E+02  0.00000000000E+00 0.  1.
         11    1    4    4    0    0  0.13614683891E+02  0.43689598068E+01 -0.28317518933E+02  0.31722693865E+02  0.51100000000E-03 0. -1.
        -11    1    4    4    0    0 -0.59251692436E+01  0.16670522962E+01 -0.11443844881E+02  0.12994163299E+02  0.51100000000E-03 0.  1.
        -12    1    4    4    0    0 -0.90144200272E+01 -0.90598134581E+00  0.33236716274E+01  0.96502520026E+01  0.00000000000E+00 0.  1.
</event>
<event>
 8    1  0.1262344E-006  0.9118800E+02  0.7816164E-02  0.1184000E+00
        -11   -1    0    0    0    0  0.00000000000E+00  0.00000000000E+00  0.45593999997E+02  0.45594000000E+02  0.51100000000E-03 0.  1.
         11   -1    0    0    0    0 -0.00000000000E+00 -0.00000000000E+00 -0.45593999997E+02  0.45594000000E+02  0.51100000000E-03 0. -1.
         23    2    1    2    0    0  0.27755575616E-15  0.00000000000E+00  0.00000000000E+00  0.91188000000E+02  0.91188000000E+02 0.  0.
    9900012    2    3    3    0    0 -0.41548886321E+00  0.95884244530E+01 -0.35548111654E+02  0.54367098916E+02  0.40000033598E+02 0.  0.
        -12    1    3    3    0    0  0.41548886321E+00 -0.95884244530E+01  0.35548111654E+02  0.36820901084E+02  0.00000000000E+00 0.  1.
         11    1    4    4    0    0  0.64630703735E+01  0.16426184478E+01 -0.25413944887E+02  0.26274285319E+02  0.51100000000E-03 0. -1.
        -11    1    4    4    0    0 -0.12276072776E+02  0.70563002031E+01  0.24510386473E+01  0.14370140085E+02  0.51100000000E-03 0.  1.
        -12    1    4    4    0    0  0.53975135394E+01  0.88950580215E+00 -0.12585205414E+02  0.13722673511E+02  0.00000000000E+00 0.  1.
</event>
<event>
 8    1  0.1262344E-006  0.9118800E+02  0.7816164E-02  0.1184000E+00
        -11   -1    0    0    0    0  0.00000000000E+00  0.00000000000E+00  0.45593999997E+02  0.45594000000E+02  0.51100000000E-03 0.  1.
         11   -1    0    0    0    0 -0.00000000000E+00 -0.00000000000E+00 -0.45593999997E+02  0.45594000000E+02  0.51100000000E-03 0. -1.
         23    2    1    2    0    0  0.00000000000E+00  0.35527136788E-14 -0.11102230246E-14  0.91188000000E+02  0.91188000000E+02 0.  0.
    9900012    2    3    3    0    0 -0.32010728621E+02  0.18100942899E+02  0.18575400764E+01  0.54367063893E+02  0.39999953756E+02 0.  0.
         12    1    3    3    0    0  0.32010728621E+02 -0.18100942899E+02 -0.18575400764E+01  0.36820936107E+02  0.00000000000E+00 0. -1.
         11    1    4    4    0    0  0.36584028995E+01  0.12174896738E+02 -0.58638018890E+01  0.13999864114E+02  0.51100000000E-03 0. -1.
        -11    1    4    4    0    0 -0.73845006339E+01 -0.40856432435E+01  0.59204216717E+01  0.10308963253E+02  0.51100000000E-03 0.  1.
        -12    1    4    4    0    0 -0.28284630887E+02  0.10011689405E+02  0.18009202938E+01  0.30058236526E+02  0.00000000000E+00 0.  1.
</event>
<event>
 8    1  0.1262344E-006  0.9118800E+02  0.7816164E-02  0.1184000E+00
        -11   -1    0    0    0    0  0.00000000000E+00  0.00000000000E+00  0.45593999997E+02  0.45594000000E+02  0.51100000000E-03 0.  1.
         11   -1    0    0    0    0 -0.00000000000E+00 -0.00000000000E+00 -0.45593999997E+02  0.45594000000E+02  0.51100000000E-03 0. -1.
         23    2    1    2    0    0  0.00000000000E+00 -0.88817841970E-15  0.00000000000E+00  0.91188000000E+02  0.91188000000E+02 0.  0.
    9900012    2    3    3    0    0 -0.26287036125E+02  0.71026065039E+01 -0.24785558415E+02  0.54367092986E+02  0.40000020080E+02 0.  0.
        -12    1    3    3    0    0  0.26287036125E+02 -0.71026065039E+01  0.24785558415E+02  0.36820907014E+02  0.00000000000E+00 0.  1.
         11    1    4    4    0    0 -0.14431846050E+02  0.84981978509E+01 -0.13085697406E+02  0.21254011950E+02  0.51100000000E-03 0. -1.
        -11    1    4    4    0    0 -0.18174283444E+02 -0.13202954173E+01  0.16964741526E+01  0.18300977665E+02  0.51100000000E-03 0.  1.
        -12    1    4    4    0    0  0.63190933690E+01 -0.75295929742E-01 -0.13396335162E+02  0.14812103370E+02  0.00000000000E+00 0.  1.
</event>
<event>
 8    1  0.1262344E-006  0.9118800E+02  0.7816164E-02  0.1184000E+00
        -11   -1    0    0    0    0  0.00000000000E+00  0.00000000000E+00  0.45593999997E+02  0.45594000000E+02  0.51100000000E-03 0. -1.
         11   -1    0    0    0    0 -0.00000000000E+00 -0.00000000000E+00 -0.45593999997E+02  0.45594000000E+02  0.51100000000E-03 0.  1.
         23    2    1    2    0    0 -0.35527136788E-14  0.00000000000E+00 -0.71054273576E-14  0.91188000000E+02  0.91188000000E+02 0.  0.
    9900012    2    3    3    0    0 -0.17276551537E+02 -0.86723637374E+01 -0.31338321374E+02  0.54367088654E+02  0.40000010203E+02 0.  0.
         12    1    3    3    0    0  0.17276551537E+02  0.86723637374E+01  0.31338321374E+02  0.36820911346E+02  0.00000000000E+00 0. -1.
         11    1    4    4    0    0 -0.17159818679E+01  0.44292845932E+01  0.35356269161E+01  0.59214705716E+01  0.51100000000E-03 0. -1.
        -11    1    4    4    0    0  0.17853693493E+01 -0.78886484655E+00  0.38201907379E+01  0.42899544280E+01  0.51100000000E-03 0.  1.
        -12    1    4    4    0    0 -0.17345939019E+02 -0.12312783484E+02 -0.38694139029E+02  0.44155663654E+02  0.00000000000E+00 0.  1.
</event>
<event>
 8    1  0.1262344E-006  0.9118800E+02  0.7816164E-02  0.1184000E+00
        -11   -1    0    0    0    0  0.00000000000E+00  0.00000000000E+00  0.45593999997E+02  0.45594000000E+02  0.51100000000E-03 0. -1.
         11   -1    0    0    0    0 -0.00000000000E+00 -0.00000000000E+00 -0.45593999997E+02  0.45594000000E+02  0.51100000000E-03 0.  1.
         23    2    1    2    0    0  0.35527136788E-14  0.00000000000E+00  0.35527136788E-14  0.91188000000E+02  0.91188000000E+02 0.  0.
    9900012    2    3    3    0    0  0.19418216289E+02 -0.90103916012E+01 -0.29958737473E+02  0.54367078887E+02  0.39999987938E+02 0.  0.
         12    1    3    3    0    0 -0.19418216289E+02  0.90103916012E+01  0.29958737473E+02  0.36820921113E+02  0.00000000000E+00 0. -1.
         11    1    4    4    0    0 -0.27816602323E+01  0.34544904013E+01  0.47794580508E+01  0.65203034517E+01  0.51100000000E-03 0. -1.
        -11    1    4    4    0    0 -0.10701204633E+01 -0.10802506534E+01 -0.15511456313E+02  0.15585806892E+02  0.51100000000E-03 0.  1.
         12    1    4    4    0    0  0.23269996984E+02 -0.11384631349E+02 -0.19226739211E+02  0.32260968543E+02  0.00000000000E+00 0. -1.
</event>
<event>
 8    1  0.1262344E-006  0.9118800E+02  0.7816164E-02  0.1184000E+00
        -11   -1    0    0    0    0  0.00000000000E+00  0.00000000000E+00  0.45593999997E+02  0.45594000000E+02  0.51100000000E-03 0.  1.
         11   -1    0    0    0    0 -0.00000000000E+00 -0.00000000000E+00 -0.45593999997E+02  0.45594000000E+02  0.51100000000E-03 0. -1.
         23    2    1    2    0    0  0.00000000000E+00  0.35527136788E-14  0.00000000000E+00  0.91188000000E+02  0.91188000000E+02 0.  0.
    9900012    2    3    3    0    0  0.39576955485E+01  0.24821026104E+02  0.26907848859E+02  0.54367095325E+02  0.40000025412E+02 0.  0.
         12    1    3    3    0    0 -0.39576955485E+01 -0.24821026104E+02 -0.26907848859E+02  0.36820904675E+02  0.00000000000E+00 0. -1.
         11    1    4    4    0    0  0.25327355220E+00  0.16907300764E+02 -0.62902226938E+01  0.18041282338E+02  0.51100000000E-03 0. -1.
        -11    1    4    4    0    0  0.59551786720E+01  0.74260136912E+01  0.13642684261E+02  0.16635283780E+02  0.51100000000E-03 0.  1.
        -12    1    4    4    0    0 -0.22507566757E+01  0.48771164867E+00  0.19555387292E+02  0.19690529206E+02  0.00000000000E+00 0.  1.
</event>
<event>
 8    1  0.1262344E-006  0.9118800E+02  0.7816164E-02  0.1184000E+00
        -11   -1    0    0    0    0  0.00000000000E+00  0.00000000000E+00  0.45593999997E+02  0.45594000000E+02  0.51100000000E-03 0. -1.
         11   -1    0    0    0    0 -0.00000000000E+00 -0.00000000000E+00 -0.45593999997E+02  0.45594000000E+02  0.51100000000E-03 0.  1.
         23    2    1    2    0    0  0.17763568394E-14  0.00000000000E+00 -0.44408920985E-15  0.91188000000E+02  0.91188000000E+02 0.  0.
    9900012    2    3    3    0    0 -0.90586989693E+01  0.35498416115E+02  0.36853227068E+01  0.54367093206E+02  0.40000020581E+02 0.  0.
        -12    1    3    3    0    0  0.90586989693E+01 -0.35498416115E+02 -0.36853227068E+01  0.36820906794E+02  0.00000000000E+00 0.  1.
         11    1    4    4    0    0 -0.14665806403E+02  0.11544175767E+02  0.60050457097E+01  0.19606489891E+02  0.51100000000E-03 0. -1.
        -11    1    4    4    0    0  0.13024103244E+02  0.50579359526E+01  0.16739582279E+01  0.14071677861E+02  0.51100000000E-03 0.  1.
        -12    1    4    4    0    0 -0.74169958101E+01  0.18896304396E+02 -0.39936812308E+01  0.20688925454E+02  0.00000000000E+00 0.  1.
</event>
<event>
 8    1  0.1262344E-006  0.9118800E+02  0.7816164E-02  0.1184000E+00
        -11   -1    0    0    0    0  0.00000000000E+00  0.00000000000E+00  0.45593999997E+02  0.45594000000E+02  0.51100000000E-03 0.  1.
         11   -1    0    0    0    0 -0.00000000000E+00 -0.00000000000E+00 -0.45593999997E+02  0.45594000000E+02  0.51100000000E-03 0. -1.
         23    2    1    2    0    0  0.00000000000E+00  0.35527136788E-14  0.00000000000E+00  0.91188000000E+02  0.91188000000E+02 0.  0.
    9900012    2    3    3    0    0 -0.25217843453E+02 -0.18192247394E+02 -0.19720091578E+02  0.54367088747E+02  0.40000010417E+02 0.  0.
        -12    1    3    3    0    0  0.25217843453E+02  0.18192247394E+02  0.19720091578E+02  0.36820911253E+02  0.00000000000E+00 0.  1.
         11    1    4    4    0    0 -0.23722563606E+02 -0.25261323017E+02 -0.25153104728E+02  0.42820242203E+02  0.51100000000E-03 0. -1.
        -11    1    4    4    0    0 -0.38990837404E+01  0.66853202227E+01  0.43988296099E+01  0.89020257634E+01  0.51100000000E-03 0.  1.
         12    1    4    4    0    0  0.24038038938E+01  0.38375540031E+00  0.10341835400E+01  0.26448207806E+01  0.00000000000E+00 0. -1.
</event>
<event>
 8    1  0.1262344E-006  0.9118800E+02  0.7816164E-02  0.1184000E+00
        -11   -1    0    0    0    0  0.00000000000E+00  0.00000000000E+00  0.45593999997E+02  0.45594000000E+02  0.51100000000E-03 0.  1.
         11   -1    0    0    0    0 -0.00000000000E+00 -0.00000000000E+00 -0.45593999997E+02  0.45594000000E+02  0.51100000000E-03 0. -1.
         23    2    1    2    0    0  0.17763568394E-14  0.00000000000E+00 -0.35527136788E-14  0.91188000000E+02  0.91188000000E+02 0.  0.
    9900012    2    3    3    0    0 -0.14768509343E+02  0.18917922723E+02  0.27924662592E+02  0.54367035194E+02  0.39999888331E+02 0.  0.
         12    1    3    3    0    0  0.14768509343E+02 -0.18917922723E+02 -0.27924662592E+02  0.36820964806E+02  0.00000000000E+00 0. -1.
         11    1    4    4    0    0 -0.22632584049E+01 -0.20939446194E+01  0.24185388068E+01  0.39187080649E+01  0.51100000000E-03 0. -1.
        -11    1    4    4    0    0 -0.16546621976E+02  0.28496349192E+02  0.25931522066E+02  0.41931807175E+02  0.51100000000E-03 0.  1.
        -12    1    4    4    0    0  0.40413710376E+01 -0.74844818496E+01 -0.42539828034E+00  0.85165199534E+01  0.00000000000E+00 0.  1.
</event>
<event>
 8    1  0.1262344E-006  0.9118800E+02  0.7816164E-02  0.1184000E+00
        -11   -1    0    0    0    0  0.00000000000E+00  0.00000000000E+00  0.45593999997E+02  0.45594000000E+02  0.51100000000E-03 0. -1.
         11   -1    0    0    0    0 -0.00000000000E+00 -0.00000000000E+00 -0.45593999997E+02  0.45594000000E+02  0.51100000000E-03 0.  1.
         23    2    1    2    0    0 -0.88817841970E-15  0.00000000000E+00  0.00000000000E+00  0.91188000000E+02  0.91188000000E+02 0.  0.
    9900012    2    3    3    0    0 -0.75039164003E+01  0.30427992224E+01 -0.35919513201E+02  0.54367098095E+02  0.40000031728E+02 0.  0.
         12    1    3    3    0    0  0.75039164003E+01 -0.30427992224E+01  0.35919513201E+02  0.36820901905E+02  0.00000000000E+00 0. -1.
         11    1    4    4    0    0 -0.88847597099E+00 -0.44275506987E+01  0.72813868750E+00  0.45741426465E+01  0.51100000000E-03 0. -1.
        -11    1    4    4    0    0 -0.65437518195E+01  0.19400418713E+02 -0.16154090725E+02  0.26079715902E+02  0.51100000000E-03 0.  1.
        -12    1    4    4    0    0 -0.71688609802E-01 -0.11930068792E+02 -0.20493561164E+02  0.23713239547E+02  0.00000000000E+00 0.  1.
</event>
<event>
 8    1  0.1262344E-006  0.9118800E+02  0.7816164E-02  0.1184000E+00
        -11   -1    0    0    0    0  0.00000000000E+00  0.00000000000E+00  0.45593999997E+02  0.45594000000E+02  0.51100000000E-03 0.  1.
         11   -1    0    0    0    0 -0.00000000000E+00 -0.00000000000E+00 -0.45593999997E+02  0.45594000000E+02  0.51100000000E-03 0. -1.
         23    2    1    2    0    0  0.00000000000E+00  0.00000000000E+00  0.00000000000E+00  0.91188000000E+02  0.91188000000E+02 0.  0.
    9900012    2    3    3    0    0  0.14077109169E+02 -0.20988732795E+02  0.26778485485E+02  0.54367093007E+02  0.40000020128E+02 0.  0.
         12    1    3    3    0    0 -0.14077109169E+02  0.20988732795E+02 -0.26778485485E+02  0.36820906993E+02  0.00000000000E+00 0. -1.
         11    1    4    4    0    0  0.90619232369E+00  0.29587993967E+01 -0.14811162833E+01  0.34306535971E+01  0.51100000000E-03 0. -1.
        -11    1    4    4    0    0  0.20965675260E+02 -0.73862635754E+01  0.22783573496E+02  0.31830922862E+02  0.51100000000E-03 0.  1.
        -12    1    4    4    0    0 -0.77947584147E+01 -0.16561268617E+02  0.54760282720E+01  0.19105516548E+02  0.00000000000E+00 0.  1.
</event>
<event>
 8    1  0.1262344E-006  0.9118800E+02  0.7816164E-02  0.1184000E+00
        -11   -1    0    0    0    0  0.00000000000E+00  0.00000000000E+00  0.45593999997E+02  0.45594000000E+02  0.51100000000E-03 0.  1.
         11   -1    0    0    0    0 -0.00000000000E+00 -0.00000000000E+00 -0.45593999997E+02  0.45594000000E+02  0.51100000000E-03 0. -1.
         23    2    1    2    0    0  0.44408920985E-15  0.00000000000E+00  0.71054273576E-14  0.91188000000E+02  0.91188000000E+02 0.  0.
    9900012    2    3    3    0    0  0.20936460177E+01  0.21580309354E+02 -0.29760537074E+02  0.54367045743E+02  0.39999912380E+02 0.  0.
        -12    1    3    3    0    0 -0.20936460177E+01 -0.21580309354E+02  0.29760537074E+02  0.36820954257E+02  0.00000000000E+00 0.  1.
         11    1    4    4    0    0  0.35979219529E+00  0.95660088568E+01  0.17637283406E+01  0.97338950987E+01  0.51100000000E-03 0. -1.
        -11    1    4    4    0    0 -0.37015720144E+01 -0.83853698519E+01 -0.41445985318E+01  0.10059510932E+02  0.51100000000E-03 0.  1.
         12    1    4    4    0    0  0.54354258368E+01  0.20399670350E+02 -0.27379666883E+02  0.34573639713E+02  0.00000000000E+00 0. -1.
</event>
<event>
 8    1  0.1262344E-006  0.9118800E+02  0.7816164E-02  0.1184000E+00
        -11   -1    0    0    0    0  0.00000000000E+00  0.00000000000E+00  0.45593999997E+02  0.45594000000E+02  0.51100000000E-03 0. -1.
         11   -1    0    0    0    0 -0.00000000000E+00 -0.00000000000E+00 -0.45593999997E+02  0.45594000000E+02  0.51100000000E-03 0.  1.
         23    2    1    2    0    0  0.00000000000E+00  0.35527136788E-14 -0.35527136788E-14  0.91188000000E+02  0.91188000000E+02 0.  0.
    9900012    2    3    3    0    0  0.17322315026E+02  0.19043732633E+02 -0.26325910369E+02  0.54367083293E+02  0.39999997982E+02 0.  0.
        -12    1    3    3    0    0 -0.17322315026E+02 -0.19043732633E+02  0.26325910369E+02  0.36820916707E+02  0.00000000000E+00 0.  1.
         11    1    4    4    0    0  0.98387710217E+01  0.47526830614E+01 -0.40779758776E+01  0.11662731199E+02  0.51100000000E-03 0. -1.
        -11    1    4    4    0    0  0.73177521182E+01  0.24277311186E+02 -0.10935464133E+02  0.27613795657E+02  0.51100000000E-03 0.  1.
        -12    1    4    4    0    0  0.16579188573E+00 -0.99862616149E+01 -0.11312470358E+02  0.15090556437E+02  0.00000000000E+00 0.  1.
</event>
<event>
 8    1  0.1262344E-006  0.9118800E+02  0.7816164E-02  0.1184000E+00
        -11   -1    0    0    0    0  0.00000000000E+00  0.00000000000E+00  0.45593999997E+02  0.45594000000E+02  0.51100000000E-03 0.  1.
         11   -1    0    0    0    0 -0.00000000000E+00 -0.00000000000E+00 -0.45593999997E+02  0.45594000000E+02  0.51100000000E-03 0. -1.
         23    2    1    2    0    0  0.00000000000E+00  0.17763568394E-14  0.00000000000E+00  0.91188000000E+02  0.91188000000E+02 0.  0.
    9900012    2    3    3    0    0  0.27000274723E+02  0.15981017311E+02 -0.19271053764E+02  0.54367064887E+02  0.39999956023E+02 0.  0.
        -12    1    3    3    0    0 -0.27000274723E+02 -0.15981017311E+02  0.19271053764E+02  0.36820935113E+02  0.00000000000E+00 0.  1.
         11    1    4    4    0    0  0.15322013598E+02  0.13836671956E+01 -0.58522859849E+01  0.16459887215E+02  0.51100000000E-03 0. -1.
        -11    1    4    4    0    0  0.20285393617E+02  0.50501090186E+01 -0.25228345685E+01  0.21056245863E+02  0.51100000000E-03 0.  1.
        -12    1    4    4    0    0 -0.86071324931E+01  0.95472410966E+01 -0.10895933211E+02  0.16850931809E+02  0.00000000000E+00 0.  1.
</event>
<event>
 8    1  0.1262344E-006  0.9118800E+02  0.7816164E-02  0.1184000E+00
        -11   -1    0    0    0    0  0.00000000000E+00  0.00000000000E+00  0.45593999997E+02  0.45594000000E+02  0.51100000000E-03 0. -1.
         11   -1    0    0    0    0 -0.00000000000E+00 -0.00000000000E+00 -0.45593999997E+02  0.45594000000E+02  0.51100000000E-03 0.  1.
         23    2    1    2    0    0  0.17763568394E-14  0.17763568394E-14  0.00000000000E+00  0.91188000000E+02  0.91188000000E+02 0.  0.
    9900012    2    3    3    0    0 -0.13841130354E+02  0.11625100134E+02 -0.32078926871E+02  0.54367117450E+02  0.40000075850E+02 0.  0.
         12    1    3    3    0    0  0.13841130354E+02 -0.11625100134E+02  0.32078926871E+02  0.36820882550E+02  0.00000000000E+00 0. -1.
         11    1    4    4    0    0  0.91054907529E+00 -0.43651655073E+01  0.21431938037E+01  0.49474285711E+01  0.51100000000E-03 0. -1.
        -11    1    4    4    0    0  0.13660225393E+01  0.14008881114E+02 -0.32455905516E+01  0.14444674657E+02  0.51100000000E-03 0.  1.
         12    1    4    4    0    0 -0.16117701968E+02  0.19813845275E+01 -0.30976530123E+02  0.34975014222E+02  0.00000000000E+00 0. -1.
</event>
<event>
 8    1  0.1262344E-006  0.9118800E+02  0.7816164E-02  0.1184000E+00
        -11   -1    0    0    0    0  0.00000000000E+00  0.00000000000E+00  0.45593999997E+02  0.45594000000E+02  0.51100000000E-03 0.  1.
         11   -1    0    0    0    0 -0.00000000000E+00 -0.00000000000E+00 -0.45593999997E+02  0.45594000000E+02  0.51100000000E-03 0. -1.
         23    2    1    2    0    0  0.00000000000E+00  0.00000000000E+00  0.00000000000E+00  0.91188000000E+02  0.91188000000E+02 0.  0.
    9900012    2    3    3    0    0 -0.28989114953E+02  0.14640590685E+02  0.17351236481E+02  0.54367067247E+02  0.39999961404E+02 0.  0.
         12    1    3    3    0    0  0.28989114953E+02 -0.14640590685E+02 -0.17351236481E+02  0.36820932753E+02  0.00000000000E+00 0. -1.
         11    1    4    4    0    0 -0.10123451508E+02  0.11930294466E+02 -0.85290849219E+01  0.17820254946E+02  0.51100000000E-03 0. -1.
        -11    1    4    4    0    0 -0.38540238751E+01  0.38887837161E+01  0.19392876913E+02  0.20150925886E+02  0.51100000000E-03 0.  1.
         12    1    4    4    0    0 -0.15011639570E+02 -0.11784874965E+01  0.64874444897E+01  0.16395886416E+02  0.00000000000E+00 0. -1.
</event>
<event>
 8    1  0.1262344E-006  0.9118800E+02  0.7816164E-02  0.1184000E+00
        -11   -1    0    0    0    0  0.00000000000E+00  0.00000000000E+00  0.45593999997E+02  0.45594000000E+02  0.51100000000E-03 0. -1.
         11   -1    0    0    0    0 -0.00000000000E+00 -0.00000000000E+00 -0.45593999997E+02  0.45594000000E+02  0.51100000000E-03 0.  1.
         23    2    1    2    0    0  0.00000000000E+00 -0.88817841970E-15  0.00000000000E+00  0.91188000000E+02  0.91188000000E+02 0.  0.
    9900012    2    3    3    0    0 -0.27793792154E+02  0.59366787119E+01 -0.23410293477E+02  0.54367070122E+02  0.39999967957E+02 0.  0.
         12    1    3    3    0    0  0.27793792154E+02 -0.59366787119E+01  0.23410293477E+02  0.36820929878E+02  0.00000000000E+00 0. -1.
         11    1    4    4    0    0 -0.85116130811E+01 -0.52342601179E+01 -0.38155161819E+01  0.10695943166E+02  0.51100000000E-03 0. -1.
        -11    1    4    4    0    0 -0.20171538004E+02  0.91035695236E+01 -0.27587750810E+02  0.35367356680E+02  0.51100000000E-03 0.  1.
        -12    1    4    4    0    0  0.88935893132E+00  0.20673693062E+01  0.79929735158E+01  0.83037702751E+01  0.00000000000E+00 0.  1.
</event>
<event>
 8    1  0.1262344E-006  0.9118800E+02  0.7816164E-02  0.1184000E+00
        -11   -1    0    0    0    0  0.00000000000E+00  0.00000000000E+00  0.45593999997E+02  0.45594000000E+02  0.51100000000E-03 0. -1.
         11   -1    0    0    0    0 -0.00000000000E+00 -0.00000000000E+00 -0.45593999997E+02  0.45594000000E+02  0.51100000000E-03 0.  1.
         23    2    1    2    0    0 -0.35527136788E-14  0.35527136788E-14  0.00000000000E+00  0.91188000000E+02  0.91188000000E+02 0.  0.
    9900012    2    3    3    0    0 -0.24741725029E+02  0.26277332051E+02  0.72889687837E+01  0.54367079275E+02  0.39999988822E+02 0.  0.
         12    1    3    3    0    0  0.24741725029E+02 -0.26277332051E+02 -0.72889687837E+01  0.36820920725E+02  0.00000000000E+00 0. -1.
         11    1    4    4    0    0 -0.14204404956E+01 -0.95526662817E+01  0.27199157448E+01  0.10033395547E+02  0.51100000000E-03 0. -1.
        -11    1    4    4    0    0 -0.17696089766E+02  0.19962136990E+02 -0.72219833321E+00  0.26686327528E+02  0.51100000000E-03 0.  1.
         12    1    4    4    0    0 -0.56251947678E+01  0.15867861342E+02  0.52912513721E+01  0.17647356200E+02  0.00000000000E+00 0. -1.
</event>
<event>
 8    1  0.1262344E-006  0.9118800E+02  0.7816164E-02  0.1184000E+00
        -11   -1    0    0    0    0  0.00000000000E+00  0.00000000000E+00  0.45593999997E+02  0.45594000000E+02  0.51100000000E-03 0. -1.
         11   -1    0    0    0    0 -0.00000000000E+00 -0.00000000000E+00 -0.45593999997E+02  0.45594000000E+02  0.51100000000E-03 0.  1.
         23    2    1    2    0    0  0.35527136788E-14 -0.17763568394E-14  0.71054273576E-14  0.91188000000E+02  0.91188000000E+02 0.  0.
    9900012    2    3    3    0    0 -0.21619829618E+02  0.75859250451E+01 -0.28823875285E+02  0.54367094553E+02  0.40000023652E+02 0.  0.
         12    1    3    3    0    0  0.21619829618E+02 -0.75859250451E+01  0.28823875285E+02  0.36820905447E+02  0.00000000000E+00 0. -1.
         11    1    4    4    0    0  0.10266599123E+01  0.46691212119E+01  0.27368407029E+01  0.55086314781E+01  0.51100000000E-03 0. -1.
        -11    1    4    4    0    0 -0.12987907292E+02  0.50050544397E+01 -0.35568467543E+02  0.38194923607E+02  0.51100000000E-03 0.  1.
         12    1    4    4    0    0 -0.96585822383E+01 -0.20882506065E+01  0.40077515545E+01  0.10663539467E+02  0.00000000000E+00 0. -1.
</event>
<event>
 8    1  0.1262344E-006  0.9118800E+02  0.7816164E-02  0.1184000E+00
        -11   -1    0    0    0    0  0.00000000000E+00  0.00000000000E+00  0.45593999997E+02  0.45594000000E+02  0.51100000000E-03 0.  1.
         11   -1    0    0    0    0 -0.00000000000E+00 -0.00000000000E+00 -0.45593999997E+02  0.45594000000E+02  0.51100000000E-03 0. -1.
         23    2    1    2    0    0 -0.35527136788E-14  0.88817841970E-15  0.00000000000E+00  0.91188000000E+02  0.91188000000E+02 0.  0.
    9900012    2    3    3    0    0  0.28631379426E+02 -0.62672635257E+01  0.22287795841E+02  0.54367077641E+02  0.39999985099E+02 0.  0.
        -12    1    3    3    0    0 -0.28631379426E+02  0.62672635257E+01 -0.22287795841E+02  0.36820922359E+02  0.00000000000E+00 0.  1.
         11    1    4    4    0    0  0.90614086765E+01 -0.43203735357E+01  0.13450053198E+02  0.16783285911E+02  0.51100000000E-03 0. -1.
        -11    1    4    4    0    0  0.18362682835E+02 -0.10593350007E+02  0.15781760398E+02  0.26428604707E+02  0.51100000000E-03 0.  1.
        -12    1    4    4    0    0  0.12072879144E+01  0.86464600166E+01 -0.69440177552E+01  0.11155187023E+02  0.00000000000E+00 0.  1.
</event>
<event>
 8    1  0.1262344E-006  0.9118800E+02  0.7816164E-02  0.1184000E+00
        -11   -1    0    0    0    0  0.00000000000E+00  0.00000000000E+00  0.45593999997E+02  0.45594000000E+02  0.51100000000E-03 0.  1.
         11   -1    0    0    0    0 -0.00000000000E+00 -0.00000000000E+00 -0.45593999997E+02  0.45594000000E+02  0.51100000000E-03 0. -1.
         23    2    1    2    0    0 -0.17763568394E-14  0.00000000000E+00 -0.44408920985E-15  0.91188000000E+02  0.91188000000E+02 0.  0.
    9900012    2    3    3    0    0  0.92477599893E+01  0.35527635950E+02  0.28366144274E+01  0.54367077111E+02  0.39999983890E+02 0.  0.
        -12    1    3    3    0    0 -0.92477599893E+01 -0.35527635950E+02 -0.28366144274E+01  0.36820922889E+02  0.00000000000E+00 0.  1.
         11    1    4    4    0    0  0.84599927186E+01  0.10752750029E+02  0.93635369602E+01  0.16579171712E+02  0.51100000000E-03 0. -1.
        -11    1    4    4    0    0 -0.78187357981E+01 -0.22689009670E+01 -0.45795630602E+01  0.93409281745E+01  0.51100000000E-03 0.  1.
         12    1    4    4    0    0  0.86065030688E+01  0.27043786888E+02 -0.19473594727E+01  0.28446977225E+02  0.00000000000E+00 0. -1.
</event>
<event>
 8    1  0.1262344E-006  0.9118800E+02  0.7816164E-02  0.1184000E+00
        -11   -1    0    0    0    0  0.00000000000E+00  0.00000000000E+00  0.45593999997E+02  0.45594000000E+02  0.51100000000E-03 0.  1.
         11   -1    0    0    0    0 -0.00000000000E+00 -0.00000000000E+00 -0.45593999997E+02  0.45594000000E+02  0.51100000000E-03 0. -1.
         23    2    1    2    0    0  0.88817841970E-15  0.00000000000E+00  0.00000000000E+00  0.91188000000E+02  0.91188000000E+02 0.  0.
    9900012    2    3    3    0    0 -0.66894719827E+01 -0.28849520929E+02  0.21880041847E+02  0.54367080343E+02  0.39999991257E+02 0.  0.
         12    1    3    3    0    0  0.66894719827E+01  0.28849520929E+02 -0.21880041847E+02  0.36820919657E+02  0.00000000000E+00 0. -1.
         11    1    4    4    0    0 -0.80221031927E+01 -0.14994029087E+02 -0.32912873359E+01  0.17320728059E+02  0.51100000000E-03 0. -1.
        -11    1    4    4    0    0 -0.68524990779E+01 -0.48932444534E+01  0.23288155119E+02  0.24763657928E+02  0.51100000000E-03 0.  1.
         12    1    4    4    0    0  0.81851302878E+01 -0.89622473877E+01  0.18831740634E+01  0.12282694355E+02  0.00000000000E+00 0. -1.
</event>
<event>
 8    1  0.1262344E-006  0.9118800E+02  0.7816164E-02  0.1184000E+00
        -11   -1    0    0    0    0  0.00000000000E+00  0.00000000000E+00  0.45593999997E+02  0.45594000000E+02  0.51100000000E-03 0. -1.
         11   -1    0    0    0    0 -0.00000000000E+00 -0.00000000000E+00 -0.45593999997E+02  0.45594000000E+02  0.51100000000E-03 0.  1.
         23    2    1    2    0    0  0.22204460493E-15  0.00000000000E+00  0.00000000000E+00  0.91188000000E+02  0.91188000000E+02 0.  0.
    9900012    2    3    3    0    0  0.13142142031E+01 -0.38034248039E+01 -0.36600358522E+02  0.54367089594E+02  0.40000012347E+02 0.  0.
         12    1    3    3    0    0 -0.13142142031E+01  0.38034248039E+01  0.36600358522E+02  0.36820910406E+02  0.00000000000E+00 0. -1.
         11    1    4    4    0    0  0.24316595459E+01  0.34255476156E+00  0.30735175652E+01  0.39340592772E+01  0.51100000000E-03 0. -1.
        -11    1    4    4    0    0  0.43764913897E+01 -0.15385218037E+02 -0.11789282504E+02  0.19870727041E+02  0.51100000000E-03 0.  1.
        -12    1    4    4    0    0 -0.54939367325E+01  0.11239238471E+02 -0.27884593583E+02  0.30562303275E+02  0.00000000000E+00 0.  1.
</event>
<event>
 8    1  0.1262344E-006  0.9118800E+02  0.7816164E-02  0.1184000E+00
        -11   -1    0    0    0    0  0.00000000000E+00  0.00000000000E+00  0.45593999997E+02  0.45594000000E+02  0.51100000000E-03 0.  1.
         11   -1    0    0    0    0 -0.00000000000E+00 -0.00000000000E+00 -0.45593999997E+02  0.45594000000E+02  0.51100000000E-03 0. -1.
         23    2    1    2    0    0 -0.35527136788E-14  0.00000000000E+00 -0.71054273576E-14  0.91188000000E+02  0.91188000000E+02 0.  0.
    9900012    2    3    3    0    0 -0.26887931141E+02 -0.28532412730E+01 -0.24993570989E+02  0.54367076361E+02  0.39999982181E+02 0.  0.
        -12    1    3    3    0    0  0.26887931141E+02  0.28532412730E+01  0.24993570989E+02  0.36820923639E+02  0.00000000000E+00 0.  1.
         11    1    4    4    0    0 -0.20357191567E+02 -0.13339645214E+02 -0.97505953446E+00  0.24357999185E+02  0.51100000000E-03 0. -1.
        -11    1    4    4    0    0  0.33754556969E+01  0.37714984614E+01 -0.31768172736E+01  0.59757903291E+01  0.51100000000E-03 0.  1.
        -12    1    4    4    0    0 -0.99061952707E+01  0.67149054796E+01 -0.20841694181E+02  0.24033286847E+02  0.00000000000E+00 0.  1.
</event>
<event>
 8    1  0.1262344E-006  0.9118800E+02  0.7816164E-02  0.1184000E+00
        -11   -1    0    0    0    0  0.00000000000E+00  0.00000000000E+00  0.45593999997E+02  0.45594000000E+02  0.51100000000E-03 0.  1.
         11   -1    0    0    0    0 -0.00000000000E+00 -0.00000000000E+00 -0.45593999997E+02  0.45594000000E+02  0.51100000000E-03 0. -1.
         23    2    1    2    0    0  0.17763568394E-14 -0.35527136788E-14  0.00000000000E+00  0.91188000000E+02  0.91188000000E+02 0.  0.
    9900012    2    3    3    0    0 -0.13951805045E+02 -0.27905291059E+02  0.19555611406E+02  0.54367081074E+02  0.39999992924E+02 0.  0.
        -12    1    3    3    0    0  0.13951805045E+02  0.27905291059E+02 -0.19555611406E+02  0.36820918926E+02  0.00000000000E+00 0.  1.
         11    1    4    4    0    0 -0.11963395839E+02 -0.11608041733E+02  0.13334444656E+02  0.21346589597E+02  0.51100000000E-03 0. -1.
        -11    1    4    4    0    0 -0.22950432699E+01  0.76293192361E+01  0.42011318999E+01  0.90068443485E+01  0.51100000000E-03 0.  1.
        -12    1    4    4    0    0  0.30663406351E+00 -0.23926568562E+02  0.20200348500E+01  0.24013647129E+02  0.00000000000E+00 0.  1.
</event>
<event>
 8    1  0.1262344E-006  0.9118800E+02  0.7816164E-02  0.1184000E+00
        -11   -1    0    0    0    0  0.00000000000E+00  0.00000000000E+00  0.45593999997E+02  0.45594000000E+02  0.51100000000E-03 0. -1.
         11   -1    0    0    0    0 -0.00000000000E+00 -0.00000000000E+00 -0.45593999997E+02  0.45594000000E+02  0.51100000000E-03 0.  1.
         23    2    1    2    0    0 -0.17763568394E-14  0.00000000000E+00  0.00000000000E+00  0.91188000000E+02  0.91188000000E+02 0.  0.
    9900012    2    3    3    0    0  0.34702828408E+01 -0.45673273168E+01 -0.36371355217E+02  0.54367098026E+02  0.40000031571E+02 0.  0.
         12    1    3    3    0    0 -0.34702828408E+01  0.45673273168E+01  0.36371355217E+02  0.36820901974E+02  0.00000000000E+00 0. -1.
         11    1    4    4    0    0  0.45905718752E+01 -0.12117102560E+02 -0.87211671203E+01  0.15619099871E+02  0.51100000000E-03 0. -1.
        -11    1    4    4    0    0 -0.10811459302E+02 -0.44130040479E+01 -0.13336487580E+02  0.17726369008E+02  0.51100000000E-03 0.  1.
        -12    1    4    4    0    0  0.96911702678E+01  0.11962779291E+02 -0.14313700517E+02  0.21021629147E+02  0.00000000000E+00 0.  1.
</event>
<event>
 8    1  0.1262344E-006  0.9118800E+02  0.7816164E-02  0.1184000E+00
        -11   -1    0    0    0    0  0.00000000000E+00  0.00000000000E+00  0.45593999997E+02  0.45594000000E+02  0.51100000000E-03 0. -1.
         11   -1    0    0    0    0 -0.00000000000E+00 -0.00000000000E+00 -0.45593999997E+02  0.45594000000E+02  0.51100000000E-03 0.  1.
         23    2    1    2    0    0  0.00000000000E+00 -0.17763568394E-14  0.00000000000E+00  0.91188000000E+02  0.91188000000E+02 0.  0.
    9900012    2    3    3    0    0 -0.79470724302E+01 -0.93663955360E+01  0.34711559385E+02  0.54367113529E+02  0.40000066912E+02 0.  0.
        -12    1    3    3    0    0  0.79470724302E+01  0.93663955360E+01 -0.34711559385E+02  0.36820886471E+02  0.00000000000E+00 0.  1.
         11    1    4    4    0    0 -0.15312695115E+02 -0.70571743933E+01  0.26425004713E+02  0.31345864423E+02  0.51100000000E-03 0. -1.
        -11    1    4    4    0    0 -0.37078793844E+01  0.38733907284E+00 -0.45322499410E+01  0.58685339630E+01  0.51100000000E-03 0.  1.
        -12    1    4    4    0    0  0.11073502069E+02 -0.26965602155E+01  0.12818804614E+02  0.17152715143E+02  0.00000000000E+00 0.  1.
</event>
<event>
 8    1  0.1262344E-006  0.9118800E+02  0.7816164E-02  0.1184000E+00
        -11   -1    0    0    0    0  0.00000000000E+00  0.00000000000E+00  0.45593999997E+02  0.45594000000E+02  0.51100000000E-03 0.  1.
         11   -1    0    0    0    0 -0.00000000000E+00 -0.00000000000E+00 -0.45593999997E+02  0.45594000000E+02  0.51100000000E-03 0. -1.
         23    2    1    2    0    0  0.44408920985E-15  0.00000000000E+00  0.17763568394E-14  0.91188000000E+02  0.91188000000E+02 0.  0.
    9900012    2    3    3    0    0 -0.33017693474E+01  0.36657614669E+02 -0.10469658006E+01  0.54367101974E+02  0.40000040571E+02 0.  0.
         12    1    3    3    0    0  0.33017693474E+01 -0.36657614669E+02  0.10469658006E+01  0.36820898026E+02  0.00000000000E+00 0. -1.
         11    1    4    4    0    0  0.53170625272E+01  0.96196881373E+01  0.11961843688E+02  0.16244853291E+02  0.51100000000E-03 0. -1.
        -11    1    4    4    0    0  0.28821164659E+01  0.22532530285E+02 -0.12097922474E+02  0.25736768344E+02  0.51100000000E-03 0.  1.
        -12    1    4    4    0    0 -0.11500948340E+02  0.45053962467E+01 -0.91088701408E+00  0.12385480339E+02  0.00000000000E+00 0.  1.
</event>
<event>
 8    1  0.1262344E-006  0.9118800E+02  0.7816164E-02  0.1184000E+00
        -11   -1    0    0    0    0  0.00000000000E+00  0.00000000000E+00  0.45593999997E+02  0.45594000000E+02  0.51100000000E-03 0. -1.
         11   -1    0    0    0    0 -0.00000000000E+00 -0.00000000000E+00 -0.45593999997E+02  0.45594000000E+02  0.51100000000E-03 0.  1.
         23    2    1    2    0    0  0.71054273576E-14  0.35527136788E-14  0.17763568394E-14  0.91188000000E+02  0.91188000000E+02 0.  0.
    9900012    2    3    3    0    0 -0.34318471782E+02  0.12214562169E+02 -0.53691340092E+01  0.54367073417E+02  0.39999975470E+02 0.  0.
         12    1    3    3    0    0  0.34318471782E+02 -0.12214562169E+02  0.53691340092E+01  0.36820926583E+02  0.00000000000E+00 0. -1.
         11    1    4    4    0    0 -0.61827094888E+01 -0.52961303403E+01  0.63028656123E+01  0.10295679113E+02  0.51100000000E-03 0. -1.
        -11    1    4    4    0    0 -0.71708299276E+01  0.16638770756E+02 -0.14086437944E+02  0.22949885149E+02  0.51100000000E-03 0.  1.
         12    1    4    4    0    0 -0.20964932365E+02  0.87192175324E+00  0.24144383225E+01  0.21121509156E+02  0.00000000000E+00 0. -1.
</event>
<event>
 8    1  0.1262344E-006  0.9118800E+02  0.7816164E-02  0.1184000E+00
        -11   -1    0    0    0    0  0.00000000000E+00  0.00000000000E+00  0.45593999997E+02  0.45594000000E+02  0.51100000000E-03 0.  1.
         11   -1    0    0    0    0 -0.00000000000E+00 -0.00000000000E+00 -0.45593999997E+02  0.45594000000E+02  0.51100000000E-03 0. -1.
         23    2    1    2    0    0  0.17763568394E-14  0.00000000000E+00 -0.71054273576E-14  0.91188000000E+02  0.91188000000E+02 0.  0.
    9900012    2    3    3    0    0 -0.15306559299E+02  0.87814037441E+01  0.32316794725E+02  0.54367095196E+02  0.40000025119E+02 0.  0.
         12    1    3    3    0    0  0.15306559299E+02 -0.87814037441E+01 -0.32316794725E+02  0.36820904804E+02  0.00000000000E+00 0. -1.
         11    1    4    4    0    0  0.77358038898E+01  0.48369481572E+01  0.13646085605E+02  0.16415065698E+02  0.51100000000E-03 0. -1.
        -11    1    4    4    0    0 -0.89303937510E+01  0.97075353419E+01  0.18483566033E+02  0.22707496307E+02  0.51100000000E-03 0.  1.
         12    1    4    4    0    0 -0.14111969437E+02 -0.57630797550E+01  0.18714308702E+00  0.15244533191E+02  0.00000000000E+00 0. -1.
</event>
<event>
 8    1  0.1262344E-006  0.9118800E+02  0.7816164E-02  0.1184000E+00
        -11   -1    0    0    0    0  0.00000000000E+00  0.00000000000E+00  0.45593999997E+02  0.45594000000E+02  0.51100000000E-03 0.  1.
         11   -1    0    0    0    0 -0.00000000000E+00 -0.00000000000E+00 -0.45593999997E+02  0.45594000000E+02  0.51100000000E-03 0. -1.
         23    2    1    2    0    0 -0.26645352591E-14  0.35527136788E-14  0.00000000000E+00  0.91188000000E+02  0.91188000000E+02 0.  0.
    9900012    2    3    3    0    0  0.73089396916E+01 -0.28319740885E+02  0.22368532229E+02  0.54367088044E+02  0.40000008813E+02 0.  0.
         12    1    3    3    0    0 -0.73089396916E+01  0.28319740885E+02 -0.22368532229E+02  0.36820911956E+02  0.00000000000E+00 0. -1.
         11    1    4    4    0    0 -0.50953800357E+01 -0.96914155620E+01  0.26706743268E+02  0.28864105210E+02  0.51100000000E-03 0. -1.
        -11    1    4    4    0    0  0.10400152261E+02 -0.18537347196E+02 -0.60414171606E+00  0.21264086992E+02  0.51100000000E-03 0.  1.
         12    1    4    4    0    0  0.20041674662E+01 -0.90978127435E-01 -0.37340693230E+01  0.42388958422E+01  0.00000000000E+00 0. -1.
</event>
<event>
 8    1  0.1262344E-006  0.9118800E+02  0.7816164E-02  0.1184000E+00
        -11   -1    0    0    0    0  0.00000000000E+00  0.00000000000E+00  0.45593999997E+02  0.45594000000E+02  0.51100000000E-03 0. -1.
         11   -1    0    0    0    0 -0.00000000000E+00 -0.00000000000E+00 -0.45593999997E+02  0.45594000000E+02  0.51100000000E-03 0.  1.
         23    2    1    2    0    0  0.00000000000E+00 -0.35527136788E-14  0.00000000000E+00  0.91188000000E+02  0.91188000000E+02 0.  0.
    9900012    2    3    3    0    0  0.29794678583E+02  0.82539754209E+01 -0.19998221671E+02  0.54367084040E+02  0.39999999687E+02 0.  0.
         12    1    3    3    0    0 -0.29794678583E+02 -0.82539754209E+01  0.19998221671E+02  0.36820915960E+02  0.00000000000E+00 0. -1.
         11    1    4    4    0    0 -0.64829269121E+01 -0.50377249052E+01  0.27140905465E+01  0.86471556783E+01  0.51100000000E-03 0. -1.
        -11    1    4    4    0    0  0.17965439193E+02  0.50097246434E+01 -0.15870608520E+02  0.24489396919E+02  0.51100000000E-03 0.  1.
         12    1    4    4    0    0  0.18312166302E+02  0.82819756827E+01 -0.68417036975E+01  0.21230531444E+02  0.00000000000E+00 0. -1.
</event>
<event>
 8    1  0.1262344E-006  0.9118800E+02  0.7816164E-02  0.1184000E+00
        -11   -1    0    0    0    0  0.00000000000E+00  0.00000000000E+00  0.45593999997E+02  0.45594000000E+02  0.51100000000E-03 0.  1.
         11   -1    0    0    0    0 -0.00000000000E+00 -0.00000000000E+00 -0.45593999997E+02  0.45594000000E+02  0.51100000000E-03 0. -1.
         23    2    1    2    0    0  0.00000000000E+00  0.17763568394E-14  0.88817841970E-15  0.91188000000E+02  0.91188000000E+02 0.  0.
    9900012    2    3    3    0    0  0.34046941933E+02  0.12967221123E+02 -0.53326626319E+01  0.54367077016E+02  0.39999983673E+02 0.  0.
        -12    1    3    3    0    0 -0.34046941933E+02 -0.12967221123E+02  0.53326626319E+01  0.36820922984E+02  0.00000000000E+00 0.  1.
         11    1    4    4    0    0  0.22171056878E+02 -0.62411485729E+01 -0.12254700206E+02  0.26089947796E+02  0.51100000000E-03 0. -1.
        -11    1    4    4    0    0  0.78756247845E+01  0.14967006409E+02 -0.26006771432E+01  0.17111407553E+02  0.51100000000E-03 0.  1.
        -12    1    4    4    0    0  0.40002602709E+01  0.42413632873E+01  0.95227147170E+01  0.11165721667E+02  0.00000000000E+00 0.  1.
</event>
<event>
 8    1  0.1262344E-006  0.9118800E+02  0.7816164E-02  0.1184000E+00
        -11   -1    0    0    0    0  0.00000000000E+00  0.00000000000E+00  0.45593999997E+02  0.45594000000E+02  0.51100000000E-03 0.  1.
         11   -1    0    0    0    0 -0.00000000000E+00 -0.00000000000E+00 -0.45593999997E+02  0.45594000000E+02  0.51100000000E-03 0. -1.
         23    2    1    2    0    0 -0.35527136788E-14  0.00000000000E+00 -0.35527136788E-14  0.91188000000E+02  0.91188000000E+02 0.  0.
    9900012    2    3    3    0    0  0.20835247186E+02 -0.11192968563E+02 -0.28220420907E+02  0.54367051795E+02  0.39999926177E+02 0.  0.
        -12    1    3    3    0    0 -0.20835247186E+02  0.11192968563E+02  0.28220420907E+02  0.36820948205E+02  0.00000000000E+00 0.  1.
         11    1    4    4    0    0 -0.40376061896E+01 -0.40717071465E+01 -0.20506104938E+02  0.21292754702E+02  0.51100000000E-03 0.  1.
        -11    1    4    4    0    0  0.24371287299E+02 -0.12044531608E+02 -0.60213864770E+01  0.27843984658E+02  0.51100000000E-03 0. -1.
        -12    1    4    4    0    0  0.50156607675E+00  0.49232701913E+01 -0.16929294920E+01  0.52303124353E+01  0.00000000000E+00 0.  1.
</event>
<event>
 8    1  0.1262344E-006  0.9118800E+02  0.7816164E-02  0.1184000E+00
        -11   -1    0    0    0    0  0.00000000000E+00  0.00000000000E+00  0.45593999997E+02  0.45594000000E+02  0.51100000000E-03 0.  1.
         11   -1    0    0    0    0 -0.00000000000E+00 -0.00000000000E+00 -0.45593999997E+02  0.45594000000E+02  0.51100000000E-03 0. -1.
         23    2    1    2    0    0  0.00000000000E+00  0.00000000000E+00  0.35527136788E-14  0.91188000000E+02  0.91188000000E+02 0.  0.
    9900012    2    3    3    0    0 -0.18201157603E+02 -0.15563077477E+02  0.27969418939E+02  0.54367083194E+02  0.39999997758E+02 0.  0.
         12    1    3    3    0    0  0.18201157603E+02  0.15563077477E+02 -0.27969418939E+02  0.36820916806E+02  0.00000000000E+00 0. -1.
         11    1    4    4    0    0 -0.18739357887E+01  0.43412399905E+01 -0.13001351449E+01  0.49039118723E+01  0.51100000000E-03 0. -1.
        -11    1    4    4    0    0  0.14658687097E+01 -0.49050646133E+01 -0.55705163725E+01  0.75656515154E+01  0.51100000000E-03 0.  1.
         12    1    4    4    0    0 -0.17793090524E+02 -0.14999252854E+02  0.34840070456E+02  0.41897519807E+02  0.00000000000E+00 0. -1.
</event>
<event>
 8    1  0.1262344E-006  0.9118800E+02  0.7816164E-02  0.1184000E+00
        -11   -1    0    0    0    0  0.00000000000E+00  0.00000000000E+00  0.45593999997E+02  0.45594000000E+02  0.51100000000E-03 0.  1.
         11   -1    0    0    0    0 -0.00000000000E+00 -0.00000000000E+00 -0.45593999997E+02  0.45594000000E+02  0.51100000000E-03 0. -1.
         23    2    1    2    0    0 -0.17763568394E-14  0.00000000000E+00  0.00000000000E+00  0.91188000000E+02  0.91188000000E+02 0.  0.
    9900012    2    3    3    0    0 -0.83795141404E+01  0.35495510573E+02 -0.50631765292E+01  0.54367037429E+02  0.39999893428E+02 0.  0.
        -12    1    3    3    0    0  0.83795141404E+01 -0.35495510573E+02  0.50631765292E+01  0.36820962571E+02  0.00000000000E+00 0.  1.
         11    1    4    4    0    0 -0.52773624495E+00  0.23824451732E+02  0.36445697357E+01  0.24107382576E+02  0.51100000000E-03 0. -1.
        -11    1    4    4    0    0  0.40807164232E+00  0.17547609214E+02 -0.11025838831E+01  0.17586949794E+02  0.51100000000E-03 0.  1.
        -12    1    4    4    0    0 -0.82598495378E+01 -0.58765503722E+01 -0.76051623818E+01  0.12672705059E+02  0.00000000000E+00 0.  1.
</event>
<event>
 8    1  0.1262344E-006  0.9118800E+02  0.7816164E-02  0.1184000E+00
        -11   -1    0    0    0    0  0.00000000000E+00  0.00000000000E+00  0.45593999997E+02  0.45594000000E+02  0.51100000000E-03 0.  1.
         11   -1    0    0    0    0 -0.00000000000E+00 -0.00000000000E+00 -0.45593999997E+02  0.45594000000E+02  0.51100000000E-03 0. -1.
         23    2    1    2    0    0  0.00000000000E+00  0.17763568394E-14  0.00000000000E+00  0.91188000000E+02  0.91188000000E+02 0.  0.
    9900012    2    3    3    0    0 -0.33529267748E+02  0.14239416432E+02  0.53671866844E+01  0.54367089243E+02  0.40000011547E+02 0.  0.
        -12    1    3    3    0    0  0.33529267748E+02 -0.14239416432E+02 -0.53671866844E+01  0.36820910757E+02  0.00000000000E+00 0.  1.
         11    1    4    4    0    0 -0.15472605648E+02  0.17134463733E+01  0.16278441312E+00  0.15568041722E+02  0.51100000000E-03 0. -1.
        -11    1    4    4    0    0 -0.23621970299E+01 -0.10201237856E+02 -0.91037804354E+00  0.10510662065E+02  0.51100000000E-03 0.  1.
         12    1    4    4    0    0 -0.15694465070E+02  0.22727207915E+02  0.61147803148E+01  0.28288385457E+02  0.00000000000E+00 0. -1.
</event>
<event>
 8    1  0.1262344E-006  0.9118800E+02  0.7816164E-02  0.1184000E+00
        -11   -1    0    0    0    0  0.00000000000E+00  0.00000000000E+00  0.45593999997E+02  0.45594000000E+02  0.51100000000E-03 0.  1.
         11   -1    0    0    0    0 -0.00000000000E+00 -0.00000000000E+00 -0.45593999997E+02  0.45594000000E+02  0.51100000000E-03 0. -1.
         23    2    1    2    0    0 -0.17763568394E-14  0.00000000000E+00  0.00000000000E+00  0.91188000000E+02  0.91188000000E+02 0.  0.
    9900012    2    3    3    0    0 -0.10102719671E+02 -0.23454899346E+02  0.26525128293E+02  0.54367086391E+02  0.40000005045E+02 0.  0.
         12    1    3    3    0    0  0.10102719671E+02  0.23454899346E+02 -0.26525128293E+02  0.36820913609E+02  0.00000000000E+00 0. -1.
         11    1    4    4    0    0 -0.51784009318E+01 -0.79774536208E+01  0.82345753686E+01  0.12580295475E+02  0.51100000000E-03 0. -1.
        -11    1    4    4    0    0  0.49197264203E+01 -0.60786317938E+01 -0.86148247709E+01  0.11634804624E+02  0.51100000000E-03 0.  1.
        -12    1    4    4    0    0 -0.98440451592E+01 -0.93988139313E+01  0.26905377695E+02  0.30151986292E+02  0.00000000000E+00 0.  1.
</event>
<event>
 8    1  0.1262344E-006  0.9118800E+02  0.7816164E-02  0.1184000E+00
        -11   -1    0    0    0    0  0.00000000000E+00  0.00000000000E+00  0.45593999997E+02  0.45594000000E+02  0.51100000000E-03 0.  1.
         11   -1    0    0    0    0 -0.00000000000E+00 -0.00000000000E+00 -0.45593999997E+02  0.45594000000E+02  0.51100000000E-03 0. -1.
         23    2    1    2    0    0  0.00000000000E+00  0.20539125956E-14  0.00000000000E+00  0.91188000000E+02  0.91188000000E+02 0.  0.
    9900012    2    3    3    0    0  0.20531015989E+02  0.12165923106E+00 -0.30565401412E+02  0.54367065981E+02  0.39999958518E+02 0.  0.
        -12    1    3    3    0    0 -0.20531015989E+02 -0.12165923106E+00  0.30565401412E+02  0.36820934019E+02  0.00000000000E+00 0.  1.
         11    1    4    4    0    0  0.12200643822E+02  0.11021264452E+02  0.36571131849E+01  0.16843350525E+02  0.51100000000E-03 0. -1.
        -11    1    4    4    0    0  0.91305389171E+00 -0.30020740622E+01 -0.25311692304E+01  0.40314927779E+01  0.51100000000E-03 0.  1.
         12    1    4    4    0    0  0.74173182748E+01 -0.78975311585E+01 -0.31691345367E+02  0.33492222679E+02  0.00000000000E+00 0. -1.
</event>
<event>
 8    1  0.1262344E-006  0.9118800E+02  0.7816164E-02  0.1184000E+00
        -11   -1    0    0    0    0  0.00000000000E+00  0.00000000000E+00  0.45593999997E+02  0.45594000000E+02  0.51100000000E-03 0. -1.
         11   -1    0    0    0    0 -0.00000000000E+00 -0.00000000000E+00 -0.45593999997E+02  0.45594000000E+02  0.51100000000E-03 0.  1.
         23    2    1    2    0    0  0.00000000000E+00  0.88817841970E-15 -0.17763568394E-14  0.91188000000E+02  0.91188000000E+02 0.  0.
    9900012    2    3    3    0    0 -0.35019329149E+02 -0.69849014769E+01  0.89799162346E+01  0.54367066304E+02  0.39999959252E+02 0.  0.
        -12    1    3    3    0    0  0.35019329149E+02  0.69849014769E+01 -0.89799162346E+01  0.36820933696E+02  0.00000000000E+00 0.  1.
         11    1    4    4    0    0 -0.19222013711E+02 -0.13938817616E+01  0.18688304281E+02  0.26845510512E+02  0.51100000000E-03 0.  1.
        -11    1    4    4    0    0  0.13372635407E+01 -0.31486825640E+01  0.41292183709E+01  0.53621749582E+01  0.51100000000E-03 0. -1.
        -12    1    4    4    0    0 -0.17134578979E+02 -0.24423371514E+01 -0.13837606418E+02  0.22159380833E+02  0.00000000000E+00 0.  1.
</event>
<event>
 8    1  0.1262344E-006  0.9118800E+02  0.7816164E-02  0.1184000E+00
        -11   -1    0    0    0    0  0.00000000000E+00  0.00000000000E+00  0.45593999997E+02  0.45594000000E+02  0.51100000000E-03 0.  1.
         11   -1    0    0    0    0 -0.00000000000E+00 -0.00000000000E+00 -0.45593999997E+02  0.45594000000E+02  0.51100000000E-03 0. -1.
         23    2    1    2    0    0 -0.17763568394E-14  0.00000000000E+00  0.35527136788E-14  0.91188000000E+02  0.91188000000E+02 0.  0.
    9900012    2    3    3    0    0 -0.12158658437E+02 -0.21503656923E+02  0.27304551349E+02  0.54367098865E+02  0.40000033482E+02 0.  0.
         12    1    3    3    0    0  0.12158658437E+02  0.21503656923E+02 -0.27304551349E+02  0.36820901135E+02  0.00000000000E+00 0. -1.
         11    1    4    4    0    0  0.41504463354E+01 -0.76061632406E+01 -0.12517359621E+01  0.87548139446E+01  0.51100000000E-03 0. -1.
        -11    1    4    4    0    0 -0.24421680903E+02 -0.90252276667E+01  0.19672452857E+02  0.32632478211E+02  0.51100000000E-03 0.  1.
         12    1    4    4    0    0  0.81125761301E+01 -0.48722660154E+01  0.88838344543E+01  0.12979806709E+02  0.00000000000E+00 0. -1.
</event>
<event>
 8    1  0.1262344E-006  0.9118800E+02  0.7816164E-02  0.1184000E+00
        -11   -1    0    0    0    0  0.00000000000E+00  0.00000000000E+00  0.45593999997E+02  0.45594000000E+02  0.51100000000E-03 0.  1.
         11   -1    0    0    0    0 -0.00000000000E+00 -0.00000000000E+00 -0.45593999997E+02  0.45594000000E+02  0.51100000000E-03 0. -1.
         23    2    1    2    0    0 -0.35527136788E-14  0.35527136788E-14 -0.22204460493E-14  0.91188000000E+02  0.91188000000E+02 0.  0.
    9900012    2    3    3    0    0  0.28848606941E+02 -0.22688350847E+02  0.29625365067E+01  0.54367081908E+02  0.39999994826E+02 0.  0.
         12    1    3    3    0    0 -0.28848606941E+02  0.22688350847E+02 -0.29625365067E+01  0.36820918092E+02  0.00000000000E+00 0. -1.
         11    1    4    4    0    0  0.21988630189E+02 -0.93849684810E+01  0.70068062187E+01  0.24913306176E+02  0.51100000000E-03 0. -1.
        -11    1    4    4    0    0  0.36937287596E+01 -0.94061818265E+01  0.10195229534E+02  0.14354880502E+02  0.51100000000E-03 0.  1.
         12    1    4    4    0    0  0.31662479926E+01 -0.38972005395E+01 -0.14239499246E+02  0.15098895231E+02  0.00000000000E+00 0. -1.
</event>
<event>
 8    1  0.1262344E-006  0.9118800E+02  0.7816164E-02  0.1184000E+00
        -11   -1    0    0    0    0  0.00000000000E+00  0.00000000000E+00  0.45593999997E+02  0.45594000000E+02  0.51100000000E-03 0.  1.
         11   -1    0    0    0    0 -0.00000000000E+00 -0.00000000000E+00 -0.45593999997E+02  0.45594000000E+02  0.51100000000E-03 0. -1.
         23    2    1    2    0    0  0.00000000000E+00  0.88817841970E-15  0.17763568394E-14  0.91188000000E+02  0.91188000000E+02 0.  0.
    9900012    2    3    3    0    0  0.33051703845E+02 -0.61885869527E+01 -0.15002232397E+02  0.54367072358E+02  0.39999973055E+02 0.  0.
         12    1    3    3    0    0 -0.33051703845E+02  0.61885869527E+01  0.15002232397E+02  0.36820927642E+02  0.00000000000E+00 0. -1.
         11    1    4    4    0    0  0.38398009339E+01 -0.88775712230E+01 -0.35557546688E+00  0.96789346627E+01  0.51100000000E-03 0. -1.
        -11    1    4    4    0    0  0.22046583971E+02 -0.40372956383E+00  0.58019958558E+01  0.22800833724E+02  0.51100000000E-03 0.  1.
         12    1    4    4    0    0  0.71653189399E+01  0.30927138341E+01 -0.20448652786E+02  0.21887303971E+02  0.00000000000E+00 0. -1.
</event>
<event>
 8    1  0.1262344E-006  0.9118800E+02  0.7816164E-02  0.1184000E+00
        -11   -1    0    0    0    0  0.00000000000E+00  0.00000000000E+00  0.45593999997E+02  0.45594000000E+02  0.51100000000E-03 0.  1.
         11   -1    0    0    0    0 -0.00000000000E+00 -0.00000000000E+00 -0.45593999997E+02  0.45594000000E+02  0.51100000000E-03 0. -1.
         23    2    1    2    0    0 -0.88817841970E-15  0.35527136788E-14  0.00000000000E+00  0.91188000000E+02  0.91188000000E+02 0.  0.
    9900012    2    3    3    0    0  0.62898697339E+01 -0.16524176856E+02  0.32298123431E+02  0.54367086660E+02  0.40000005659E+02 0.  0.
         12    1    3    3    0    0 -0.62898697339E+01  0.16524176856E+02 -0.32298123431E+02  0.36820913340E+02  0.00000000000E+00 0. -1.
         11    1    4    4    0    0 -0.93650769178E+01 -0.33955825297E+00  0.65772950709E+01  0.11449051323E+02  0.51100000000E-03 0. -1.
        -11    1    4    4    0    0 -0.11477345953E+01 -0.17271491370E+02  0.10669862511E+02  0.20333904571E+02  0.51100000000E-03 0.  1.
        -12    1    4    4    0    0  0.16802681247E+02  0.10868727666E+01  0.15050965848E+02  0.22584130766E+02  0.00000000000E+00 0.  1.
</event>
<event>
 8    1  0.1262344E-006  0.9118800E+02  0.7816164E-02  0.1184000E+00
        -11   -1    0    0    0    0  0.00000000000E+00  0.00000000000E+00  0.45593999997E+02  0.45594000000E+02  0.51100000000E-03 0.  1.
         11   -1    0    0    0    0 -0.00000000000E+00 -0.00000000000E+00 -0.45593999997E+02  0.45594000000E+02  0.51100000000E-03 0. -1.
         23    2    1    2    0    0  0.35527136788E-14 -0.17763568394E-14  0.35527136788E-14  0.91188000000E+02  0.91188000000E+02 0.  0.
    9900012    2    3    3    0    0  0.25018133032E+02 -0.96762419722E+01 -0.25223871107E+02  0.54367077785E+02  0.39999985427E+02 0.  0.
        -12    1    3    3    0    0 -0.25018133032E+02  0.96762419722E+01  0.25223871107E+02  0.36820922215E+02  0.00000000000E+00 0.  1.
         11    1    4    4    0    0  0.17355294915E+02 -0.21516415066E+02 -0.23099195107E+02  0.36024091851E+02  0.51100000000E-03 0. -1.
        -11    1    4    4    0    0  0.27966308592E+01  0.14301427004E+01 -0.55282367665E+01  0.63582902036E+01  0.51100000000E-03 0.  1.
        -12    1    4    4    0    0  0.48662072579E+01  0.10410030393E+02  0.34035607658E+01  0.11984695731E+02  0.00000000000E+00 0.  1.
</event>
<event>
 8    1  0.1262344E-006  0.9118800E+02  0.7816164E-02  0.1184000E+00
        -11   -1    0    0    0    0  0.00000000000E+00  0.00000000000E+00  0.45593999997E+02  0.45594000000E+02  0.51100000000E-03 0.  1.
         11   -1    0    0    0    0 -0.00000000000E+00 -0.00000000000E+00 -0.45593999997E+02  0.45594000000E+02  0.51100000000E-03 0. -1.
         23    2    1    2    0    0  0.00000000000E+00  0.00000000000E+00  0.35527136788E-14  0.91188000000E+02  0.91188000000E+02 0.  0.
    9900012    2    3    3    0    0  0.20565488401E+02 -0.85983077140E+01  0.29307162194E+02  0.54367082513E+02  0.39999996206E+02 0.  0.
         12    1    3    3    0    0 -0.20565488401E+02  0.85983077140E+01 -0.29307162194E+02  0.36820917487E+02  0.00000000000E+00 0. -1.
         11    1    4    4    0    0  0.20181410044E+01  0.90202468857E+01  0.11253255324E+02  0.14562743651E+02  0.51100000000E-03 0. -1.
        -11    1    4    4    0    0  0.67385555290E+01 -0.10335397179E+01  0.18209919838E+02  0.19444215482E+02  0.51100000000E-03 0.  1.
         12    1    4    4    0    0  0.11808791868E+02 -0.16585014882E+02 -0.15601296821E+00  0.20360123380E+02  0.00000000000E+00 0. -1.
</event>
<event>
 8    1  0.1262344E-006  0.9118800E+02  0.7816164E-02  0.1184000E+00
        -11   -1    0    0    0    0  0.00000000000E+00  0.00000000000E+00  0.45593999997E+02  0.45594000000E+02  0.51100000000E-03 0. -1.
         11   -1    0    0    0    0 -0.00000000000E+00 -0.00000000000E+00 -0.45593999997E+02  0.45594000000E+02  0.51100000000E-03 0.  1.
         23    2    1    2    0    0  0.13322676296E-14 -0.35527136788E-14 -0.71054273576E-14  0.91188000000E+02  0.91188000000E+02 0.  0.
    9900012    2    3    3    0    0  0.30823920042E+01 -0.20622471282E+02 -0.30347869254E+02  0.54367073470E+02  0.39999975590E+02 0.  0.
         12    1    3    3    0    0 -0.30823920042E+01  0.20622471282E+02  0.30347869254E+02  0.36820926530E+02  0.00000000000E+00 0. -1.
         11    1    4    4    0    0  0.86438272529E+01 -0.13882920718E+02  0.47415020841E+01  0.17027421399E+02  0.51100000000E-03 0. -1.
        -11    1    4    4    0    0 -0.67007185787E+01 -0.11623268206E+01 -0.22863872782E+02  0.23853874150E+02  0.51100000000E-03 0.  1.
         12    1    4    4    0    0  0.11392833300E+01 -0.55772237437E+01 -0.12225498556E+02  0.13485777921E+02  0.00000000000E+00 0. -1.
</event>
<event>
 8    1  0.1262344E-006  0.9118800E+02  0.7816164E-02  0.1184000E+00
        -11   -1    0    0    0    0  0.00000000000E+00  0.00000000000E+00  0.45593999997E+02  0.45594000000E+02  0.51100000000E-03 0. -1.
         11   -1    0    0    0    0 -0.00000000000E+00 -0.00000000000E+00 -0.45593999997E+02  0.45594000000E+02  0.51100000000E-03 0.  1.
         23    2    1    2    0    0  0.00000000000E+00  0.17763568394E-14  0.00000000000E+00  0.91188000000E+02  0.91188000000E+02 0.  0.
    9900012    2    3    3    0    0 -0.80570234961E+01 -0.14743423264E+02 -0.32764254087E+02  0.54367075201E+02  0.39999979535E+02 0.  0.
         12    1    3    3    0    0  0.80570234961E+01  0.14743423264E+02  0.32764254087E+02  0.36820924799E+02  0.00000000000E+00 0. -1.
         11    1    4    4    0    0  0.24572036888E+01  0.57027767353E+01 -0.23475567532E+01  0.66385642599E+01  0.51100000000E-03 0.  1.
        -11    1    4    4    0    0 -0.46900859318E+01  0.19507939758E+01  0.38538958735E+01  0.63761286726E+01  0.51100000000E-03 0. -1.
         12    1    4    4    0    0 -0.58241412531E+01 -0.22396993975E+02 -0.34270593208E+02  0.41352382268E+02  0.00000000000E+00 0. -1.
</event>
<event>
 8    1  0.1262344E-006  0.9118800E+02  0.7816164E-02  0.1184000E+00
        -11   -1    0    0    0    0  0.00000000000E+00  0.00000000000E+00  0.45593999997E+02  0.45594000000E+02  0.51100000000E-03 0. -1.
         11   -1    0    0    0    0 -0.00000000000E+00 -0.00000000000E+00 -0.45593999997E+02  0.45594000000E+02  0.51100000000E-03 0.  1.
         23    2    1    2    0    0  0.00000000000E+00  0.00000000000E+00  0.00000000000E+00  0.91188000000E+02  0.91188000000E+02 0.  0.
    9900012    2    3    3    0    0 -0.16995392244E+02  0.22192496828E+02  0.23967281799E+02  0.54367070220E+02  0.39999968181E+02 0.  0.
        -12    1    3    3    0    0  0.16995392244E+02 -0.22192496828E+02 -0.23967281799E+02  0.36820929780E+02  0.00000000000E+00 0.  1.
         11    1    4    4    0    0  0.35363800915E+01  0.12404204654E+01 -0.14346827938E+01  0.40128471267E+01  0.51100000000E-03 0.  1.
        -11    1    4    4    0    0 -0.13818074610E+01  0.10912140833E+02 -0.57672247403E+01  0.12419544713E+02  0.51100000000E-03 0. -1.
         12    1    4    4    0    0 -0.19149964875E+02  0.10039935530E+02  0.31169189333E+02  0.37934678380E+02  0.00000000000E+00 0. -1.
</event>
<event>
 8    1  0.1262344E-006  0.9118800E+02  0.7816164E-02  0.1184000E+00
        -11   -1    0    0    0    0  0.00000000000E+00  0.00000000000E+00  0.45593999997E+02  0.45594000000E+02  0.51100000000E-03 0. -1.
         11   -1    0    0    0    0 -0.00000000000E+00 -0.00000000000E+00 -0.45593999997E+02  0.45594000000E+02  0.51100000000E-03 0.  1.
         23    2    1    2    0    0  0.00000000000E+00  0.00000000000E+00  0.00000000000E+00  0.91188000000E+02  0.91188000000E+02 0.  0.
    9900012    2    3    3    0    0 -0.27499171899E+02 -0.18163336802E+02 -0.16421607686E+02  0.54367075814E+02  0.39999980933E+02 0.  0.
         12    1    3    3    0    0  0.27499171899E+02  0.18163336802E+02  0.16421607686E+02  0.36820924186E+02  0.00000000000E+00 0. -1.
         11    1    4    4    0    0  0.61878513804E+01  0.20431113213E+01  0.21932946710E+00  0.65201161227E+01  0.51100000000E-03 0. -1.
        -11    1    4    4    0    0 -0.23129536396E+02 -0.23708562217E+02 -0.89053199276E+01  0.34298339604E+02  0.51100000000E-03 0.  1.
        -12    1    4    4    0    0 -0.10557486884E+02  0.35021140933E+01 -0.77356172250E+01  0.13548620087E+02  0.00000000000E+00 0.  1.
</event>
<event>
 8    1  0.1262344E-006  0.9118800E+02  0.7816164E-02  0.1184000E+00
        -11   -1    0    0    0    0  0.00000000000E+00  0.00000000000E+00  0.45593999997E+02  0.45594000000E+02  0.51100000000E-03 0.  1.
         11   -1    0    0    0    0 -0.00000000000E+00 -0.00000000000E+00 -0.45593999997E+02  0.45594000000E+02  0.51100000000E-03 0. -1.
         23    2    1    2    0    0 -0.35527136788E-14 -0.17763568394E-14 -0.35527136788E-14  0.91188000000E+02  0.91188000000E+02 0.  0.
    9900012    2    3    3    0    0 -0.27683270270E+02  0.14547620358E+02  0.19436651592E+02  0.54367080185E+02  0.39999990898E+02 0.  0.
         12    1    3    3    0    0  0.27683270270E+02 -0.14547620358E+02 -0.19436651592E+02  0.36820919815E+02  0.00000000000E+00 0. -1.
         11    1    4    4    0    0 -0.45375615786E+01  0.12968836557E+01  0.26284785423E+02  0.26705080365E+02  0.51100000000E-03 0. -1.
        -11    1    4    4    0    0 -0.20269118032E+02  0.10595447128E+02 -0.61691397707E+01  0.23688793372E+02  0.51100000000E-03 0.  1.
         12    1    4    4    0    0 -0.28765906597E+01  0.26552895743E+01 -0.67899406100E+00  0.39732064484E+01  0.00000000000E+00 0. -1.
</event>
<event>
 8    1  0.1262344E-006  0.9118800E+02  0.7816164E-02  0.1184000E+00
        -11   -1    0    0    0    0  0.00000000000E+00  0.00000000000E+00  0.45593999997E+02  0.45594000000E+02  0.51100000000E-03 0. -1.
         11   -1    0    0    0    0 -0.00000000000E+00 -0.00000000000E+00 -0.45593999997E+02  0.45594000000E+02  0.51100000000E-03 0.  1.
         23    2    1    2    0    0  0.00000000000E+00  0.88817841970E-15  0.00000000000E+00  0.91188000000E+02  0.91188000000E+02 0.  0.
    9900012    2    3    3    0    0 -0.17659566527E+02 -0.66989504183E+01  0.31607635659E+02  0.54367097532E+02  0.40000030443E+02 0.  0.
        -12    1    3    3    0    0  0.17659566527E+02  0.66989504183E+01 -0.31607635659E+02  0.36820902468E+02  0.00000000000E+00 0.  1.
         11    1    4    4    0    0 -0.25268264384E+00  0.69120757014E+00  0.16961815721E+02  0.16977773977E+02  0.51100000000E-03 0. -1.
        -11    1    4    4    0    0  0.23320087958E+00 -0.15128952803E+02  0.68378660487E+01  0.16604096119E+02  0.51100000000E-03 0.  1.
        -12    1    4    4    0    0 -0.17640084763E+02  0.77387948142E+01  0.78079538899E+01  0.20785227436E+02  0.00000000000E+00 0.  1.
</event>
<event>
 8    1  0.1262344E-006  0.9118800E+02  0.7816164E-02  0.1184000E+00
        -11   -1    0    0    0    0  0.00000000000E+00  0.00000000000E+00  0.45593999997E+02  0.45594000000E+02  0.51100000000E-03 0. -1.
         11   -1    0    0    0    0 -0.00000000000E+00 -0.00000000000E+00 -0.45593999997E+02  0.45594000000E+02  0.51100000000E-03 0.  1.
         23    2    1    2    0    0 -0.71054273576E-14 -0.11102230246E-15 -0.35527136788E-14  0.91188000000E+02  0.91188000000E+02 0.  0.
    9900012    2    3    3    0    0  0.28225851732E+02 -0.65273920641E+00  0.23635877957E+02  0.54367088805E+02  0.40000010548E+02 0.  0.
        -12    1    3    3    0    0 -0.28225851732E+02  0.65273920641E+00 -0.23635877957E+02  0.36820911195E+02  0.00000000000E+00 0.  1.
         11    1    4    4    0    0  0.19983357578E+01 -0.99228641550E+01  0.17515174243E+01  0.10272506626E+02  0.51100000000E-03 0. -1.
        -11    1    4    4    0    0 -0.26335829300E+01  0.15950871624E+01 -0.36692428369E+01  0.47899274903E+01  0.51100000000E-03 0.  1.
         12    1    4    4    0    0  0.28861098904E+02  0.76750377862E+01  0.25553603370E+02  0.39304654688E+02  0.00000000000E+00 0. -1.
</event>
<event>
 8    1  0.1262344E-006  0.9118800E+02  0.7816164E-02  0.1184000E+00
        -11   -1    0    0    0    0  0.00000000000E+00  0.00000000000E+00  0.45593999997E+02  0.45594000000E+02  0.51100000000E-03 0.  1.
         11   -1    0    0    0    0 -0.00000000000E+00 -0.00000000000E+00 -0.45593999997E+02  0.45594000000E+02  0.51100000000E-03 0. -1.
         23    2    1    2    0    0  0.00000000000E+00  0.35527136788E-14 -0.35527136788E-14  0.91188000000E+02  0.91188000000E+02 0.  0.
    9900012    2    3    3    0    0  0.78210766441E+01 -0.23080326443E+02  0.27602691198E+02  0.54367091946E+02  0.40000017708E+02 0.  0.
         12    1    3    3    0    0 -0.78210766441E+01  0.23080326443E+02 -0.27602691198E+02  0.36820908054E+02  0.00000000000E+00 0. -1.
         11    1    4    4    0    0  0.61132156155E+01 -0.20446055888E+01 -0.36591515083E+01  0.74122336173E+01  0.51100000000E-03 0. -1.
        -11    1    4    4    0    0  0.79541202105E+01 -0.19724793036E+02  0.33923929136E+02  0.40039586123E+02  0.51100000000E-03 0.  1.
         12    1    4    4    0    0 -0.62462591818E+01 -0.13109278189E+01 -0.26620864300E+01  0.69152722053E+01  0.00000000000E+00 0. -1.
</event>
<event>
 8    1  0.1262344E-006  0.9118800E+02  0.7816164E-02  0.1184000E+00
        -11   -1    0    0    0    0  0.00000000000E+00  0.00000000000E+00  0.45593999997E+02  0.45594000000E+02  0.51100000000E-03 0.  1.
         11   -1    0    0    0    0 -0.00000000000E+00 -0.00000000000E+00 -0.45593999997E+02  0.45594000000E+02  0.51100000000E-03 0. -1.
         23    2    1    2    0    0 -0.88817841970E-15 -0.71054273576E-14 -0.17763568394E-14  0.91188000000E+02  0.91188000000E+02 0.  0.
    9900012    2    3    3    0    0  0.75768154462E+01  0.35877775423E+02 -0.33402055972E+01  0.54367083729E+02  0.39999998977E+02 0.  0.
         12    1    3    3    0    0 -0.75768154462E+01 -0.35877775423E+02  0.33402055972E+01  0.36820916271E+02  0.00000000000E+00 0. -1.
         11    1    4    4    0    0 -0.31143673876E+00  0.11225505079E+02  0.37494266488E+01  0.11839221156E+02  0.51100000000E-03 0. -1.
        -11    1    4    4    0    0 -0.42627534080E+01  0.19128485496E+02  0.90479557853E+01  0.21585539793E+02  0.51100000000E-03 0.  1.
         12    1    4    4    0    0  0.12151005593E+02  0.55237848478E+01 -0.16137588031E+02  0.20942322780E+02  0.00000000000E+00 0. -1.
</event>
<event>
 8    1  0.1262344E-006  0.9118800E+02  0.7816164E-02  0.1184000E+00
        -11   -1    0    0    0    0  0.00000000000E+00  0.00000000000E+00  0.45593999997E+02  0.45594000000E+02  0.51100000000E-03 0. -1.
         11   -1    0    0    0    0 -0.00000000000E+00 -0.00000000000E+00 -0.45593999997E+02  0.45594000000E+02  0.51100000000E-03 0.  1.
         23    2    1    2    0    0  0.00000000000E+00  0.00000000000E+00  0.35527136788E-14  0.91188000000E+02  0.91188000000E+02 0.  0.
    9900012    2    3    3    0    0  0.23521721067E+02 -0.21423067809E+02 -0.18535371168E+02  0.54367093158E+02  0.40000020473E+02 0.  0.
        -12    1    3    3    0    0 -0.23521721067E+02  0.21423067809E+02  0.18535371168E+02  0.36820906842E+02  0.00000000000E+00 0.  1.
         11    1    4    4    0    0  0.78143790886E+01 -0.13897497134E+02 -0.12966292830E+02  0.20550661720E+02  0.51100000000E-03 0. -1.
        -11    1    4    4    0    0  0.62781882594E+01  0.10939456414E+02 -0.24772029720E+01  0.12853944503E+02  0.51100000000E-03 0.  1.
        -12    1    4    4    0    0  0.94291537193E+01 -0.18465027089E+02 -0.30918753663E+01  0.20962486936E+02  0.00000000000E+00 0.  1.
</event>
<event>
 8    1  0.1262344E-006  0.9118800E+02  0.7816164E-02  0.1184000E+00
        -11   -1    0    0    0    0  0.00000000000E+00  0.00000000000E+00  0.45593999997E+02  0.45594000000E+02  0.51100000000E-03 0. -1.
         11   -1    0    0    0    0 -0.00000000000E+00 -0.00000000000E+00 -0.45593999997E+02  0.45594000000E+02  0.51100000000E-03 0.  1.
         23    2    1    2    0    0  0.00000000000E+00  0.00000000000E+00  0.00000000000E+00  0.91188000000E+02  0.91188000000E+02 0.  0.
    9900012    2    3    3    0    0 -0.34872347918E+02 -0.87299922707E+01  0.79678199196E+01  0.54367087889E+02  0.40000008462E+02 0.  0.
         12    1    3    3    0    0  0.34872347918E+02  0.87299922707E+01 -0.79678199196E+01  0.36820912111E+02  0.00000000000E+00 0. -1.
         11    1    4    4    0    0 -0.25384325238E+02  0.47286481776E+01  0.15369580510E+02  0.30049094607E+02  0.51100000000E-03 0.  1.
        -11    1    4    4    0    0 -0.45028324210E+01  0.26710795117E+00  0.38122819622E+01  0.59059580501E+01  0.51100000000E-03 0. -1.
         12    1    4    4    0    0 -0.49851902593E+01 -0.13725748399E+02 -0.11214042552E+02  0.18412035233E+02  0.00000000000E+00 0. -1.
</event>
<event>
 8    1  0.1262344E-006  0.9118800E+02  0.7816164E-02  0.1184000E+00
        -11   -1    0    0    0    0  0.00000000000E+00  0.00000000000E+00  0.45593999997E+02  0.45594000000E+02  0.51100000000E-03 0. -1.
         11   -1    0    0    0    0 -0.00000000000E+00 -0.00000000000E+00 -0.45593999997E+02  0.45594000000E+02  0.51100000000E-03 0.  1.
         23    2    1    2    0    0 -0.35527136788E-14  0.00000000000E+00 -0.35527136788E-14  0.91188000000E+02  0.91188000000E+02 0.  0.
    9900012    2    3    3    0    0  0.20594296747E+02 -0.14454817087E+02  0.26883401750E+02  0.54367026559E+02  0.39999868645E+02 0.  0.
        -12    1    3    3    0    0 -0.20594296747E+02  0.14454817087E+02 -0.26883401750E+02  0.36820973441E+02  0.00000000000E+00 0.  1.
         11    1    4    4    0    0  0.19060557625E+02  0.78515480977E+00  0.32673150309E+02  0.37834588361E+02  0.51100000000E-03 0. -1.
        -11    1    4    4    0    0  0.16487508484E+01 -0.76676346080E+01 -0.37265652988E+01  0.86832188173E+01  0.51100000000E-03 0.  1.
         12    1    4    4    0    0 -0.11501172649E+00 -0.75723372891E+01 -0.20631832604E+01  0.78492193805E+01  0.00000000000E+00 0. -1.
</event>
<event>
 8    1  0.1262344E-006  0.9118800E+02  0.7816164E-02  0.1184000E+00
        -11   -1    0    0    0    0  0.00000000000E+00  0.00000000000E+00  0.45593999997E+02  0.45594000000E+02  0.51100000000E-03 0.  1.
         11   -1    0    0    0    0 -0.00000000000E+00 -0.00000000000E+00 -0.45593999997E+02  0.45594000000E+02  0.51100000000E-03 0. -1.
         23    2    1    2    0    0 -0.17763568394E-14  0.17763568394E-14  0.00000000000E+00  0.91188000000E+02  0.91188000000E+02 0.  0.
    9900012    2    3    3    0    0 -0.10377157020E+02 -0.15169159265E+02  0.31905967460E+02  0.54367088276E+02  0.40000009343E+02 0.  0.
         12    1    3    3    0    0  0.10377157020E+02  0.15169159265E+02 -0.31905967460E+02  0.36820911724E+02  0.00000000000E+00 0. -1.
         11    1    4    4    0    0 -0.18838444771E+02  0.13842395281E+01  0.13334807748E+02  0.23121855860E+02  0.51100000000E-03 0. -1.
        -11    1    4    4    0    0  0.35111650236E+01  0.14180585853E+01  0.10068214291E+02  0.10756770391E+02  0.51100000000E-03 0.  1.
        -12    1    4    4    0    0  0.49501227277E+01 -0.17971457378E+02  0.85029454215E+01  0.20488462025E+02  0.00000000000E+00 0.  1.
</event>
<event>
 8    1  0.1262344E-006  0.9118800E+02  0.7816164E-02  0.1184000E+00
        -11   -1    0    0    0    0  0.00000000000E+00  0.00000000000E+00  0.45593999997E+02  0.45594000000E+02  0.51100000000E-03 0.  1.
         11   -1    0    0    0    0 -0.00000000000E+00 -0.00000000000E+00 -0.45593999997E+02  0.45594000000E+02  0.51100000000E-03 0. -1.
         23    2    1    2    0    0  0.00000000000E+00  0.00000000000E+00  0.00000000000E+00  0.91188000000E+02  0.91188000000E+02 0.  0.
    9900012    2    3    3    0    0 -0.22208714473E+02  0.31779752954E+01  0.29196784270E+02  0.54367099180E+02  0.40000034201E+02 0.  0.
         12    1    3    3    0    0  0.22208714473E+02 -0.31779752954E+01 -0.29196784270E+02  0.36820900820E+02  0.00000000000E+00 0. -1.
         11    1    4    4    0    0 -0.77455020215E+01 -0.16127263586E+02  0.13499901476E+02  0.22412692218E+02  0.51100000000E-03 0. -1.
        -11    1    4    4    0    0 -0.10197391922E+02  0.49359979287E+01  0.12026817372E+02  0.16522566808E+02  0.51100000000E-03 0.  1.
         12    1    4    4    0    0 -0.42658205294E+01  0.14369240953E+02  0.36700654218E+01  0.15431840154E+02  0.00000000000E+00 0. -1.
</event>
<event>
 8    1  0.1262344E-006  0.9118800E+02  0.7816164E-02  0.1184000E+00
        -11   -1    0    0    0    0  0.00000000000E+00  0.00000000000E+00  0.45593999997E+02  0.45594000000E+02  0.51100000000E-03 0. -1.
         11   -1    0    0    0    0 -0.00000000000E+00 -0.00000000000E+00 -0.45593999997E+02  0.45594000000E+02  0.51100000000E-03 0.  1.
         23    2    1    2    0    0 -0.13322676296E-14  0.00000000000E+00  0.00000000000E+00  0.91188000000E+02  0.91188000000E+02 0.  0.
    9900012    2    3    3    0    0 -0.21202655106E+01  0.11315307666E+02 -0.34974968690E+02  0.54367080018E+02  0.39999990518E+02 0.  0.
         12    1    3    3    0    0  0.21202655106E+01 -0.11315307666E+02  0.34974968690E+02  0.36820919982E+02  0.00000000000E+00 0. -1.
         11    1    4    4    0    0 -0.65121545108E+01  0.19133053937E+02 -0.11619078641E+02  0.23312762557E+02  0.51100000000E-03 0.  1.
        -11    1    4    4    0    0  0.85507348180E+01  0.17127920185E+01 -0.16305639871E+02  0.18491149621E+02  0.51100000000E-03 0. -1.
         12    1    4    4    0    0 -0.41588458179E+01 -0.95305382891E+01 -0.70502501779E+01  0.12563167840E+02  0.00000000000E+00 0. -1.
</event>
<event>
 8    1  0.1262344E-006  0.9118800E+02  0.7816164E-02  0.1184000E+00
        -11   -1    0    0    0    0  0.00000000000E+00  0.00000000000E+00  0.45593999997E+02  0.45594000000E+02  0.51100000000E-03 0. -1.
         11   -1    0    0    0    0 -0.00000000000E+00 -0.00000000000E+00 -0.45593999997E+02  0.45594000000E+02  0.51100000000E-03 0.  1.
         23    2    1    2    0    0  0.35527136788E-14  0.00000000000E+00  0.13322676296E-14  0.91188000000E+02  0.91188000000E+02 0.  0.
    9900012    2    3    3    0    0 -0.21208170453E+02  0.29942315514E+02  0.30742443127E+01  0.54367085693E+02  0.40000003454E+02 0.  0.
         12    1    3    3    0    0  0.21208170453E+02 -0.29942315514E+02 -0.30742443127E+01  0.36820914307E+02  0.00000000000E+00 0. -1.
         11    1    4    4    0    0 -0.21214920852E+02  0.10294295372E+02  0.13173307503E+02  0.27010764794E+02  0.51100000000E-03 0. -1.
        -11    1    4    4    0    0 -0.77795722927E+01  0.12632693303E+02 -0.46734481194E+01  0.15554671412E+02  0.51100000000E-03 0.  1.
         12    1    4    4    0    0  0.77863226910E+01  0.70153268388E+01 -0.54256150709E+01  0.11801649486E+02  0.00000000000E+00 0. -1.
</event>
<event>
 8    1  0.1262344E-006  0.9118800E+02  0.7816164E-02  0.1184000E+00
        -11   -1    0    0    0    0  0.00000000000E+00  0.00000000000E+00  0.45593999997E+02  0.45594000000E+02  0.51100000000E-03 0. -1.
         11   -1    0    0    0    0 -0.00000000000E+00 -0.00000000000E+00 -0.45593999997E+02  0.45594000000E+02  0.51100000000E-03 0.  1.
         23    2    1    2    0    0 -0.16653345369E-15 -0.35527136788E-14 -0.35527136788E-14  0.91188000000E+02  0.91188000000E+02 0.  0.
    9900012    2    3    3    0    0  0.27248651113E+00  0.28485522038E+02  0.23329820855E+02  0.54367085348E+02  0.40000002668E+02 0.  0.
        -12    1    3    3    0    0 -0.27248651113E+00 -0.28485522038E+02 -0.23329820855E+02  0.36820914652E+02  0.00000000000E+00 0.  1.
         11    1    4    4    0    0 -0.62693451232E+01  0.23176590322E+01  0.78996721644E+01  0.10347997499E+02  0.51100000000E-03 0. -1.
        -11    1    4    4    0    0 -0.71133538235E+01 -0.38919908716E+01  0.18349495457E+01  0.83135092265E+01  0.51100000000E-03 0.  1.
        -12    1    4    4    0    0  0.13655185458E+02  0.30059853877E+02  0.13595199145E+02  0.35705578623E+02  0.00000000000E+00 0.  1.
</event>
<event>
 8    1  0.1262344E-006  0.9118800E+02  0.7816164E-02  0.1184000E+00
        -11   -1    0    0    0    0  0.00000000000E+00  0.00000000000E+00  0.45593999997E+02  0.45594000000E+02  0.51100000000E-03 0.  1.
         11   -1    0    0    0    0 -0.00000000000E+00 -0.00000000000E+00 -0.45593999997E+02  0.45594000000E+02  0.51100000000E-03 0. -1.
         23    2    1    2    0    0  0.00000000000E+00 -0.17763568394E-14 -0.35527136788E-14  0.91188000000E+02  0.91188000000E+02 0.  0.
    9900012    2    3    3    0    0 -0.27437321060E+02 -0.12633258651E+02  0.21056437424E+02  0.54367090613E+02  0.40000014670E+02 0.  0.
         12    1    3    3    0    0  0.27437321060E+02  0.12633258651E+02 -0.21056437424E+02  0.36820909387E+02  0.00000000000E+00 0. -1.
         11    1    4    4    0    0 -0.52799346409E+01  0.50100861748E+01 -0.70138108152E+01  0.10108027290E+02  0.51100000000E-03 0. -1.
        -11    1    4    4    0    0 -0.75431828501E+01  0.24642508709E+01  0.12878194739E+02  0.15126798732E+02  0.51100000000E-03 0.  1.
         12    1    4    4    0    0 -0.14614203569E+02 -0.20107595696E+02  0.15192053500E+02  0.29132264591E+02  0.00000000000E+00 0. -1.
</event>
<event>
 8    1  0.1262344E-006  0.9118800E+02  0.7816164E-02  0.1184000E+00
        -11   -1    0    0    0    0  0.00000000000E+00  0.00000000000E+00  0.45593999997E+02  0.45594000000E+02  0.51100000000E-03 0.  1.
         11   -1    0    0    0    0 -0.00000000000E+00 -0.00000000000E+00 -0.45593999997E+02  0.45594000000E+02  0.51100000000E-03 0. -1.
         23    2    1    2    0    0 -0.35527136788E-14  0.88817841970E-15  0.00000000000E+00  0.91188000000E+02  0.91188000000E+02 0.  0.
    9900012    2    3    3    0    0 -0.27890069945E+02 -0.57915321547E+01  0.23332018522E+02  0.54367069342E+02  0.39999966178E+02 0.  0.
         12    1    3    3    0    0  0.27890069945E+02  0.57915321547E+01 -0.23332018522E+02  0.36820930658E+02  0.00000000000E+00 0. -1.
         11    1    4    4    0    0 -0.47808902573E+01  0.78146700812E+01  0.21085526876E+01  0.94006369374E+01  0.51100000000E-03 0. -1.
        -11    1    4    4    0    0 -0.61734624680E+01 -0.45891247684E+01 -0.72904893237E+01  0.10598251734E+02  0.51100000000E-03 0.  1.
        -12    1    4    4    0    0 -0.16935717220E+02 -0.90170774675E+01  0.28513955158E+02  0.34368180670E+02  0.00000000000E+00 0.  1.
</event>
<event>
 8    1  0.1262344E-006  0.9118800E+02  0.7816164E-02  0.1184000E+00
        -11   -1    0    0    0    0  0.00000000000E+00  0.00000000000E+00  0.45593999997E+02  0.45594000000E+02  0.51100000000E-03 0.  1.
         11   -1    0    0    0    0 -0.00000000000E+00 -0.00000000000E+00 -0.45593999997E+02  0.45594000000E+02  0.51100000000E-03 0. -1.
         23    2    1    2    0    0 -0.44408920985E-15 -0.17763568394E-14  0.71054273576E-14  0.91188000000E+02  0.91188000000E+02 0.  0.
    9900012    2    3    3    0    0 -0.19980951820E+01 -0.13872158238E+02  0.34049206979E+02  0.54367113883E+02  0.40000067719E+02 0.  0.
         12    1    3    3    0    0  0.19980951820E+01  0.13872158238E+02 -0.34049206979E+02  0.36820886117E+02  0.00000000000E+00 0. -1.
         11    1    4    4    0    0 -0.17346118215E+02 -0.73993084926E+01  0.23060080016E+02  0.29789341616E+02  0.51100000000E-03 0. -1.
        -11    1    4    4    0    0  0.38408997623E+01  0.33751993125E+01 -0.10622198268E+01  0.52223359337E+01  0.51100000000E-03 0.  1.
         12    1    4    4    0    0  0.11507123271E+02 -0.98480490578E+01  0.12051346790E+02  0.19355436334E+02  0.00000000000E+00 0. -1.
</event>
<event>
 8    1  0.1262344E-006  0.9118800E+02  0.7816164E-02  0.1184000E+00
        -11   -1    0    0    0    0  0.00000000000E+00  0.00000000000E+00  0.45593999997E+02  0.45594000000E+02  0.51100000000E-03 0.  1.
         11   -1    0    0    0    0 -0.00000000000E+00 -0.00000000000E+00 -0.45593999997E+02  0.45594000000E+02  0.51100000000E-03 0. -1.
         23    2    1    2    0    0  0.00000000000E+00 -0.88817841970E-15 -0.35527136788E-14  0.91188000000E+02  0.91188000000E+02 0.  0.
    9900012    2    3    3    0    0  0.22215398516E+02 -0.62708687669E+01 -0.28686807730E+02  0.54367073015E+02  0.39999974551E+02 0.  0.
        -12    1    3    3    0    0 -0.22215398516E+02  0.62708687669E+01  0.28686807730E+02  0.36820926985E+02  0.00000000000E+00 0.  1.
         11    1    4    4    0    0  0.51083230778E+01  0.22483113282E+01 -0.88077201552E+01  0.10427166590E+02  0.51100000000E-03 0. -1.
        -11    1    4    4    0    0  0.13517667240E+01  0.28697012990E+01 -0.23881781705E+02  0.24091532880E+02  0.51100000000E-03 0.  1.
        -12    1    4    4    0    0  0.15755308714E+02 -0.11388881394E+02  0.40026941303E+01  0.19848373545E+02  0.00000000000E+00 0.  1.
</event>
<event>
 8    1  0.1262344E-006  0.9118800E+02  0.7816164E-02  0.1184000E+00
        -11   -1    0    0    0    0  0.00000000000E+00  0.00000000000E+00  0.45593999997E+02  0.45594000000E+02  0.51100000000E-03 0. -1.
         11   -1    0    0    0    0 -0.00000000000E+00 -0.00000000000E+00 -0.45593999997E+02  0.45594000000E+02  0.51100000000E-03 0.  1.
         23    2    1    2    0    0  0.00000000000E+00  0.00000000000E+00 -0.71054273576E-14  0.91188000000E+02  0.91188000000E+02 0.  0.
    9900012    2    3    3    0    0  0.24253070594E+01 -0.13253974689E+02 -0.34267033673E+02  0.54367088059E+02  0.40000008849E+02 0.  0.
         12    1    3    3    0    0 -0.24253070594E+01  0.13253974689E+02  0.34267033673E+02  0.36820911941E+02  0.00000000000E+00 0. -1.
         11    1    4    4    0    0 -0.13818751494E+02 -0.13280630325E+02 -0.10846244754E+02  0.22022126605E+02  0.51100000000E-03 0. -1.
        -11    1    4    4    0    0  0.87163448581E+01 -0.75917069199E+01 -0.11195634678E+02  0.16091951956E+02  0.51100000000E-03 0.  1.
         12    1    4    4    0    0  0.75277136953E+01  0.76183625568E+01 -0.12225154241E+02  0.16253009498E+02  0.00000000000E+00 0. -1.
</event>
<event>
 8    1  0.1262344E-006  0.9118800E+02  0.7816164E-02  0.1184000E+00
        -11   -1    0    0    0    0  0.00000000000E+00  0.00000000000E+00  0.45593999997E+02  0.45594000000E+02  0.51100000000E-03 0.  1.
         11   -1    0    0    0    0 -0.00000000000E+00 -0.00000000000E+00 -0.45593999997E+02  0.45594000000E+02  0.51100000000E-03 0. -1.
         23    2    1    2    0    0  0.00000000000E+00  0.00000000000E+00 -0.31086244690E-14  0.91188000000E+02  0.91188000000E+02 0.  0.
    9900012    2    3    3    0    0  0.16120786392E+02 -0.33018156690E+02  0.23875890189E+01  0.54367095524E+02  0.40000025865E+02 0.  0.
         12    1    3    3    0    0 -0.16120786392E+02  0.33018156690E+02 -0.23875890189E+01  0.36820904476E+02  0.00000000000E+00 0. -1.
         11    1    4    4    0    0  0.40708021765E+01 -0.39815105087E+01 -0.93183907437E+01  0.10920451575E+02  0.51100000000E-03 0. -1.
        -11    1    4    4    0    0  0.79506818185E+01 -0.19939733376E+02  0.20840657163E+02  0.29918878651E+02  0.51100000000E-03 0.  1.
        -12    1    4    4    0    0  0.40993023974E+01 -0.90969128057E+01 -0.91346774002E+01  0.13527765297E+02  0.00000000000E+00 0.  1.
</event>
<event>
 8    1  0.1262344E-006  0.9118800E+02  0.7816164E-02  0.1184000E+00
        -11   -1    0    0    0    0  0.00000000000E+00  0.00000000000E+00  0.45593999997E+02  0.45594000000E+02  0.51100000000E-03 0.  1.
         11   -1    0    0    0    0 -0.00000000000E+00 -0.00000000000E+00 -0.45593999997E+02  0.45594000000E+02  0.51100000000E-03 0. -1.
         23    2    1    2    0    0  0.00000000000E+00  0.17763568394E-14  0.71054273576E-14  0.91188000000E+02  0.91188000000E+02 0.  0.
    9900012    2    3    3    0    0  0.62462741582E+01 -0.12130417220E+02 -0.34199660182E+02  0.54367085843E+02  0.40000003797E+02 0.  0.
        -12    1    3    3    0    0 -0.62462741582E+01  0.12130417220E+02  0.34199660182E+02  0.36820914157E+02  0.00000000000E+00 0.  1.
         11    1    4    4    0    0 -0.10552532360E+02  0.51335634669E+01 -0.22269037075E+01  0.11944392553E+02  0.51100000000E-03 0.  1.
        -11    1    4    4    0    0  0.16674631748E+02 -0.10059395810E+02 -0.17182810883E+02  0.25970825518E+02  0.51100000000E-03 0. -1.
        -12    1    4    4    0    0  0.12417477059E+00 -0.72045848769E+01 -0.14789945591E+02  0.16451867772E+02  0.00000000000E+00 0.  1.
</event>
<event>
 8    1  0.1262344E-006  0.9118800E+02  0.7816164E-02  0.1184000E+00
        -11   -1    0    0    0    0  0.00000000000E+00  0.00000000000E+00  0.45593999997E+02  0.45594000000E+02  0.51100000000E-03 0.  1.
         11   -1    0    0    0    0 -0.00000000000E+00 -0.00000000000E+00 -0.45593999997E+02  0.45594000000E+02  0.51100000000E-03 0. -1.
         23    2    1    2    0    0  0.00000000000E+00  0.17763568394E-14  0.17763568394E-14  0.91188000000E+02  0.91188000000E+02 0.  0.
    9900012    2    3    3    0    0  0.33692531309E+02 -0.83556380864E+01 -0.12279015754E+02  0.54367114871E+02  0.40000069970E+02 0.  0.
        -12    1    3    3    0    0 -0.33692531309E+02  0.83556380864E+01  0.12279015754E+02  0.36820885129E+02  0.00000000000E+00 0.  1.
         11    1    4    4    0    0  0.20036246896E+02 -0.18489825183E+02 -0.18673471684E+02  0.33045776885E+02  0.51100000000E-03 0. -1.
        -11    1    4    4    0    0  0.10271494194E+01  0.38537139078E+01 -0.24428210846E+01  0.46769137180E+01  0.51100000000E-03 0.  1.
         12    1    4    4    0    0  0.12629134993E+02  0.62804731888E+01  0.88372770143E+01  0.16644424267E+02  0.00000000000E+00 0. -1.
</event>
<event>
 8    1  0.1262344E-006  0.9118800E+02  0.7816164E-02  0.1184000E+00
        -11   -1    0    0    0    0  0.00000000000E+00  0.00000000000E+00  0.45593999997E+02  0.45594000000E+02  0.51100000000E-03 0. -1.
         11   -1    0    0    0    0 -0.00000000000E+00 -0.00000000000E+00 -0.45593999997E+02  0.45594000000E+02  0.51100000000E-03 0.  1.
         23    2    1    2    0    0  0.00000000000E+00  0.00000000000E+00  0.00000000000E+00  0.91188000000E+02  0.91188000000E+02 0.  0.
    9900012    2    3    3    0    0  0.14810227983E+02  0.10373811560E+02 -0.32075233055E+02  0.54367090251E+02  0.40000013844E+02 0.  0.
         12    1    3    3    0    0 -0.14810227983E+02 -0.10373811560E+02  0.32075233055E+02  0.36820909749E+02  0.00000000000E+00 0. -1.
         11    1    4    4    0    0  0.20464964964E+02  0.15258855535E+02 -0.46809376919E+01  0.25953008326E+02  0.51100000000E-03 0. -1.
        -11    1    4    4    0    0 -0.42373742800E+01 -0.41821022833E+01 -0.21080805335E+02  0.21905380027E+02  0.51100000000E-03 0.  1.
         12    1    4    4    0    0 -0.14173627008E+01 -0.70294169213E+00 -0.63134900286E+01  0.65087018974E+01  0.00000000000E+00 0. -1.
</event>
<event>
 8    1  0.1262344E-006  0.9118800E+02  0.7816164E-02  0.1184000E+00
        -11   -1    0    0    0    0  0.00000000000E+00  0.00000000000E+00  0.45593999997E+02  0.45594000000E+02  0.51100000000E-03 0.  1.
         11   -1    0    0    0    0 -0.00000000000E+00 -0.00000000000E+00 -0.45593999997E+02  0.45594000000E+02  0.51100000000E-03 0. -1.
         23    2    1    2    0    0 -0.17763568394E-14  0.35527136788E-14 -0.71054273576E-14  0.91188000000E+02  0.91188000000E+02 0.  0.
    9900012    2    3    3    0    0 -0.11189249863E+02  0.18546874853E+02 -0.29775721894E+02  0.54367088908E+02  0.40000010784E+02 0.  0.
        -12    1    3    3    0    0  0.11189249863E+02 -0.18546874853E+02  0.29775721894E+02  0.36820911092E+02  0.00000000000E+00 0.  1.
         11    1    4    4    0    0 -0.43395950948E+01  0.14465862311E+02 -0.55491924083E+00  0.15112947880E+02  0.51100000000E-03 0.  1.
        -11    1    4    4    0    0 -0.28120939252E+01 -0.10532845942E+02 -0.10193244923E+02  0.14924843658E+02  0.51100000000E-03 0. -1.
         12    1    4    4    0    0 -0.40375608427E+01  0.14613858484E+02 -0.19027557731E+02  0.24329297371E+02  0.00000000000E+00 0. -1.
</event>
<event>
 8    1  0.1262344E-006  0.9118800E+02  0.7816164E-02  0.1184000E+00
        -11   -1    0    0    0    0  0.00000000000E+00  0.00000000000E+00  0.45593999997E+02  0.45594000000E+02  0.51100000000E-03 0.  1.
         11   -1    0    0    0    0 -0.00000000000E+00 -0.00000000000E+00 -0.45593999997E+02  0.45594000000E+02  0.51100000000E-03 0. -1.
         23    2    1    2    0    0  0.00000000000E+00  0.00000000000E+00  0.35527136788E-14  0.91188000000E+02  0.91188000000E+02 0.  0.
    9900012    2    3    3    0    0 -0.27262684130E+02 -0.82776198217E+01 -0.23323904650E+02  0.54367116469E+02  0.40000073614E+02 0.  0.
        -12    1    3    3    0    0  0.27262684130E+02  0.82776198217E+01  0.23323904650E+02  0.36820883531E+02  0.00000000000E+00 0.  1.
         11    1    4    4    0    0 -0.30818937135E+02 -0.49985454819E+00 -0.17115889954E+02  0.35256353043E+02  0.51100000000E-03 0. -1.
        -11    1    4    4    0    0 -0.26830112538E+01 -0.71383401101E+01 -0.93747402423E+01  0.12084709504E+02  0.51100000000E-03 0.  1.
        -12    1    4    4    0    0  0.62392642591E+01 -0.63942516340E+00  0.31667255461E+01  0.70260539223E+01  0.00000000000E+00 0.  1.
</event>
<event>
 8    1  0.1262344E-006  0.9118800E+02  0.7816164E-02  0.1184000E+00
        -11   -1    0    0    0    0  0.00000000000E+00  0.00000000000E+00  0.45593999997E+02  0.45594000000E+02  0.51100000000E-03 0.  1.
         11   -1    0    0    0    0 -0.00000000000E+00 -0.00000000000E+00 -0.45593999997E+02  0.45594000000E+02  0.51100000000E-03 0. -1.
         23    2    1    2    0    0 -0.44408920985E-15  0.00000000000E+00  0.00000000000E+00  0.91188000000E+02  0.91188000000E+02 0.  0.
    9900012    2    3    3    0    0  0.33137129037E+01  0.35763196012E+02  0.81113056306E+01  0.54367079843E+02  0.39999990117E+02 0.  0.
         12    1    3    3    0    0 -0.33137129037E+01 -0.35763196012E+02 -0.81113056306E+01  0.36820920157E+02  0.00000000000E+00 0. -1.
         11    1    4    4    0    0  0.15326671431E+01  0.31178818027E+02  0.58744231845E+01  0.31764392173E+02  0.51100000000E-03 0. -1.
        -11    1    4    4    0    0  0.65413752709E+01  0.16720456922E+01 -0.82879081379E+01  0.10689936800E+02  0.51100000000E-03 0.  1.
        -12    1    4    4    0    0 -0.47603295103E+01  0.29123322932E+01  0.10524790584E+02  0.11912750869E+02  0.00000000000E+00 0.  1.
</event>
<event>
 8    1  0.1262344E-006  0.9118800E+02  0.7816164E-02  0.1184000E+00
        -11   -1    0    0    0    0  0.00000000000E+00  0.00000000000E+00  0.45593999997E+02  0.45594000000E+02  0.51100000000E-03 0.  1.
         11   -1    0    0    0    0 -0.00000000000E+00 -0.00000000000E+00 -0.45593999997E+02  0.45594000000E+02  0.51100000000E-03 0. -1.
         23    2    1    2    0    0  0.00000000000E+00  0.17763568394E-14 -0.71054273576E-14  0.91188000000E+02  0.91188000000E+02 0.  0.
    9900012    2    3    3    0    0  0.61838752809E+01 -0.10019522823E+02  0.34887657107E+02  0.54367085162E+02  0.40000002244E+02 0.  0.
         12    1    3    3    0    0 -0.61838752809E+01  0.10019522823E+02 -0.34887657107E+02  0.36820914838E+02  0.00000000000E+00 0. -1.
         11    1    4    4    0    0  0.26051702675E+01  0.57232599789E+01 -0.34525800466E+01  0.71737665245E+01  0.51100000000E-03 0. -1.
        -11    1    4    4    0    0  0.67011486320E+01 -0.10955492609E+02  0.56898583558E+01  0.14046447938E+02  0.51100000000E-03 0.  1.
         12    1    4    4    0    0 -0.31224436187E+01 -0.47872901926E+01  0.32650378798E+02  0.33146870700E+02  0.00000000000E+00 0. -1.
</event>
<event>
 8    1  0.1262344E-006  0.9118800E+02  0.7816164E-02  0.1184000E+00
        -11   -1    0    0    0    0  0.00000000000E+00  0.00000000000E+00  0.45593999997E+02  0.45594000000E+02  0.51100000000E-03 0.  1.
         11   -1    0    0    0    0 -0.00000000000E+00 -0.00000000000E+00 -0.45593999997E+02  0.45594000000E+02  0.51100000000E-03 0. -1.
         23    2    1    2    0    0 -0.35527136788E-14  0.00000000000E+00 -0.44408920985E-15  0.91188000000E+02  0.91188000000E+02 0.  0.
    9900012    2    3    3    0    0 -0.25424661451E+02  0.26452390270E+02 -0.31043247073E+01  0.54367092993E+02  0.40000020096E+02 0.  0.
         12    1    3    3    0    0  0.25424661451E+02 -0.26452390270E+02  0.31043247073E+01  0.36820907007E+02  0.00000000000E+00 0. -1.
         11    1    4    4    0    0 -0.19934158414E+02  0.11488155757E+02 -0.13544389562E+02  0.26698293640E+02  0.51100000000E-03 0. -1.
        -11    1    4    4    0    0  0.91319801680E+00  0.10366910300E+02 -0.40547298916E+01  0.11169046269E+02  0.51100000000E-03 0.  1.
         12    1    4    4    0    0 -0.64037010539E+01  0.45973242128E+01  0.14494794747E+02  0.16499753085E+02  0.00000000000E+00 0. -1.
</event>
<event>
 8    1  0.1262344E-006  0.9118800E+02  0.7816164E-02  0.1184000E+00
        -11   -1    0    0    0    0  0.00000000000E+00  0.00000000000E+00  0.45593999997E+02  0.45594000000E+02  0.51100000000E-03 0.  1.
         11   -1    0    0    0    0 -0.00000000000E+00 -0.00000000000E+00 -0.45593999997E+02  0.45594000000E+02  0.51100000000E-03 0. -1.
         23    2    1    2    0    0  0.71054273576E-14 -0.11102230246E-14  0.17763568394E-14  0.91188000000E+02  0.91188000000E+02 0.  0.
    9900012    2    3    3    0    0 -0.35873328442E+02  0.14291253955E+01 -0.81756916522E+01  0.54367081667E+02  0.39999994275E+02 0.  0.
        -12    1    3    3    0    0  0.35873328442E+02 -0.14291253955E+01  0.81756916522E+01  0.36820918333E+02  0.00000000000E+00 0.  1.
         11    1    4    4    0    0 -0.14017177622E+02 -0.12972894302E+02  0.29027201192E+01  0.19318463692E+02  0.51100000000E-03 0. -1.
        -11    1    4    4    0    0 -0.31872708535E+01 -0.50567872295E+01 -0.39212551458E+01  0.71488484917E+01  0.51100000000E-03 0.  1.
         12    1    4    4    0    0 -0.18668879967E+02  0.19458806927E+02 -0.71571566255E+01  0.27899769483E+02  0.00000000000E+00 0. -1.
</event>
<event>
 8    1  0.1262344E-006  0.9118800E+02  0.7816164E-02  0.1184000E+00
        -11   -1    0    0    0    0  0.00000000000E+00  0.00000000000E+00  0.45593999997E+02  0.45594000000E+02  0.51100000000E-03 0.  1.
         11   -1    0    0    0    0 -0.00000000000E+00 -0.00000000000E+00 -0.45593999997E+02  0.45594000000E+02  0.51100000000E-03 0. -1.
         23    2    1    2    0    0  0.00000000000E+00  0.35527136788E-14  0.00000000000E+00  0.91188000000E+02  0.91188000000E+02 0.  0.
    9900012    2    3    3    0    0 -0.26707459463E+02  0.25278060022E+02  0.18738956039E+01  0.54367079395E+02  0.39999989097E+02 0.  0.
         12    1    3    3    0    0  0.26707459463E+02 -0.25278060022E+02 -0.18738956039E+01  0.36820920605E+02  0.00000000000E+00 0. -1.
         11    1    4    4    0    0 -0.14541897673E+02  0.19720239882E+00  0.10651193290E+02  0.18026469302E+02  0.51100000000E-03 0. -1.
        -11    1    4    4    0    0  0.51422596998E+01  0.68906409286E+01  0.22951615383E+01  0.88989625224E+01  0.51100000000E-03 0.  1.
         12    1    4    4    0    0 -0.17307821490E+02  0.18190216695E+02 -0.11072459225E+02  0.27441647571E+02  0.00000000000E+00 0. -1.
</event>
<event>
 8    1  0.1262344E-006  0.9118800E+02  0.7816164E-02  0.1184000E+00
        -11   -1    0    0    0    0  0.00000000000E+00  0.00000000000E+00  0.45593999997E+02  0.45594000000E+02  0.51100000000E-03 0. -1.
         11   -1    0    0    0    0 -0.00000000000E+00 -0.00000000000E+00 -0.45593999997E+02  0.45594000000E+02  0.51100000000E-03 0.  1.
         23    2    1    2    0    0  0.71054273576E-14  0.88817841970E-15  0.00000000000E+00  0.91188000000E+02  0.91188000000E+02 0.  0.
    9900012    2    3    3    0    0 -0.35591203570E+02  0.73923908076E+01  0.58645500374E+01  0.54367161327E+02  0.40000175877E+02 0.  0.
         12    1    3    3    0    0  0.35591203570E+02 -0.73923908076E+01 -0.58645500374E+01  0.36820838673E+02  0.00000000000E+00 0. -1.
         11    1    4    4    0    0  0.42108594552E+01  0.36727274016E+01  0.98868630092E+00  0.56743074274E+01  0.51100000000E-03 0. -1.
        -11    1    4    4    0    0 -0.71497922628E+01  0.12691830201E+02  0.20833463922E+01  0.14715380243E+02  0.51100000000E-03 0.  1.
         12    1    4    4    0    0 -0.32652270763E+02 -0.89721667947E+01  0.27925173443E+01  0.33977473657E+02  0.00000000000E+00 0. -1.
</event>
<event>
 8    1  0.1262344E-006  0.9118800E+02  0.7816164E-02  0.1184000E+00
        -11   -1    0    0    0    0  0.00000000000E+00  0.00000000000E+00  0.45593999997E+02  0.45594000000E+02  0.51100000000E-03 0. -1.
         11   -1    0    0    0    0 -0.00000000000E+00 -0.00000000000E+00 -0.45593999997E+02  0.45594000000E+02  0.51100000000E-03 0.  1.
         23    2    1    2    0    0  0.00000000000E+00  0.00000000000E+00 -0.17763568394E-14  0.91188000000E+02  0.91188000000E+02 0.  0.
    9900012    2    3    3    0    0  0.32445521836E+02 -0.11348436072E+02 -0.13201557337E+02  0.54367081969E+02  0.39999994965E+02 0.  0.
         12    1    3    3    0    0 -0.32445521836E+02  0.11348436072E+02  0.13201557337E+02  0.36820918031E+02  0.00000000000E+00 0. -1.
         11    1    4    4    0    0 -0.66402520684E+00  0.27267093448E+01  0.22457168602E+01  0.35943174322E+01  0.51100000000E-03 0. -1.
        -11    1    4    4    0    0  0.31538046182E+02 -0.14569887066E+02  0.49615057873E+00  0.34744440299E+02  0.51100000000E-03 0.  1.
        -12    1    4    4    0    0  0.15715008618E+01  0.49474164899E+00 -0.15943424776E+02  0.16028324237E+02  0.00000000000E+00 0.  1.
</event>
<event>
 8    1  0.1262344E-006  0.9118800E+02  0.7816164E-02  0.1184000E+00
        -11   -1    0    0    0    0  0.00000000000E+00  0.00000000000E+00  0.45593999997E+02  0.45594000000E+02  0.51100000000E-03 0.  1.
         11   -1    0    0    0    0 -0.00000000000E+00 -0.00000000000E+00 -0.45593999997E+02  0.45594000000E+02  0.51100000000E-03 0. -1.
         23    2    1    2    0    0 -0.17763568394E-14  0.17763568394E-14  0.71054273576E-14  0.91188000000E+02  0.91188000000E+02 0.  0.
    9900012    2    3    3    0    0  0.83263427297E+01 -0.14182766173E+02 -0.32943892109E+02  0.54367097419E+02  0.40000030187E+02 0.  0.
        -12    1    3    3    0    0 -0.83263427297E+01  0.14182766173E+02  0.32943892109E+02  0.36820902581E+02  0.00000000000E+00 0.  1.
         11    1    4    4    0    0 -0.49047719512E+00 -0.35363518233E+00 -0.17427231075E+02  0.17437717996E+02  0.51100000000E-03 0. -1.
        -11    1    4    4    0    0 -0.74526036121E+00  0.86864388999E+01 -0.18637218748E+01  0.89153291165E+01  0.51100000000E-03 0.  1.
         12    1    4    4    0    0  0.95620802861E+01 -0.22515569890E+02 -0.13652939160E+02  0.28014050307E+02  0.00000000000E+00 0. -1.
</event>
<event>
 8    1  0.1262344E-006  0.9118800E+02  0.7816164E-02  0.1184000E+00
        -11   -1    0    0    0    0  0.00000000000E+00  0.00000000000E+00  0.45593999997E+02  0.45594000000E+02  0.51100000000E-03 0.  1.
         11   -1    0    0    0    0 -0.00000000000E+00 -0.00000000000E+00 -0.45593999997E+02  0.45594000000E+02  0.51100000000E-03 0. -1.
         23    2    1    2    0    0 -0.17763568394E-14 -0.71054273576E-14 -0.13322676296E-14  0.91188000000E+02  0.91188000000E+02 0.  0.
    9900012    2    3    3    0    0  0.13316294485E+02 -0.34140056883E+02 -0.35938796218E+01  0.54367039210E+02  0.39999897487E+02 0.  0.
        -12    1    3    3    0    0 -0.13316294485E+02  0.34140056883E+02  0.35938796218E+01  0.36820960790E+02  0.00000000000E+00 0.  1.
         11    1    4    4    0    0  0.13473145098E+02 -0.14424226393E+02  0.12656213522E+02  0.23447040045E+02  0.51100000000E-03 0. -1.
        -11    1    4    4    0    0 -0.16515050902E+01 -0.47802896798E-01  0.29578487203E+01  0.33880117315E+01  0.51100000000E-03 0.  1.
        -12    1    4    4    0    0  0.14946544769E+01 -0.19668027592E+02 -0.19207941865E+02  0.27531987434E+02  0.00000000000E+00 0.  1.
</event>
<event>
 8    1  0.1262344E-006  0.9118800E+02  0.7816164E-02  0.1184000E+00
        -11   -1    0    0    0    0  0.00000000000E+00  0.00000000000E+00  0.45593999997E+02  0.45594000000E+02  0.51100000000E-03 0. -1.
         11   -1    0    0    0    0 -0.00000000000E+00 -0.00000000000E+00 -0.45593999997E+02  0.45594000000E+02  0.51100000000E-03 0.  1.
         23    2    1    2    0    0  0.35527136788E-14 -0.17763568394E-14 -0.35527136788E-14  0.91188000000E+02  0.91188000000E+02 0.  0.
    9900012    2    3    3    0    0  0.19965815152E+02 -0.11452558460E+02 -0.28740043423E+02  0.54367014599E+02  0.39999841381E+02 0.  0.
         12    1    3    3    0    0 -0.19965815152E+02  0.11452558460E+02  0.28740043423E+02  0.36820985401E+02  0.00000000000E+00 0. -1.
         11    1    4    4    0    0 -0.29038576421E+01  0.41599626193E+01 -0.14426606601E+02  0.15292634060E+02  0.51100000000E-03 0. -1.
        -11    1    4    4    0    0  0.24002491236E+02 -0.50419155166E+01 -0.14403341030E+02  0.28442867836E+02  0.51100000000E-03 0.  1.
        -12    1    4    4    0    0 -0.11328184424E+01 -0.10570605563E+02  0.89904208707E-01  0.10631512703E+02  0.00000000000E+00 0.  1.
</event>
<event>
 8    1  0.1262344E-006  0.9118800E+02  0.7816164E-02  0.1184000E+00
        -11   -1    0    0    0    0  0.00000000000E+00  0.00000000000E+00  0.45593999997E+02  0.45594000000E+02  0.51100000000E-03 0.  1.
         11   -1    0    0    0    0 -0.00000000000E+00 -0.00000000000E+00 -0.45593999997E+02  0.45594000000E+02  0.51100000000E-03 0. -1.
         23    2    1    2    0    0  0.00000000000E+00  0.88817841970E-15  0.00000000000E+00  0.91188000000E+02  0.91188000000E+02 0.  0.
    9900012    2    3    3    0    0 -0.86885469891E+01  0.75064537217E+01 -0.34984934552E+02  0.54367036652E+02  0.39999891655E+02 0.  0.
        -12    1    3    3    0    0  0.86885469891E+01 -0.75064537217E+01  0.34984934552E+02  0.36820963348E+02  0.00000000000E+00 0.  1.
         11    1    4    4    0    0  0.20014385511E+01  0.10794537941E+02 -0.21093624098E+02  0.23779587538E+02  0.51100000000E-03 0. -1.
        -11    1    4    4    0    0 -0.14843935806E+02  0.57785164012E+00 -0.18177909236E+02  0.23475790236E+02  0.51100000000E-03 0.  1.
        -12    1    4    4    0    0  0.41539502661E+01 -0.38659358590E+01  0.42865987820E+01  0.71116588780E+01  0.00000000000E+00 0.  1.
</event>
<event>
 8    1  0.1262344E-006  0.9118800E+02  0.7816164E-02  0.1184000E+00
        -11   -1    0    0    0    0  0.00000000000E+00  0.00000000000E+00  0.45593999997E+02  0.45594000000E+02  0.51100000000E-03 0. -1.
         11   -1    0    0    0    0 -0.00000000000E+00 -0.00000000000E+00 -0.45593999997E+02  0.45594000000E+02  0.51100000000E-03 0.  1.
         23    2    1    2    0    0 -0.88817841970E-15  0.00000000000E+00 -0.71054273576E-14  0.91188000000E+02  0.91188000000E+02 0.  0.
    9900012    2    3    3    0    0 -0.34284965724E+01  0.41477482676E+01  0.36425558880E+02  0.54367085506E+02  0.40000003029E+02 0.  0.
        -12    1    3    3    0    0  0.34284965724E+01 -0.41477482676E+01 -0.36425558880E+02  0.36820914494E+02  0.00000000000E+00 0.  1.
         11    1    4    4    0    0  0.63668134506E+00  0.29536538501E+01  0.17354965419E+02  0.17616022797E+02  0.51100000000E-03 0. -1.
        -11    1    4    4    0    0 -0.12375065358E+02  0.68744890321E+01  0.22094720250E+02  0.26240760379E+02  0.51100000000E-03 0.  1.
        -12    1    4    4    0    0  0.83098874404E+01 -0.56803946146E+01 -0.30241267897E+01  0.10510302331E+02  0.00000000000E+00 0.  1.
</event>
<event>
 8    1  0.1262344E-006  0.9118800E+02  0.7816164E-02  0.1184000E+00
        -11   -1    0    0    0    0  0.00000000000E+00  0.00000000000E+00  0.45593999997E+02  0.45594000000E+02  0.51100000000E-03 0.  1.
         11   -1    0    0    0    0 -0.00000000000E+00 -0.00000000000E+00 -0.45593999997E+02  0.45594000000E+02  0.51100000000E-03 0. -1.
         23    2    1    2    0    0 -0.71054273576E-14 -0.35527136788E-14  0.00000000000E+00  0.91188000000E+02  0.91188000000E+02 0.  0.
    9900012    2    3    3    0    0 -0.31905486863E+02 -0.18073971390E+02  0.33390844369E+01  0.54367108937E+02  0.40000056445E+02 0.  0.
         12    1    3    3    0    0  0.31905486863E+02  0.18073971390E+02 -0.33390844369E+01  0.36820891063E+02  0.00000000000E+00 0. -1.
         11    1    4    4    0    0 -0.29183933700E+02 -0.11375385769E+01  0.29474980508E+01  0.29354449837E+02  0.51100000000E-03 0. -1.
        -11    1    4    4    0    0 -0.31677774564E+01 -0.28903948389E+01  0.79670055523E+01  0.90477828262E+01  0.51100000000E-03 0.  1.
         12    1    4    4    0    0  0.44622429383E+00 -0.14046037974E+02 -0.75754191662E+01  0.15964876274E+02  0.00000000000E+00 0. -1.
</event>
<event>
 8    1  0.1262344E-006  0.9118800E+02  0.7816164E-02  0.1184000E+00
        -11   -1    0    0    0    0  0.00000000000E+00  0.00000000000E+00  0.45593999997E+02  0.45594000000E+02  0.51100000000E-03 0.  1.
         11   -1    0    0    0    0 -0.00000000000E+00 -0.00000000000E+00 -0.45593999997E+02  0.45594000000E+02  0.51100000000E-03 0. -1.
         23    2    1    2    0    0  0.35527136788E-14 -0.35527136788E-14  0.00000000000E+00  0.91188000000E+02  0.91188000000E+02 0.  0.
    9900012    2    3    3    0    0 -0.19689693741E+02 -0.17826686520E+02 -0.25500995972E+02  0.54367141951E+02  0.40000131706E+02 0.  0.
        -12    1    3    3    0    0  0.19689693741E+02  0.17826686520E+02  0.25500995972E+02  0.36820858049E+02  0.00000000000E+00 0.  1.
         11    1    4    4    0    0 -0.26748143161E+01 -0.37395300029E+00 -0.13952631875E+02  0.14211629357E+02  0.51100000000E-03 0. -1.
        -11    1    4    4    0    0 -0.53988538955E+01 -0.24354273599E+02 -0.76848166444E+01  0.26102388263E+02  0.51100000000E-03 0.  1.
        -12    1    4    4    0    0 -0.11616025530E+02  0.69015400794E+01 -0.38635474524E+01  0.14053124332E+02  0.00000000000E+00 0.  1.
</event>
<event>
 8    1  0.1262344E-006  0.9118800E+02  0.7816164E-02  0.1184000E+00
        -11   -1    0    0    0    0  0.00000000000E+00  0.00000000000E+00  0.45593999997E+02  0.45594000000E+02  0.51100000000E-03 0.  1.
         11   -1    0    0    0    0 -0.00000000000E+00 -0.00000000000E+00 -0.45593999997E+02  0.45594000000E+02  0.51100000000E-03 0. -1.
         23    2    1    2    0    0 -0.17763568394E-14  0.00000000000E+00  0.00000000000E+00  0.91188000000E+02  0.91188000000E+02 0.  0.
    9900012    2    3    3    0    0 -0.11251120541E+02  0.17407412804E+02 -0.30433100267E+02  0.54367091187E+02  0.40000015979E+02 0.  0.
        -12    1    3    3    0    0  0.11251120541E+02 -0.17407412804E+02  0.30433100267E+02  0.36820908813E+02  0.00000000000E+00 0.  1.
         11    1    4    4    0    0 -0.10996087599E+01  0.20629853393E+01  0.57934723450E+00  0.24084624585E+01  0.51100000000E-03 0.  1.
        -11    1    4    4    0    0  0.14236092542E+02  0.42254312091E+01 -0.10033339732E+02  0.17921732790E+02  0.51100000000E-03 0. -1.
         12    1    4    4    0    0 -0.24387604323E+02  0.11118996255E+02 -0.20979107769E+02  0.34036895938E+02  0.00000000000E+00 0. -1.
</event>
<event>
 8    1  0.1262344E-006  0.9118800E+02  0.7816164E-02  0.1184000E+00
        -11   -1    0    0    0    0  0.00000000000E+00  0.00000000000E+00  0.45593999997E+02  0.45594000000E+02  0.51100000000E-03 0.  1.
         11   -1    0    0    0    0 -0.00000000000E+00 -0.00000000000E+00 -0.45593999997E+02  0.45594000000E+02  0.51100000000E-03 0. -1.
         23    2    1    2    0    0 -0.35527136788E-14 -0.35527136788E-14  0.00000000000E+00  0.91188000000E+02  0.91188000000E+02 0.  0.
    9900012    2    3    3    0    0 -0.29439598848E+02 -0.20639277664E+02  0.79441170530E+01  0.54367098890E+02  0.40000033539E+02 0.  0.
         12    1    3    3    0    0  0.29439598848E+02  0.20639277664E+02 -0.79441170530E+01  0.36820901110E+02  0.00000000000E+00 0. -1.
         11    1    4    4    0    0  0.30841873823E+01 -0.11846076874E+02  0.23382796949E+01  0.12462315247E+02  0.51100000000E-03 0. -1.
        -11    1    4    4    0    0 -0.12953323954E+02 -0.14556186713E+02  0.85749426681E+01  0.21288513689E+02  0.51100000000E-03 0.  1.
         12    1    4    4    0    0 -0.19570462276E+02  0.57629859231E+01 -0.29691053100E+01  0.20616269954E+02  0.00000000000E+00 0. -1.
</event>
<event>
 8    1  0.1262344E-006  0.9118800E+02  0.7816164E-02  0.1184000E+00
        -11   -1    0    0    0    0  0.00000000000E+00  0.00000000000E+00  0.45593999997E+02  0.45594000000E+02  0.51100000000E-03 0.  1.
         11   -1    0    0    0    0 -0.00000000000E+00 -0.00000000000E+00 -0.45593999997E+02  0.45594000000E+02  0.51100000000E-03 0. -1.
         23    2    1    2    0    0 -0.88817841970E-15  0.00000000000E+00  0.00000000000E+00  0.91188000000E+02  0.91188000000E+02 0.  0.
    9900012    2    3    3    0    0 -0.68774890152E+01  0.17564473497E+02 -0.31622277522E+02  0.54367095338E+02  0.40000025443E+02 0.  0.
        -12    1    3    3    0    0  0.68774890152E+01 -0.17564473497E+02  0.31622277522E+02  0.36820904662E+02  0.00000000000E+00 0.  1.
         11    1    4    4    0    0 -0.78073820771E+01  0.15427555238E+02 -0.29555505204E+02  0.34241678751E+02  0.51100000000E-03 0. -1.
        -11    1    4    4    0    0 -0.87221678116E+01  0.47082254430E+01 -0.21228437380E+01  0.10136570621E+02  0.51100000000E-03 0.  1.
        -12    1    4    4    0    0  0.96520608735E+01 -0.25713071840E+01  0.56071419935E-01  0.99888459666E+01  0.00000000000E+00 0.  1.
</event>
<event>
 8    1  0.1262344E-006  0.9118800E+02  0.7816164E-02  0.1184000E+00
        -11   -1    0    0    0    0  0.00000000000E+00  0.00000000000E+00  0.45593999997E+02  0.45594000000E+02  0.51100000000E-03 0.  1.
         11   -1    0    0    0    0 -0.00000000000E+00 -0.00000000000E+00 -0.45593999997E+02  0.45594000000E+02  0.51100000000E-03 0. -1.
         23    2    1    2    0    0  0.88817841970E-15  0.00000000000E+00  0.00000000000E+00  0.91188000000E+02  0.91188000000E+02 0.  0.
    9900012    2    3    3    0    0 -0.38444030834E+01 -0.36398488538E+02  0.40188651637E+01  0.54367072797E+02  0.39999974055E+02 0.  0.
         12    1    3    3    0    0  0.38444030834E+01  0.36398488538E+02 -0.40188651637E+01  0.36820927203E+02  0.00000000000E+00 0. -1.
         11    1    4    4    0    0  0.15747085362E+02 -0.14373568893E+02  0.28015484869E+01  0.21503926486E+02  0.51100000000E-03 0. -1.
        -11    1    4    4    0    0 -0.16216774573E+01 -0.12296974879E+02  0.68159751508E+00  0.12422157799E+02  0.51100000000E-03 0.  1.
         12    1    4    4    0    0 -0.17969810988E+02 -0.97279447659E+01  0.53571916177E+00  0.20440988512E+02  0.00000000000E+00 0. -1.
</event>
<event>
 8    1  0.1262344E-006  0.9118800E+02  0.7816164E-02  0.1184000E+00
        -11   -1    0    0    0    0  0.00000000000E+00  0.00000000000E+00  0.45593999997E+02  0.45594000000E+02  0.51100000000E-03 0.  1.
         11   -1    0    0    0    0 -0.00000000000E+00 -0.00000000000E+00 -0.45593999997E+02  0.45594000000E+02  0.51100000000E-03 0. -1.
         23    2    1    2    0    0  0.00000000000E+00  0.00000000000E+00  0.00000000000E+00  0.91188000000E+02  0.91188000000E+02 0.  0.
    9900012    2    3    3    0    0  0.24461443338E+02  0.16643766773E+01 -0.27470882846E+02  0.54367058075E+02  0.39999940494E+02 0.  0.
        -12    1    3    3    0    0 -0.24461443338E+02 -0.16643766773E+01  0.27470882846E+02  0.36820941925E+02  0.00000000000E+00 0.  1.
         11    1    4    4    0    0  0.19447753509E+02  0.63777621142E+01 -0.26545949380E+02  0.33519820926E+02  0.51100000000E-03 0. -1.
        -11    1    4    4    0    0  0.79401530896E+01 -0.10453724613E+02  0.27747206410E+01  0.13417356829E+02  0.51100000000E-03 0.  1.
        -12    1    4    4    0    0 -0.29264632608E+01  0.57403391760E+01 -0.36996541069E+01  0.74298803209E+01  0.00000000000E+00 0.  1.
</event>
<event>
 8    1  0.1262344E-006  0.9118800E+02  0.7816164E-02  0.1184000E+00
        -11   -1    0    0    0    0  0.00000000000E+00  0.00000000000E+00  0.45593999997E+02  0.45594000000E+02  0.51100000000E-03 0. -1.
         11   -1    0    0    0    0 -0.00000000000E+00 -0.00000000000E+00 -0.45593999997E+02  0.45594000000E+02  0.51100000000E-03 0.  1.
         23    2    1    2    0    0  0.00000000000E+00  0.00000000000E+00  0.00000000000E+00  0.91188000000E+02  0.91188000000E+02 0.  0.
    9900012    2    3    3    0    0  0.13565999081E+02 -0.25389014589E+02  0.22959570370E+02  0.54367078442E+02  0.39999986923E+02 0.  0.
        -12    1    3    3    0    0 -0.13565999081E+02  0.25389014589E+02 -0.22959570370E+02  0.36820921558E+02  0.00000000000E+00 0.  1.
         11    1    4    4    0    0  0.16974964115E+02 -0.33653160121E+01  0.10875435820E+02  0.20438930087E+02  0.51100000000E-03 0. -1.
        -11    1    4    4    0    0  0.58141240889E+00 -0.14695111530E+02  0.18333262429E+02  0.23503039268E+02  0.51100000000E-03 0.  1.
        -12    1    4    4    0    0 -0.39903774424E+01 -0.73285870461E+01 -0.62491278791E+01  0.10425109087E+02  0.00000000000E+00 0.  1.
</event>
<event>
 8    1  0.1262344E-006  0.9118800E+02  0.7816164E-02  0.1184000E+00
        -11   -1    0    0    0    0  0.00000000000E+00  0.00000000000E+00  0.45593999997E+02  0.45594000000E+02  0.51100000000E-03 0. -1.
         11   -1    0    0    0    0 -0.00000000000E+00 -0.00000000000E+00 -0.45593999997E+02  0.45594000000E+02  0.51100000000E-03 0.  1.
         23    2    1    2    0    0 -0.71054273576E-14  0.00000000000E+00  0.35527136788E-14  0.91188000000E+02  0.91188000000E+02 0.  0.
    9900012    2    3    3    0    0  0.35729846699E+02 -0.41961164059E+01 -0.78454090789E+01  0.54367084998E+02  0.40000001869E+02 0.  0.
        -12    1    3    3    0    0 -0.35729846699E+02  0.41961164059E+01  0.78454090789E+01  0.36820915002E+02  0.00000000000E+00 0.  1.
         11    1    4    4    0    0  0.21023837392E+02 -0.33921073240E+01  0.57992075998E+01  0.22071224248E+02  0.51100000000E-03 0. -1.
        -11    1    4    4    0    0  0.28978455652E+01 -0.71214446515E+01 -0.16853938754E+02  0.18524787033E+02  0.51100000000E-03 0.  1.
        -12    1    4    4    0    0  0.11808163742E+02  0.63174355696E+01  0.32093220748E+01  0.13771073717E+02  0.00000000000E+00 0.  1.
</event>
<event>
 8    1  0.1262344E-006  0.9118800E+02  0.7816164E-02  0.1184000E+00
        -11   -1    0    0    0    0  0.00000000000E+00  0.00000000000E+00  0.45593999997E+02  0.45594000000E+02  0.51100000000E-03 0.  1.
         11   -1    0    0    0    0 -0.00000000000E+00 -0.00000000000E+00 -0.45593999997E+02  0.45594000000E+02  0.51100000000E-03 0. -1.
         23    2    1    2    0    0  0.44408920985E-15  0.00000000000E+00  0.35527136788E-14  0.91188000000E+02  0.91188000000E+02 0.  0.
    9900012    2    3    3    0    0 -0.19247282801E+01  0.24528421284E+02 -0.27394040804E+02  0.54367061647E+02  0.39999948637E+02 0.  0.
        -12    1    3    3    0    0  0.19247282801E+01 -0.24528421284E+02  0.27394040804E+02  0.36820938353E+02  0.00000000000E+00 0.  1.
         11    1    4    4    0    0  0.14968465421E+01 -0.80429417594E+01 -0.15086783219E+02  0.17162181967E+02  0.51100000000E-03 0.  1.
        -11    1    4    4    0    0 -0.72695225401E+01  0.19338530702E+02 -0.10881982248E+02  0.23350423243E+02  0.51100000000E-03 0. -1.
        -12    1    4    4    0    0  0.38479477179E+01  0.13232832341E+02 -0.14252753369E+01  0.13854456438E+02  0.00000000000E+00 0.  1.
</event>
<event>
 8    1  0.1262344E-006  0.9118800E+02  0.7816164E-02  0.1184000E+00
        -11   -1    0    0    0    0  0.00000000000E+00  0.00000000000E+00  0.45593999997E+02  0.45594000000E+02  0.51100000000E-03 0. -1.
         11   -1    0    0    0    0 -0.00000000000E+00 -0.00000000000E+00 -0.45593999997E+02  0.45594000000E+02  0.51100000000E-03 0.  1.
         23    2    1    2    0    0  0.00000000000E+00  0.00000000000E+00 -0.88817841970E-15  0.91188000000E+02  0.91188000000E+02 0.  0.
    9900012    2    3    3    0    0 -0.73617112659E+01 -0.35201238869E+02  0.79040274001E+01  0.54366869385E+02  0.39999510333E+02 0.  0.
        -12    1    3    3    0    0  0.73617112659E+01  0.35201238869E+02 -0.79040274001E+01  0.36821130615E+02  0.00000000000E+00 0.  1.
         11    1    4    4    0    0 -0.69684088704E+01 -0.83389832023E+01  0.74276594471E+01  0.13163110884E+02  0.51100000000E-03 0. -1.
        -11    1    4    4    0    0 -0.70847247916E+01 -0.27594144884E+02  0.94235314521E+01  0.30007217508E+02  0.51100000000E-03 0.  1.
        -12    1    4    4    0    0  0.66914223962E+01  0.73188921777E+00 -0.89471634992E+01  0.11196540992E+02  0.00000000000E+00 0.  1.
</event>
<event>
 8    1  0.1262344E-006  0.9118800E+02  0.7816164E-02  0.1184000E+00
        -11   -1    0    0    0    0  0.00000000000E+00  0.00000000000E+00  0.45593999997E+02  0.45594000000E+02  0.51100000000E-03 0. -1.
         11   -1    0    0    0    0 -0.00000000000E+00 -0.00000000000E+00 -0.45593999997E+02  0.45594000000E+02  0.51100000000E-03 0.  1.
         23    2    1    2    0    0 -0.22204460493E-15  0.17763568394E-14  0.00000000000E+00  0.91188000000E+02  0.91188000000E+02 0.  0.
    9900012    2    3    3    0    0 -0.19883948506E+01 -0.12376592250E+02  0.34621470214E+02  0.54367082716E+02  0.39999996669E+02 0.  0.
        -12    1    3    3    0    0  0.19883948506E+01  0.12376592250E+02 -0.34621470214E+02  0.36820917284E+02  0.00000000000E+00 0.  1.
         11    1    4    4    0    0  0.21567342515E+01  0.64833533134E+01  0.30453701696E+02  0.31210788521E+02  0.51100000000E-03 0. -1.
        -11    1    4    4    0    0 -0.29085963872E+01 -0.11856517096E+02  0.84570145061E+01  0.14851196087E+02  0.51100000000E-03 0.  1.
         12    1    4    4    0    0 -0.12365327150E+01 -0.70034284679E+01 -0.42892459880E+01  0.83050981094E+01  0.00000000000E+00 0. -1.
</event>
<event>
 8    1  0.1262344E-006  0.9118800E+02  0.7816164E-02  0.1184000E+00
        -11   -1    0    0    0    0  0.00000000000E+00  0.00000000000E+00  0.45593999997E+02  0.45594000000E+02  0.51100000000E-03 0.  1.
         11   -1    0    0    0    0 -0.00000000000E+00 -0.00000000000E+00 -0.45593999997E+02  0.45594000000E+02  0.51100000000E-03 0. -1.
         23    2    1    2    0    0 -0.88817841970E-15  0.00000000000E+00 -0.88817841970E-15  0.91188000000E+02  0.91188000000E+02 0.  0.
    9900012    2    3    3    0    0 -0.67649128537E+01 -0.35308204464E+02  0.79591389332E+01  0.54367065181E+02  0.39999956693E+02 0.  0.
         12    1    3    3    0    0  0.67649128537E+01  0.35308204464E+02 -0.79591389332E+01  0.36820934819E+02  0.00000000000E+00 0. -1.
         11    1    4    4    0    0  0.48100386253E+01 -0.15818915471E+02  0.16187135673E+02  0.23138667200E+02  0.51100000000E-03 0.  1.
        -11    1    4    4    0    0 -0.13621833026E+02 -0.37886238906E+01 -0.54506033068E+01  0.15153121218E+02  0.51100000000E-03 0. -1.
        -12    1    4    4    0    0  0.20468815472E+01 -0.15700665102E+02 -0.27773934326E+01  0.16075276763E+02  0.00000000000E+00 0.  1.
</event>
<event>
 8    1  0.1262344E-006  0.9118800E+02  0.7816164E-02  0.1184000E+00
        -11   -1    0    0    0    0  0.00000000000E+00  0.00000000000E+00  0.45593999997E+02  0.45594000000E+02  0.51100000000E-03 0.  1.
         11   -1    0    0    0    0 -0.00000000000E+00 -0.00000000000E+00 -0.45593999997E+02  0.45594000000E+02  0.51100000000E-03 0. -1.
         23    2    1    2    0    0 -0.71054273576E-14  0.17763568394E-14  0.24424906542E-14  0.91188000000E+02  0.91188000000E+02 0.  0.
    9900012    2    3    3    0    0 -0.35975671574E+02  0.78426582023E+01  0.14889222069E+00  0.54367103734E+02  0.40000044583E+02 0.  0.
        -12    1    3    3    0    0  0.35975671574E+02 -0.78426582023E+01 -0.14889222069E+00  0.36820896266E+02  0.00000000000E+00 0.  1.
         11    1    4    4    0    0 -0.21732738086E+02  0.10523132671E+02 -0.88753341132E+01  0.25725858233E+02  0.51100000000E-03 0. -1.
        -11    1    4    4    0    0 -0.69935895862E+01  0.94760129405E+01 -0.14255751760E+00  0.11778176406E+02  0.51100000000E-03 0.  1.
         12    1    4    4    0    0 -0.72493439019E+01 -0.12156487409E+02  0.91667838515E+01  0.16863069095E+02  0.00000000000E+00 0. -1.
</event>
<event>
 8    1  0.1262344E-006  0.9118800E+02  0.7816164E-02  0.1184000E+00
        -11   -1    0    0    0    0  0.00000000000E+00  0.00000000000E+00  0.45593999997E+02  0.45594000000E+02  0.51100000000E-03 0.  1.
         11   -1    0    0    0    0 -0.00000000000E+00 -0.00000000000E+00 -0.45593999997E+02  0.45594000000E+02  0.51100000000E-03 0. -1.
         23    2    1    2    0    0 -0.14210854715E-13  0.00000000000E+00  0.00000000000E+00  0.91188000000E+02  0.91188000000E+02 0.  0.
    9900012    2    3    3    0    0  0.35972248264E+02 -0.73778567073E+01 -0.27099045115E+01  0.54367095649E+02  0.40000026151E+02 0.  0.
         12    1    3    3    0    0 -0.35972248264E+02  0.73778567073E+01  0.27099045115E+01  0.36820904351E+02  0.00000000000E+00 0. -1.
         11    1    4    4    0    0 -0.14891575796E+01  0.47894173300E+01 -0.71926282892E+01  0.87686949215E+01  0.51100000000E-03 0. -1.
        -11    1    4    4    0    0 -0.26338043568E+00  0.36432461445E+01  0.28998029432E+01  0.46638470273E+01  0.51100000000E-03 0.  1.
         12    1    4    4    0    0  0.37724786280E+02 -0.15810520182E+02  0.15829208345E+01  0.40934553700E+02  0.00000000000E+00 0. -1.
</event>
<event>
 8    1  0.1262344E-006  0.9118800E+02  0.7816164E-02  0.1184000E+00
        -11   -1    0    0    0    0  0.00000000000E+00  0.00000000000E+00  0.45593999997E+02  0.45594000000E+02  0.51100000000E-03 0.  1.
         11   -1    0    0    0    0 -0.00000000000E+00 -0.00000000000E+00 -0.45593999997E+02  0.45594000000E+02  0.51100000000E-03 0. -1.
         23    2    1    2    0    0 -0.22204460493E-14  0.00000000000E+00  0.00000000000E+00  0.91188000000E+02  0.91188000000E+02 0.  0.
    9900012    2    3    3    0    0  0.16678816878E+01 -0.30837757717E+02 -0.20050745155E+02  0.54367061505E+02  0.39999948314E+02 0.  0.
        -12    1    3    3    0    0 -0.16678816878E+01  0.30837757717E+02  0.20050745155E+02  0.36820938495E+02  0.00000000000E+00 0.  1.
         11    1    4    4    0    0 -0.13639754957E+02 -0.61715208420E+01  0.43772966684E+01  0.15597798280E+02  0.51100000000E-03 0. -1.
        -11    1    4    4    0    0  0.36805022200E+01 -0.77583269706E+01 -0.29883306970E+01  0.90921864582E+01  0.51100000000E-03 0.  1.
         12    1    4    4    0    0  0.11627134425E+02 -0.16907909904E+02 -0.21439711127E+02  0.29677076768E+02  0.00000000000E+00 0. -1.
</event>
<event>
 8    1  0.1262344E-006  0.9118800E+02  0.7816164E-02  0.1184000E+00
        -11   -1    0    0    0    0  0.00000000000E+00  0.00000000000E+00  0.45593999997E+02  0.45594000000E+02  0.51100000000E-03 0. -1.
         11   -1    0    0    0    0 -0.00000000000E+00 -0.00000000000E+00 -0.45593999997E+02  0.45594000000E+02  0.51100000000E-03 0.  1.
         23    2    1    2    0    0  0.00000000000E+00 -0.88817841970E-15  0.00000000000E+00  0.91188000000E+02  0.91188000000E+02 0.  0.
    9900012    2    3    3    0    0  0.16236539643E+02 -0.39960003134E+01 -0.32805268760E+02  0.54367097017E+02  0.40000029269E+02 0.  0.
         12    1    3    3    0    0 -0.16236539643E+02  0.39960003134E+01  0.32805268760E+02  0.36820902983E+02  0.00000000000E+00 0. -1.
         11    1    4    4    0    0  0.88365212082E+01 -0.13735862903E+02 -0.30020238619E+01  0.16606329645E+02  0.51100000000E-03 0. -1.
        -11    1    4    4    0    0 -0.19033535357E+01 -0.39990182792E+01 -0.14597868103E+02  0.15254922330E+02  0.51100000000E-03 0.  1.
         12    1    4    4    0    0  0.93033719701E+01  0.13738880869E+02 -0.15205376796E+02  0.22505845042E+02  0.00000000000E+00 0. -1.
</event>
<event>
 8    1  0.1262344E-006  0.9118800E+02  0.7816164E-02  0.1184000E+00
        -11   -1    0    0    0    0  0.00000000000E+00  0.00000000000E+00  0.45593999997E+02  0.45594000000E+02  0.51100000000E-03 0. -1.
         11   -1    0    0    0    0 -0.00000000000E+00 -0.00000000000E+00 -0.45593999997E+02  0.45594000000E+02  0.51100000000E-03 0.  1.
         23    2    1    2    0    0  0.35527136788E-14  0.00000000000E+00  0.00000000000E+00  0.91188000000E+02  0.91188000000E+02 0.  0.
    9900012    2    3    3    0    0  0.29733952931E+02  0.13835658739E+02  0.16740558182E+02  0.54367086134E+02  0.40000004460E+02 0.  0.
        -12    1    3    3    0    0 -0.29733952931E+02 -0.13835658739E+02 -0.16740558182E+02  0.36820913866E+02  0.00000000000E+00 0.  1.
         11    1    4    4    0    0  0.18072099982E+02  0.61450085442E+01  0.68396157983E+01  0.20276643516E+02  0.51100000000E-03 0. -1.
        -11    1    4    4    0    0  0.15189177099E+02  0.65004993472E+01  0.18449825592E+02  0.24766179708E+02  0.51100000000E-03 0.  1.
        -12    1    4    4    0    0 -0.35273241493E+01  0.11901508479E+01 -0.85488832084E+01  0.93242629095E+01  0.00000000000E+00 0.  1.
</event>
<event>
 8    1  0.1262344E-006  0.9118800E+02  0.7816164E-02  0.1184000E+00
        -11   -1    0    0    0    0  0.00000000000E+00  0.00000000000E+00  0.45593999997E+02  0.45594000000E+02  0.51100000000E-03 0.  1.
         11   -1    0    0    0    0 -0.00000000000E+00 -0.00000000000E+00 -0.45593999997E+02  0.45594000000E+02  0.51100000000E-03 0. -1.
         23    2    1    2    0    0  0.00000000000E+00  0.00000000000E+00  0.00000000000E+00  0.91188000000E+02  0.91188000000E+02 0.  0.
    9900012    2    3    3    0    0 -0.21055405271E+02 -0.22522640586E+02 -0.20129060260E+02  0.54367102441E+02  0.40000041636E+02 0.  0.
        -12    1    3    3    0    0  0.21055405271E+02  0.22522640586E+02  0.20129060260E+02  0.36820897559E+02  0.00000000000E+00 0.  1.
         11    1    4    4    0    0 -0.99988874228E+01 -0.42110529627E+01 -0.22535630931E+02  0.25011305013E+02  0.51100000000E-03 0. -1.
        -11    1    4    4    0    0 -0.51634936772E+01 -0.17282697996E+02  0.92460682694E+01  0.20269264804E+02  0.51100000000E-03 0.  1.
        -12    1    4    4    0    0 -0.58930241705E+01 -0.10288896276E+01 -0.68394975981E+01  0.90865326244E+01  0.00000000000E+00 0.  1.
</event>
<event>
 8    1  0.1262344E-006  0.9118800E+02  0.7816164E-02  0.1184000E+00
        -11   -1    0    0    0    0  0.00000000000E+00  0.00000000000E+00  0.45593999997E+02  0.45594000000E+02  0.51100000000E-03 0. -1.
         11   -1    0    0    0    0 -0.00000000000E+00 -0.00000000000E+00 -0.45593999997E+02  0.45594000000E+02  0.51100000000E-03 0.  1.
         23    2    1    2    0    0 -0.88817841970E-15  0.00000000000E+00  0.17763568394E-14  0.91188000000E+02  0.91188000000E+02 0.  0.
    9900012    2    3    3    0    0 -0.52009353972E+01 -0.35512855575E+02 -0.82197444791E+01  0.54367124951E+02  0.40000092951E+02 0.  0.
        -12    1    3    3    0    0  0.52009353972E+01  0.35512855575E+02  0.82197444791E+01  0.36820875049E+02  0.00000000000E+00 0.  1.
         11    1    4    4    0    0 -0.76872600351E+01 -0.15801383719E+02 -0.94300128861E+01  0.19942488249E+02  0.51100000000E-03 0. -1.
        -11    1    4    4    0    0 -0.12241287528E+01 -0.17479977691E+02 -0.11525197334E+02  0.20973275498E+02  0.51100000000E-03 0.  1.
         12    1    4    4    0    0  0.37104533906E+01 -0.22314941650E+01  0.12735465741E+02  0.13451361203E+02  0.00000000000E+00 0. -1.
</event>
<event>
 8    1  0.1262344E-006  0.9118800E+02  0.7816164E-02  0.1184000E+00
        -11   -1    0    0    0    0  0.00000000000E+00  0.00000000000E+00  0.45593999997E+02  0.45594000000E+02  0.51100000000E-03 0.  1.
         11   -1    0    0    0    0 -0.00000000000E+00 -0.00000000000E+00 -0.45593999997E+02  0.45594000000E+02  0.51100000000E-03 0. -1.
         23    2    1    2    0    0  0.00000000000E+00 -0.66613381478E-15  0.00000000000E+00  0.91188000000E+02  0.91188000000E+02 0.  0.
    9900012    2    3    3    0    0  0.15726916265E+02  0.19807345208E+01 -0.33234340229E+02  0.54367074226E+02  0.39999977313E+02 0.  0.
        -12    1    3    3    0    0 -0.15726916265E+02 -0.19807345208E+01  0.33234340229E+02  0.36820925774E+02  0.00000000000E+00 0.  1.
         11    1    4    4    0    0  0.14308776129E+02  0.34843165437E+01 -0.16977942049E+02  0.22475142993E+02  0.51100000000E-03 0. -1.
        -11    1    4    4    0    0  0.12010356995E+02  0.62215744018E+01 -0.12073387229E+02  0.18130729236E+02  0.51100000000E-03 0.  1.
        -12    1    4    4    0    0 -0.10592216860E+02 -0.77251564247E+01 -0.41830109507E+01  0.13761201997E+02  0.00000000000E+00 0.  1.
</event>
<event>
 8    1  0.1262344E-006  0.9118800E+02  0.7816164E-02  0.1184000E+00
        -11   -1    0    0    0    0  0.00000000000E+00  0.00000000000E+00  0.45593999997E+02  0.45594000000E+02  0.51100000000E-03 0.  1.
         11   -1    0    0    0    0 -0.00000000000E+00 -0.00000000000E+00 -0.45593999997E+02  0.45594000000E+02  0.51100000000E-03 0. -1.
         23    2    1    2    0    0  0.00000000000E+00  0.00000000000E+00  0.88817841970E-15  0.91188000000E+02  0.91188000000E+02 0.  0.
    9900012    2    3    3    0    0  0.12031319619E+02 -0.34080412811E+02 -0.70392797840E+01  0.54367100377E+02  0.40000036930E+02 0.  0.
         12    1    3    3    0    0 -0.12031319619E+02  0.34080412811E+02  0.70392797840E+01  0.36820899623E+02  0.00000000000E+00 0. -1.
         11    1    4    4    0    0  0.98378875311E+01 -0.34416230495E+01 -0.29059232248E+00  0.10426564365E+02  0.51100000000E-03 0. -1.
        -11    1    4    4    0    0  0.39222289071E+00  0.54239543420E+00  0.89562255969E+01  0.89812030823E+01  0.51100000000E-03 0.  1.
         12    1    4    4    0    0  0.18012091972E+01 -0.31181185196E+02 -0.15704913058E+02  0.34959332931E+02  0.00000000000E+00 0. -1.
</event>
<event>
 8    1  0.1262344E-006  0.9118800E+02  0.7816164E-02  0.1184000E+00
        -11   -1    0    0    0    0  0.00000000000E+00  0.00000000000E+00  0.45593999997E+02  0.45594000000E+02  0.51100000000E-03 0. -1.
         11   -1    0    0    0    0 -0.00000000000E+00 -0.00000000000E+00 -0.45593999997E+02  0.45594000000E+02  0.51100000000E-03 0.  1.
         23    2    1    2    0    0  0.00000000000E+00  0.00000000000E+00  0.00000000000E+00  0.91188000000E+02  0.91188000000E+02 0.  0.
    9900012    2    3    3    0    0  0.32767240990E+01  0.97820394842E+01 -0.35346201664E+02  0.54367093040E+02  0.40000020202E+02 0.  0.
         12    1    3    3    0    0 -0.32767240990E+01 -0.97820394842E+01  0.35346201664E+02  0.36820906960E+02  0.00000000000E+00 0. -1.
         11    1    4    4    0    0 -0.69294750226E+01  0.14663314803E+02  0.57563492372E+00  0.16228425091E+02  0.51100000000E-03 0. -1.
        -11    1    4    4    0    0  0.10368776061E+02 -0.36481137995E+01 -0.27335142092E+02  0.29462353007E+02  0.51100000000E-03 0.  1.
         12    1    4    4    0    0 -0.16257693915E+00 -0.12331615191E+01 -0.85866944962E+01  0.86763149415E+01  0.00000000000E+00 0. -1.
</event>
<event>
 8    1  0.1262344E-006  0.9118800E+02  0.7816164E-02  0.1184000E+00
        -11   -1    0    0    0    0  0.00000000000E+00  0.00000000000E+00  0.45593999997E+02  0.45594000000E+02  0.51100000000E-03 0. -1.
         11   -1    0    0    0    0 -0.00000000000E+00 -0.00000000000E+00 -0.45593999997E+02  0.45594000000E+02  0.51100000000E-03 0.  1.
         23    2    1    2    0    0  0.00000000000E+00  0.00000000000E+00  0.00000000000E+00  0.91188000000E+02  0.91188000000E+02 0.  0.
    9900012    2    3    3    0    0  0.18384148961E+02  0.58677312478E+01 -0.31358786063E+02  0.54367072983E+02  0.39999974480E+02 0.  0.
         12    1    3    3    0    0 -0.18384148961E+02 -0.58677312478E+01  0.31358786063E+02  0.36820927017E+02  0.00000000000E+00 0. -1.
         11    1    4    4    0    0  0.27011930381E+01  0.75784113084E+00  0.27887405142E+01  0.39557351941E+01  0.51100000000E-03 0. -1.
        -11    1    4    4    0    0  0.12136625580E+02 -0.69188987161E+01 -0.35156133857E+02  0.37830180913E+02  0.51100000000E-03 0.  1.
        -12    1    4    4    0    0  0.35463303432E+01  0.12028788833E+02  0.10086072795E+01  0.12581156876E+02  0.00000000000E+00 0.  1.
</event>
<event>
 8    1  0.1262344E-006  0.9118800E+02  0.7816164E-02  0.1184000E+00
        -11   -1    0    0    0    0  0.00000000000E+00  0.00000000000E+00  0.45593999997E+02  0.45594000000E+02  0.51100000000E-03 0.  1.
         11   -1    0    0    0    0 -0.00000000000E+00 -0.00000000000E+00 -0.45593999997E+02  0.45594000000E+02  0.51100000000E-03 0. -1.
         23    2    1    2    0    0 -0.35527136788E-14  0.35527136788E-14  0.00000000000E+00  0.91188000000E+02  0.91188000000E+02 0.  0.
    9900012    2    3    3    0    0  0.30186454624E+02  0.19809111522E+02  0.72221314919E+01  0.54367053172E+02  0.39999929315E+02 0.  0.
         12    1    3    3    0    0 -0.30186454624E+02 -0.19809111522E+02 -0.72221314919E+01  0.36820946828E+02  0.00000000000E+00 0. -1.
         11    1    4    4    0    0  0.12896567242E+02  0.20029596312E+02  0.99251361261E+01  0.25807256779E+02  0.51100000000E-03 0. -1.
        -11    1    4    4    0    0 -0.42116662016E+01 -0.48246321913E+01  0.81378364266E-02  0.64043168613E+01  0.51100000000E-03 0.  1.
        -12    1    4    4    0    0  0.21501553583E+02  0.46041474011E+01 -0.27111424707E+01  0.22155479532E+02  0.00000000000E+00 0.  1.
</event>
<event>
 8    1  0.1262344E-006  0.9118800E+02  0.7816164E-02  0.1184000E+00
        -11   -1    0    0    0    0  0.00000000000E+00  0.00000000000E+00  0.45593999997E+02  0.45594000000E+02  0.51100000000E-03 0.  1.
         11   -1    0    0    0    0 -0.00000000000E+00 -0.00000000000E+00 -0.45593999997E+02  0.45594000000E+02  0.51100000000E-03 0. -1.
         23    2    1    2    0    0  0.00000000000E+00  0.17763568394E-14  0.00000000000E+00  0.91188000000E+02  0.91188000000E+02 0.  0.
    9900012    2    3    3    0    0 -0.34773350145E+02 -0.70202868986E+01  0.98645447567E+01  0.54367088119E+02  0.40000008986E+02 0.  0.
        -12    1    3    3    0    0  0.34773350145E+02  0.70202868986E+01 -0.98645447567E+01  0.36820911881E+02  0.00000000000E+00 0.  1.
         11    1    4    4    0    0 -0.23991687754E+02 -0.87294252174E+01  0.76319636051E+01  0.26646778692E+02  0.51100000000E-03 0.  1.
        -11    1    4    4    0    0 -0.99370598327E+01 -0.97937065241E+01 -0.41265890033E+01  0.14549590464E+02  0.51100000000E-03 0. -1.
        -12    1    4    4    0    0 -0.84460255800E+00  0.11502844843E+02  0.63591701549E+01  0.13170718964E+02  0.00000000000E+00 0.  1.
</event>
<event>
 8    1  0.1262344E-006  0.9118800E+02  0.7816164E-02  0.1184000E+00
        -11   -1    0    0    0    0  0.00000000000E+00  0.00000000000E+00  0.45593999997E+02  0.45594000000E+02  0.51100000000E-03 0. -1.
         11   -1    0    0    0    0 -0.00000000000E+00 -0.00000000000E+00 -0.45593999997E+02  0.45594000000E+02  0.51100000000E-03 0.  1.
         23    2    1    2    0    0 -0.17763568394E-14 -0.66613381478E-15  0.00000000000E+00  0.91188000000E+02  0.91188000000E+02 0.  0.
    9900012    2    3    3    0    0  0.76616920445E+01  0.16598934768E+01 -0.35976637943E+02  0.54367146547E+02  0.40000142184E+02 0.  0.
         12    1    3    3    0    0 -0.76616920445E+01 -0.16598934768E+01  0.35976637943E+02  0.36820853453E+02  0.00000000000E+00 0. -1.
         11    1    4    4    0    0 -0.55945571809E+01 -0.57020273607E+01  0.25355079694E+01  0.83809896192E+01  0.51100000000E-03 0. -1.
        -11    1    4    4    0    0  0.15807251764E+02 -0.15262102393E+01 -0.24010356249E+02  0.28787075806E+02  0.51100000000E-03 0.  1.
         12    1    4    4    0    0 -0.25510025389E+01  0.88881310768E+01 -0.14501789663E+02  0.17199081122E+02  0.00000000000E+00 0. -1.
</event>
<event>
 8    1  0.1262344E-006  0.9118800E+02  0.7816164E-02  0.1184000E+00
        -11   -1    0    0    0    0  0.00000000000E+00  0.00000000000E+00  0.45593999997E+02  0.45594000000E+02  0.51100000000E-03 0.  1.
         11   -1    0    0    0    0 -0.00000000000E+00 -0.00000000000E+00 -0.45593999997E+02  0.45594000000E+02  0.51100000000E-03 0. -1.
         23    2    1    2    0    0  0.88817841970E-15  0.35527136788E-14 -0.71054273576E-14  0.91188000000E+02  0.91188000000E+02 0.  0.
    9900012    2    3    3    0    0  0.20769561633E+01  0.22744218880E+02 -0.28881932900E+02  0.54367091709E+02  0.40000017168E+02 0.  0.
        -12    1    3    3    0    0 -0.20769561633E+01 -0.22744218880E+02  0.28881932900E+02  0.36820908291E+02  0.00000000000E+00 0.  1.
         11    1    4    4    0    0  0.91495031591E+00  0.12800746881E+02 -0.18308365305E+02  0.22358275765E+02  0.51100000000E-03 0. -1.
        -11    1    4    4    0    0 -0.11608324177E+02  0.12529676622E+02 -0.46921734385E+01  0.17713341816E+02  0.51100000000E-03 0.  1.
        -12    1    4    4    0    0  0.12770330025E+02 -0.25862046235E+01 -0.58813941570E+01  0.14295474127E+02  0.00000000000E+00 0.  1.
</event>
<event>
 8    1  0.1262344E-006  0.9118800E+02  0.7816164E-02  0.1184000E+00
        -11   -1    0    0    0    0  0.00000000000E+00  0.00000000000E+00  0.45593999997E+02  0.45594000000E+02  0.51100000000E-03 0. -1.
         11   -1    0    0    0    0 -0.00000000000E+00 -0.00000000000E+00 -0.45593999997E+02  0.45594000000E+02  0.51100000000E-03 0.  1.
         23    2    1    2    0    0 -0.35527136788E-14  0.17763568394E-14  0.35527136788E-14  0.91188000000E+02  0.91188000000E+02 0.  0.
    9900012    2    3    3    0    0  0.27033389752E+02 -0.83812742430E+01 -0.23552690255E+02  0.54367093742E+02  0.40000021803E+02 0.  0.
         12    1    3    3    0    0 -0.27033389752E+02  0.83812742430E+01  0.23552690255E+02  0.36820906258E+02  0.00000000000E+00 0. -1.
         11    1    4    4    0    0  0.13388506611E+02 -0.10629645592E+02  0.60382698078E+01  0.18130145538E+02  0.51100000000E-03 0. -1.
        -11    1    4    4    0    0  0.35454769281E+01  0.31566890049E+01  0.21635898869E+00  0.47520420447E+01  0.51100000000E-03 0.  1.
        -12    1    4    4    0    0  0.10099406213E+02 -0.90831765591E+00 -0.29807319051E+02  0.31484906159E+02  0.00000000000E+00 0.  1.
</event>
<event>
 8    1  0.1262344E-006  0.9118800E+02  0.7816164E-02  0.1184000E+00
        -11   -1    0    0    0    0  0.00000000000E+00  0.00000000000E+00  0.45593999997E+02  0.45594000000E+02  0.51100000000E-03 0. -1.
         11   -1    0    0    0    0 -0.00000000000E+00 -0.00000000000E+00 -0.45593999997E+02  0.45594000000E+02  0.51100000000E-03 0.  1.
         23    2    1    2    0    0  0.00000000000E+00  0.17763568394E-14  0.00000000000E+00  0.91188000000E+02  0.91188000000E+02 0.  0.
    9900012    2    3    3    0    0 -0.43070823767E+01 -0.74301402853E+01 -0.35805322822E+02  0.54367094448E+02  0.40000023413E+02 0.  0.
         12    1    3    3    0    0  0.43070823767E+01  0.74301402853E+01  0.35805322822E+02  0.36820905552E+02  0.00000000000E+00 0. -1.
         11    1    4    4    0    0 -0.11775003633E+02 -0.17056543286E+02 -0.13770284978E+02  0.24883671917E+02  0.51100000000E-03 0. -1.
        -11    1    4    4    0    0  0.28244885187E+00  0.53810793190E+01 -0.20242212018E+02  0.20947146336E+02  0.51100000000E-03 0.  1.
         12    1    4    4    0    0  0.71854724043E+01  0.42453236818E+01 -0.17928258266E+01  0.85362761952E+01  0.00000000000E+00 0. -1.
</event>
<event>
 8    1  0.1262344E-006  0.9118800E+02  0.7816164E-02  0.1184000E+00
        -11   -1    0    0    0    0  0.00000000000E+00  0.00000000000E+00  0.45593999997E+02  0.45594000000E+02  0.51100000000E-03 0. -1.
         11   -1    0    0    0    0 -0.00000000000E+00 -0.00000000000E+00 -0.45593999997E+02  0.45594000000E+02  0.51100000000E-03 0.  1.
         23    2    1    2    0    0  0.17763568394E-14  0.00000000000E+00 -0.35527136788E-14  0.91188000000E+02  0.91188000000E+02 0.  0.
    9900012    2    3    3    0    0 -0.10516046509E+02 -0.23840953068E+02  0.26015420985E+02  0.54367076514E+02  0.39999982528E+02 0.  0.
        -12    1    3    3    0    0  0.10516046509E+02  0.23840953068E+02 -0.26015420985E+02  0.36820923486E+02  0.00000000000E+00 0.  1.
         11    1    4    4    0    0 -0.24251154199E+02 -0.84877946074E+01  0.17503437274E+02  0.31089088985E+02  0.51100000000E-03 0. -1.
        -11    1    4    4    0    0  0.11529213196E+02 -0.11278592653E+02  0.92399374934E+01  0.18587787773E+02  0.51100000000E-03 0.  1.
         12    1    4    4    0    0  0.22058944943E+01 -0.40745658070E+01 -0.72795378256E+00  0.46901997554E+01  0.00000000000E+00 0. -1.
</event>
<event>
 8    1  0.1262344E-006  0.9118800E+02  0.7816164E-02  0.1184000E+00
        -11   -1    0    0    0    0  0.00000000000E+00  0.00000000000E+00  0.45593999997E+02  0.45594000000E+02  0.51100000000E-03 0.  1.
         11   -1    0    0    0    0 -0.00000000000E+00 -0.00000000000E+00 -0.45593999997E+02  0.45594000000E+02  0.51100000000E-03 0. -1.
         23    2    1    2    0    0 -0.88817841970E-15  0.00000000000E+00 -0.35527136788E-14  0.91188000000E+02  0.91188000000E+02 0.  0.
    9900012    2    3    3    0    0 -0.12856948352E+01 -0.22491440483E+02 -0.29124948921E+02  0.54367074484E+02  0.39999977901E+02 0.  0.
        -12    1    3    3    0    0  0.12856948352E+01  0.22491440483E+02  0.29124948921E+02  0.36820925516E+02  0.00000000000E+00 0.  1.
         11    1    4    4    0    0 -0.23035392856E+01 -0.10719091784E+02 -0.25104534765E+02  0.27394212672E+02  0.51100000000E-03 0. -1.
        -11    1    4    4    0    0 -0.91680451561E+01 -0.10497564776E+02  0.33514926457E+01  0.14334727811E+02  0.51100000000E-03 0.  1.
        -12    1    4    4    0    0  0.10185889606E+02 -0.12747839237E+01 -0.73719068017E+01  0.12638134001E+02  0.00000000000E+00 0.  1.
</event>
<event>
 8    1  0.1262344E-006  0.9118800E+02  0.7816164E-02  0.1184000E+00
        -11   -1    0    0    0    0  0.00000000000E+00  0.00000000000E+00  0.45593999997E+02  0.45594000000E+02  0.51100000000E-03 0.  1.
         11   -1    0    0    0    0 -0.00000000000E+00 -0.00000000000E+00 -0.45593999997E+02  0.45594000000E+02  0.51100000000E-03 0. -1.
         23    2    1    2    0    0  0.00000000000E+00  0.88817841970E-15  0.00000000000E+00  0.91188000000E+02  0.91188000000E+02 0.  0.
    9900012    2    3    3    0    0  0.31691542249E+02 -0.54569554384E+01  0.17934506112E+02  0.54367099383E+02  0.40000034663E+02 0.  0.
        -12    1    3    3    0    0 -0.31691542249E+02  0.54569554384E+01 -0.17934506112E+02  0.36820900617E+02  0.00000000000E+00 0.  1.
         11    1    4    4    0    0  0.40447353819E+01 -0.58301760848E-01 -0.38665474014E+01  0.55958442146E+01  0.51100000000E-03 0. -1.
        -11    1    4    4    0    0 -0.69225043481E-01 -0.12150648471E+02  0.15255779663E+02  0.19503380829E+02  0.51100000000E-03 0.  1.
        -12    1    4    4    0    0  0.27716031910E+02  0.67519947937E+01  0.65452738503E+01  0.29267874339E+02  0.00000000000E+00 0.  1.
</event>
<event>
 8    1  0.1262344E-006  0.9118800E+02  0.7816164E-02  0.1184000E+00
        -11   -1    0    0    0    0  0.00000000000E+00  0.00000000000E+00  0.45593999997E+02  0.45594000000E+02  0.51100000000E-03 0.  1.
         11   -1    0    0    0    0 -0.00000000000E+00 -0.00000000000E+00 -0.45593999997E+02  0.45594000000E+02  0.51100000000E-03 0. -1.
         23    2    1    2    0    0  0.88817841970E-15  0.17763568394E-14  0.00000000000E+00  0.91188000000E+02  0.91188000000E+02 0.  0.
    9900012    2    3    3    0    0 -0.46575894613E+01  0.14216807023E+02 -0.33644724373E+02  0.54367106207E+02  0.40000050221E+02 0.  0.
        -12    1    3    3    0    0  0.46575894613E+01 -0.14216807023E+02  0.33644724373E+02  0.36820893793E+02  0.00000000000E+00 0.  1.
         11    1    4    4    0    0 -0.82202804208E+01  0.50816832802E+01  0.17092982581E+01  0.98141844263E+01  0.51100000000E-03 0.  1.
        -11    1    4    4    0    0  0.14019453704E+01 -0.76400773600E+01 -0.20926598197E+02  0.22321710177E+02  0.51100000000E-03 0. -1.
        -12    1    4    4    0    0  0.21607455891E+01  0.16775201103E+02 -0.14427424435E+02  0.22231211604E+02  0.00000000000E+00 0.  1.
</event>
<event>
 8    1  0.1262344E-006  0.9118800E+02  0.7816164E-02  0.1184000E+00
        -11   -1    0    0    0    0  0.00000000000E+00  0.00000000000E+00  0.45593999997E+02  0.45594000000E+02  0.51100000000E-03 0. -1.
         11   -1    0    0    0    0 -0.00000000000E+00 -0.00000000000E+00 -0.45593999997E+02  0.45594000000E+02  0.51100000000E-03 0.  1.
         23    2    1    2    0    0  0.00000000000E+00  0.00000000000E+00 -0.35527136788E-14  0.91188000000E+02  0.91188000000E+02 0.  0.
    9900012    2    3    3    0    0  0.41937836505E+01  0.25785271254E+02  0.25948273046E+02  0.54367069688E+02  0.39999966969E+02 0.  0.
        -12    1    3    3    0    0 -0.41937836505E+01 -0.25785271254E+02 -0.25948273046E+02  0.36820930312E+02  0.00000000000E+00 0.  1.
         11    1    4    4    0    0  0.17264097119E+01 -0.18318931628E+01  0.58318398296E+01  0.63519035818E+01  0.51100000000E-03 0. -1.
        -11    1    4    4    0    0  0.47511619707E+01  0.98306517056E+01 -0.87771573237E+01  0.14009059354E+02  0.51100000000E-03 0.  1.
         12    1    4    4    0    0 -0.22837880321E+01  0.17786512711E+02  0.28893590540E+02  0.34006106753E+02  0.00000000000E+00 0. -1.
</event>
<event>
 8    1  0.1262344E-006  0.9118800E+02  0.7816164E-02  0.1184000E+00
        -11   -1    0    0    0    0  0.00000000000E+00  0.00000000000E+00  0.45593999997E+02  0.45594000000E+02  0.51100000000E-03 0.  1.
         11   -1    0    0    0    0 -0.00000000000E+00 -0.00000000000E+00 -0.45593999997E+02  0.45594000000E+02  0.51100000000E-03 0. -1.
         23    2    1    2    0    0  0.00000000000E+00 -0.88817841970E-15  0.00000000000E+00  0.91188000000E+02  0.91188000000E+02 0.  0.
    9900012    2    3    3    0    0  0.25870365264E+02  0.68994892133E+01  0.25276513979E+02  0.54367069685E+02  0.39999966962E+02 0.  0.
         12    1    3    3    0    0 -0.25870365264E+02 -0.68994892133E+01 -0.25276513979E+02  0.36820930315E+02  0.00000000000E+00 0. -1.
         11    1    4    4    0    0  0.23549528114E+02  0.21814637326E+02  0.17426492472E+02  0.36525899252E+02  0.51100000000E-03 0. -1.
        -11    1    4    4    0    0  0.34759089241E+01 -0.53233565028E+01  0.29583174715E+01  0.70122542615E+01  0.51100000000E-03 0.  1.
         12    1    4    4    0    0 -0.11550717740E+01 -0.95917916097E+01  0.48917040357E+01  0.10828916172E+02  0.00000000000E+00 0. -1.
</event>
<event>
 8    1  0.1262344E-006  0.9118800E+02  0.7816164E-02  0.1184000E+00
        -11   -1    0    0    0    0  0.00000000000E+00  0.00000000000E+00  0.45593999997E+02  0.45594000000E+02  0.51100000000E-03 0. -1.
         11   -1    0    0    0    0 -0.00000000000E+00 -0.00000000000E+00 -0.45593999997E+02  0.45594000000E+02  0.51100000000E-03 0.  1.
         23    2    1    2    0    0  0.00000000000E+00 -0.13322676296E-14  0.00000000000E+00  0.91188000000E+02  0.91188000000E+02 0.  0.
    9900012    2    3    3    0    0 -0.33567856595E+02  0.36123897251E+01 -0.14694216678E+02  0.54367212941E+02  0.40000293540E+02 0.  0.
         12    1    3    3    0    0  0.33567856595E+02 -0.36123897251E+01  0.14694216678E+02  0.36820787059E+02  0.00000000000E+00 0. -1.
         11    1    4    4    0    0 -0.45323111091E+01  0.11073956128E+02  0.44001701021E+01  0.12748954683E+02  0.51100000000E-03 0. -1.
        -11    1    4    4    0    0 -0.24311211019E+02 -0.13357072554E+02 -0.93162749305E+01  0.29261567751E+02  0.51100000000E-03 0.  1.
         12    1    4    4    0    0 -0.47243344664E+01  0.58955061504E+01 -0.97781118501E+01  0.12356690506E+02  0.00000000000E+00 0. -1.
</event>
<event>
 8    1  0.1262344E-006  0.9118800E+02  0.7816164E-02  0.1184000E+00
        -11   -1    0    0    0    0  0.00000000000E+00  0.00000000000E+00  0.45593999997E+02  0.45594000000E+02  0.51100000000E-03 0.  1.
         11   -1    0    0    0    0 -0.00000000000E+00 -0.00000000000E+00 -0.45593999997E+02  0.45594000000E+02  0.51100000000E-03 0. -1.
         23    2    1    2    0    0  0.00000000000E+00  0.00000000000E+00  0.00000000000E+00  0.91188000000E+02  0.91188000000E+02 0.  0.
    9900012    2    3    3    0    0  0.12016519026E+02 -0.26071017511E+02 -0.23058349545E+02  0.54367052602E+02  0.39999928016E+02 0.  0.
        -12    1    3    3    0    0 -0.12016519026E+02  0.26071017511E+02  0.23058349545E+02  0.36820947398E+02  0.00000000000E+00 0.  1.
         11    1    4    4    0    0 -0.31010427535E+01 -0.58022440268E+01 -0.31063086337E+00  0.65862731267E+01  0.51100000000E-03 0. -1.
        -11    1    4    4    0    0 -0.48318262986E+01 -0.47035347114E+01  0.63205452073E+01  0.92422441074E+01  0.51100000000E-03 0.  1.
        -12    1    4    4    0    0  0.19949388078E+02 -0.15565238773E+02 -0.29068263889E+02  0.38538535368E+02  0.00000000000E+00 0.  1.
</event>
<event>
 8    1  0.1262344E-006  0.9118800E+02  0.7816164E-02  0.1184000E+00
        -11   -1    0    0    0    0  0.00000000000E+00  0.00000000000E+00  0.45593999997E+02  0.45594000000E+02  0.51100000000E-03 0.  1.
         11   -1    0    0    0    0 -0.00000000000E+00 -0.00000000000E+00 -0.45593999997E+02  0.45594000000E+02  0.51100000000E-03 0. -1.
         23    2    1    2    0    0  0.35527136788E-14  0.00000000000E+00  0.00000000000E+00  0.91188000000E+02  0.91188000000E+02 0.  0.
    9900012    2    3    3    0    0 -0.20601311818E+02 -0.22093898064E+02  0.21052947118E+02  0.54367068960E+02  0.39999965308E+02 0.  0.
         12    1    3    3    0    0  0.20601311818E+02  0.22093898064E+02 -0.21052947118E+02  0.36820931040E+02  0.00000000000E+00 0. -1.
         11    1    4    4    0    0 -0.35454581946E+01  0.10078109848E+02  0.63263673997E+01  0.12416178827E+02  0.51100000000E-03 0. -1.
        -11    1    4    4    0    0  0.12737090584E+01 -0.10380215170E+02  0.64895876316E+01  0.12307962855E+02  0.51100000000E-03 0.  1.
         12    1    4    4    0    0 -0.18329562682E+02 -0.21791792742E+02  0.82369920863E+01  0.29642927279E+02  0.00000000000E+00 0. -1.
</event>
<event>
 8    1  0.1262344E-006  0.9118800E+02  0.7816164E-02  0.1184000E+00
        -11   -1    0    0    0    0  0.00000000000E+00  0.00000000000E+00  0.45593999997E+02  0.45594000000E+02  0.51100000000E-03 0.  1.
         11   -1    0    0    0    0 -0.00000000000E+00 -0.00000000000E+00 -0.45593999997E+02  0.45594000000E+02  0.51100000000E-03 0. -1.
         23    2    1    2    0    0  0.00000000000E+00  0.88817841970E-15  0.71054273576E-14  0.91188000000E+02  0.91188000000E+02 0.  0.
    9900012    2    3    3    0    0  0.74889916936E+01 -0.49358419844E+01  0.35711812973E+02  0.54367066844E+02  0.39999960484E+02 0.  0.
         12    1    3    3    0    0 -0.74889916936E+01  0.49358419844E+01 -0.35711812973E+02  0.36820933156E+02  0.00000000000E+00 0. -1.
         11    1    4    4    0    0 -0.76177261495E+01  0.32230459378E+01  0.42771480222E+01  0.93119156069E+01  0.51100000000E-03 0. -1.
        -11    1    4    4    0    0  0.10816750889E+02  0.20775815707E+01 -0.72082648556E+00  0.11038026819E+02  0.51100000000E-03 0.  1.
        -12    1    4    4    0    0  0.42899669540E+01 -0.10236469493E+02  0.32155491436E+02  0.34017124418E+02  0.00000000000E+00 0.  1.
</event>
<event>
 8    1  0.1262344E-006  0.9118800E+02  0.7816164E-02  0.1184000E+00
        -11   -1    0    0    0    0  0.00000000000E+00  0.00000000000E+00  0.45593999997E+02  0.45594000000E+02  0.51100000000E-03 0.  1.
         11   -1    0    0    0    0 -0.00000000000E+00 -0.00000000000E+00 -0.45593999997E+02  0.45594000000E+02  0.51100000000E-03 0. -1.
         23    2    1    2    0    0  0.00000000000E+00  0.00000000000E+00 -0.13322676296E-14  0.91188000000E+02  0.91188000000E+02 0.  0.
    9900012    2    3    3    0    0  0.25070630530E+02 -0.26763409414E+02 -0.33110042539E+01  0.54367090888E+02  0.40000015298E+02 0.  0.
         12    1    3    3    0    0 -0.25070630530E+02  0.26763409414E+02  0.33110042539E+01  0.36820909112E+02  0.00000000000E+00 0. -1.
         11    1    4    4    0    0 -0.11985076632E+01 -0.10388459900E+02 -0.89260495521E+01  0.13748850155E+02  0.51100000000E-03 0. -1.
        -11    1    4    4    0    0  0.30459927505E+02 -0.18043497522E+02  0.65700684265E+01  0.36007510131E+02  0.51100000000E-03 0.  1.
         12    1    4    4    0    0 -0.41907893120E+01  0.16685480077E+01 -0.95502312835E+00  0.46107306023E+01  0.00000000000E+00 0. -1.
</event>
<event>
 8    1  0.1262344E-006  0.9118800E+02  0.7816164E-02  0.1184000E+00
        -11   -1    0    0    0    0  0.00000000000E+00  0.00000000000E+00  0.45593999997E+02  0.45594000000E+02  0.51100000000E-03 0.  1.
         11   -1    0    0    0    0 -0.00000000000E+00 -0.00000000000E+00 -0.45593999997E+02  0.45594000000E+02  0.51100000000E-03 0. -1.
         23    2    1    2    0    0 -0.88817841970E-15 -0.17763568394E-14  0.00000000000E+00  0.91188000000E+02  0.91188000000E+02 0.  0.
    9900012    2    3    3    0    0 -0.78732548192E+01 -0.11722571860E+02 -0.34005487656E+02  0.54367081718E+02  0.39999994392E+02 0.  0.
        -12    1    3    3    0    0  0.78732548192E+01  0.11722571860E+02  0.34005487656E+02  0.36820918282E+02  0.00000000000E+00 0.  1.
         11    1    4    4    0    0 -0.49444029920E+01  0.74394612763E+01 -0.35444761362E+01  0.96102037632E+01  0.51100000000E-03 0. -1.
        -11    1    4    4    0    0 -0.66872123898E+01  0.18089506169E+01  0.74945337307E+00  0.69679833884E+01  0.51100000000E-03 0.  1.
        -12    1    4    4    0    0  0.37583605627E+01 -0.20970983754E+02 -0.31210464892E+02  0.37788894566E+02  0.00000000000E+00 0.  1.
</event>
<event>
 8    1  0.1262344E-006  0.9118800E+02  0.7816164E-02  0.1184000E+00
        -11   -1    0    0    0    0  0.00000000000E+00  0.00000000000E+00  0.45593999997E+02  0.45594000000E+02  0.51100000000E-03 0.  1.
         11   -1    0    0    0    0 -0.00000000000E+00 -0.00000000000E+00 -0.45593999997E+02  0.45594000000E+02  0.51100000000E-03 0. -1.
         23    2    1    2    0    0  0.00000000000E+00  0.00000000000E+00  0.00000000000E+00  0.91188000000E+02  0.91188000000E+02 0.  0.
    9900012    2    3    3    0    0 -0.28087723446E+02  0.21447538533E+02  0.10337421634E+02  0.54367090131E+02  0.40000013572E+02 0.  0.
        -12    1    3    3    0    0  0.28087723446E+02 -0.21447538533E+02 -0.10337421634E+02  0.36820909869E+02  0.00000000000E+00 0.  1.
         11    1    4    4    0    0 -0.21311585591E+02  0.18019108791E+02  0.13356313349E+02  0.30939668204E+02  0.51100000000E-03 0. -1.
        -11    1    4    4    0    0  0.61877022253E+01  0.52731361444E+01  0.34388583758E+01  0.88271949574E+01  0.51100000000E-03 0.  1.
         12    1    4    4    0    0 -0.12963840080E+02 -0.18447064022E+01 -0.64577500902E+01  0.14600226970E+02  0.00000000000E+00 0. -1.
</event>
<event>
 8    1  0.1262344E-006  0.9118800E+02  0.7816164E-02  0.1184000E+00
        -11   -1    0    0    0    0  0.00000000000E+00  0.00000000000E+00  0.45593999997E+02  0.45594000000E+02  0.51100000000E-03 0.  1.
         11   -1    0    0    0    0 -0.00000000000E+00 -0.00000000000E+00 -0.45593999997E+02  0.45594000000E+02  0.51100000000E-03 0. -1.
         23    2    1    2    0    0  0.00000000000E+00 -0.88817841970E-15  0.00000000000E+00  0.91188000000E+02  0.91188000000E+02 0.  0.
    9900012    2    3    3    0    0 -0.67683078991E+01 -0.23678665916E+01 -0.36115973950E+02  0.54367077166E+02  0.39999984015E+02 0.  0.
        -12    1    3    3    0    0  0.67683078991E+01  0.23678665916E+01  0.36115973950E+02  0.36820922834E+02  0.00000000000E+00 0.  1.
         11    1    4    4    0    0 -0.78511753523E+01  0.95205742992E+01 -0.14682256367E+02  0.19179440599E+02  0.51100000000E-03 0. -1.
        -11    1    4    4    0    0  0.84818512656E+01 -0.19737620932E+01  0.17750930210E+01  0.88875470849E+01  0.51100000000E-03 0.  1.
        -12    1    4    4    0    0 -0.73989838124E+01 -0.99146787976E+01 -0.23208810604E+02  0.26300089482E+02  0.00000000000E+00 0.  1.
</event>
<event>
 8    1  0.1262344E-006  0.9118800E+02  0.7816164E-02  0.1184000E+00
        -11   -1    0    0    0    0  0.00000000000E+00  0.00000000000E+00  0.45593999997E+02  0.45594000000E+02  0.51100000000E-03 0.  1.
         11   -1    0    0    0    0 -0.00000000000E+00 -0.00000000000E+00 -0.45593999997E+02  0.45594000000E+02  0.51100000000E-03 0. -1.
         23    2    1    2    0    0  0.00000000000E+00  0.17763568394E-14  0.00000000000E+00  0.91188000000E+02  0.91188000000E+02 0.  0.
    9900012    2    3    3    0    0 -0.32637361452E+02 -0.10946704262E+02  0.13067256930E+02  0.54367069805E+02  0.39999967234E+02 0.  0.
         12    1    3    3    0    0  0.32637361452E+02  0.10946704262E+02 -0.13067256930E+02  0.36820930195E+02  0.00000000000E+00 0. -1.
         11    1    4    4    0    0 -0.13545259466E+01 -0.15754997312E+02  0.19738447905E+01  0.15935832089E+02  0.51100000000E-03 0. -1.
        -11    1    4    4    0    0 -0.27465662538E+02  0.73911592779E+01  0.15207652803E+02  0.32253132533E+02  0.51100000000E-03 0.  1.
         12    1    4    4    0    0 -0.38171729673E+01 -0.25828662273E+01 -0.41142406642E+01  0.61781051831E+01  0.00000000000E+00 0. -1.
</event>
<event>
 8    1  0.1262344E-006  0.9118800E+02  0.7816164E-02  0.1184000E+00
        -11   -1    0    0    0    0  0.00000000000E+00  0.00000000000E+00  0.45593999997E+02  0.45594000000E+02  0.51100000000E-03 0.  1.
         11   -1    0    0    0    0 -0.00000000000E+00 -0.00000000000E+00 -0.45593999997E+02  0.45594000000E+02  0.51100000000E-03 0. -1.
         23    2    1    2    0    0  0.00000000000E+00  0.88817841970E-15  0.00000000000E+00  0.91188000000E+02  0.91188000000E+02 0.  0.
    9900012    2    3    3    0    0  0.81250211016E+01  0.20967162474E+01 -0.35852231020E+02  0.54366883015E+02  0.39999541407E+02 0.  0.
        -12    1    3    3    0    0 -0.81250211016E+01 -0.20967162474E+01  0.35852231020E+02  0.36821116985E+02  0.00000000000E+00 0.  1.
         11    1    4    4    0    0  0.10194436003E+02  0.83325411322E+00 -0.16027433991E+02  0.19013139626E+02  0.51100000000E-03 0. -1.
        -11    1    4    4    0    0  0.10649279459E+02 -0.54770959014E+01 -0.16822522308E+02  0.20649527587E+02  0.51100000000E-03 0.  1.
        -12    1    4    4    0    0 -0.12718694360E+02  0.67405580356E+01 -0.30022747204E+01  0.14704215802E+02  0.00000000000E+00 0.  1.
</event>
<event>
 8    1  0.1262344E-006  0.9118800E+02  0.7816164E-02  0.1184000E+00
        -11   -1    0    0    0    0  0.00000000000E+00  0.00000000000E+00  0.45593999997E+02  0.45594000000E+02  0.51100000000E-03 0.  1.
         11   -1    0    0    0    0 -0.00000000000E+00 -0.00000000000E+00 -0.45593999997E+02  0.45594000000E+02  0.51100000000E-03 0. -1.
         23    2    1    2    0    0  0.00000000000E+00  0.00000000000E+00  0.00000000000E+00  0.91188000000E+02  0.91188000000E+02 0.  0.
    9900012    2    3    3    0    0 -0.30784559552E+02  0.84053151430E+01 -0.18369619673E+02  0.54367063614E+02  0.39999953120E+02 0.  0.
        -12    1    3    3    0    0  0.30784559552E+02 -0.84053151430E+01  0.18369619673E+02  0.36820936386E+02  0.00000000000E+00 0.  1.
         11    1    4    4    0    0 -0.37060743146E+02  0.60538811179E+01 -0.42849207621E+01  0.37795617541E+02  0.51100000000E-03 0. -1.
        -11    1    4    4    0    0  0.12737851298E+01  0.12249922233E+01 -0.21014719838E+00  0.17796900321E+01  0.51100000000E-03 0.  1.
         12    1    4    4    0    0  0.50023984644E+01  0.11264418018E+01 -0.13874551713E+02  0.14791756040E+02  0.00000000000E+00 0. -1.
</event>
<event>
 8    1  0.1262344E-006  0.9118800E+02  0.7816164E-02  0.1184000E+00
        -11   -1    0    0    0    0  0.00000000000E+00  0.00000000000E+00  0.45593999997E+02  0.45594000000E+02  0.51100000000E-03 0.  1.
         11   -1    0    0    0    0 -0.00000000000E+00 -0.00000000000E+00 -0.45593999997E+02  0.45594000000E+02  0.51100000000E-03 0. -1.
         23    2    1    2    0    0  0.44408920985E-15  0.00000000000E+00  0.00000000000E+00  0.91188000000E+02  0.91188000000E+02 0.  0.
    9900012    2    3    3    0    0 -0.32840513922E+01 -0.22534971249E+02 -0.28933935988E+02  0.54367047073E+02  0.39999915411E+02 0.  0.
        -12    1    3    3    0    0  0.32840513922E+01  0.22534971249E+02  0.28933935988E+02  0.36820952927E+02  0.00000000000E+00 0.  1.
         11    1    4    4    0    0 -0.54376209601E+01 -0.20621085246E+02 -0.25074819172E+02  0.32917220951E+02  0.51100000000E-03 0. -1.
        -11    1    4    4    0    0 -0.66471261562E+01 -0.69325995280E+01  0.19081653625E+01  0.97921559252E+01  0.51100000000E-03 0.  1.
         12    1    4    4    0    0  0.88006957241E+01  0.50187135246E+01 -0.57672821785E+01  0.11657670196E+02  0.00000000000E+00 0. -1.
</event>
<event>
 8    1  0.1262344E-006  0.9118800E+02  0.7816164E-02  0.1184000E+00
        -11   -1    0    0    0    0  0.00000000000E+00  0.00000000000E+00  0.45593999997E+02  0.45594000000E+02  0.51100000000E-03 0.  1.
         11   -1    0    0    0    0 -0.00000000000E+00 -0.00000000000E+00 -0.45593999997E+02  0.45594000000E+02  0.51100000000E-03 0. -1.
         23    2    1    2    0    0 -0.17763568394E-14  0.00000000000E+00  0.00000000000E+00  0.91188000000E+02  0.91188000000E+02 0.  0.
    9900012    2    3    3    0    0 -0.12687495876E+02 -0.33522931048E+02 -0.84272840596E+01  0.54367101392E+02  0.40000039244E+02 0.  0.
        -12    1    3    3    0    0  0.12687495876E+02  0.33522931048E+02  0.84272840596E+01  0.36820898608E+02  0.00000000000E+00 0.  1.
         11    1    4    4    0    0  0.14559614322E+01 -0.11288277093E+02  0.70637437936E+00  0.11403683109E+02  0.51100000000E-03 0. -1.
        -11    1    4    4    0    0  0.55962971259E+01 -0.21355023826E+02 -0.66043358273E+01  0.23042847830E+02  0.51100000000E-03 0.  1.
        -12    1    4    4    0    0 -0.19739754434E+02 -0.87963012864E+00 -0.25293226117E+01  0.19920570453E+02  0.00000000000E+00 0.  1.
</event>
<event>
 8    1  0.1262344E-006  0.9118800E+02  0.7816164E-02  0.1184000E+00
        -11   -1    0    0    0    0  0.00000000000E+00  0.00000000000E+00  0.45593999997E+02  0.45594000000E+02  0.51100000000E-03 0.  1.
         11   -1    0    0    0    0 -0.00000000000E+00 -0.00000000000E+00 -0.45593999997E+02  0.45594000000E+02  0.51100000000E-03 0. -1.
         23    2    1    2    0    0  0.00000000000E+00  0.00000000000E+00  0.35527136788E-14  0.91188000000E+02  0.91188000000E+02 0.  0.
    9900012    2    3    3    0    0  0.19601354621E+02  0.90540522682E+01 -0.29826028006E+02  0.54367069647E+02  0.39999966875E+02 0.  0.
        -12    1    3    3    0    0 -0.19601354621E+02 -0.90540522682E+01  0.29826028006E+02  0.36820930353E+02  0.00000000000E+00 0.  1.
         11    1    4    4    0    0  0.23933391018E+02  0.10212717078E+02 -0.16196347422E+02  0.30650097322E+02  0.51100000000E-03 0. -1.
        -11    1    4    4    0    0  0.18016909213E+01 -0.87436307917E+01 -0.33221204437E+01  0.95254214658E+01  0.51100000000E-03 0.  1.
         12    1    4    4    0    0 -0.61337273189E+01  0.75849659817E+01 -0.10307560140E+02  0.14191550860E+02  0.00000000000E+00 0. -1.
</event>
<event>
 8    1  0.1262344E-006  0.9118800E+02  0.7816164E-02  0.1184000E+00
        -11   -1    0    0    0    0  0.00000000000E+00  0.00000000000E+00  0.45593999997E+02  0.45594000000E+02  0.51100000000E-03 0.  1.
         11   -1    0    0    0    0 -0.00000000000E+00 -0.00000000000E+00 -0.45593999997E+02  0.45594000000E+02  0.51100000000E-03 0. -1.
         23    2    1    2    0    0  0.35527136788E-14  0.00000000000E+00  0.00000000000E+00  0.91188000000E+02  0.91188000000E+02 0.  0.
    9900012    2    3    3    0    0  0.22523650412E+02  0.27056436818E+02  0.10789531450E+02  0.54367087599E+02  0.40000007799E+02 0.  0.
         12    1    3    3    0    0 -0.22523650412E+02 -0.27056436818E+02 -0.10789531450E+02  0.36820912401E+02  0.00000000000E+00 0. -1.
         11    1    4    4    0    0  0.97971015596E+00  0.89189677916E+01 -0.62480731547E+01  0.10933720175E+02  0.51100000000E-03 0. -1.
        -11    1    4    4    0    0  0.98071507878E+01  0.79270919677E+01 -0.72835379810E+01  0.14562586289E+02  0.51100000000E-03 0.  1.
         12    1    4    4    0    0  0.11736789468E+02  0.10210377058E+02  0.24321142585E+02  0.28870781135E+02  0.00000000000E+00 0. -1.
</event>
<event>
 8    1  0.1262344E-006  0.9118800E+02  0.7816164E-02  0.1184000E+00
        -11   -1    0    0    0    0  0.00000000000E+00  0.00000000000E+00  0.45593999997E+02  0.45594000000E+02  0.51100000000E-03 0. -1.
         11   -1    0    0    0    0 -0.00000000000E+00 -0.00000000000E+00 -0.45593999997E+02  0.45594000000E+02  0.51100000000E-03 0.  1.
         23    2    1    2    0    0  0.71054273576E-14 -0.35527136788E-14 -0.35527136788E-14  0.91188000000E+02  0.91188000000E+02 0.  0.
    9900012    2    3    3    0    0  0.28093996612E+02 -0.18129164652E+02 -0.15421937339E+02  0.54367144389E+02  0.40000137264E+02 0.  0.
         12    1    3    3    0    0 -0.28093996612E+02  0.18129164652E+02  0.15421937339E+02  0.36820855611E+02  0.00000000000E+00 0. -1.
         11    1    4    4    0    0  0.43052909166E+00 -0.68990293603E+01 -0.13687879741E+01  0.70466688720E+01  0.51100000000E-03 0. -1.
        -11    1    4    4    0    0  0.25780062705E+02 -0.55975423424E+01 -0.24046403780E+02  0.35695569030E+02  0.51100000000E-03 0.  1.
         12    1    4    4    0    0  0.18834048155E+01 -0.56325929488E+01  0.99932544154E+01  0.11624906487E+02  0.00000000000E+00 0. -1.
</event>
<event>
 8    1  0.1262344E-006  0.9118800E+02  0.7816164E-02  0.1184000E+00
        -11   -1    0    0    0    0  0.00000000000E+00  0.00000000000E+00  0.45593999997E+02  0.45594000000E+02  0.51100000000E-03 0.  1.
         11   -1    0    0    0    0 -0.00000000000E+00 -0.00000000000E+00 -0.45593999997E+02  0.45594000000E+02  0.51100000000E-03 0. -1.
         23    2    1    2    0    0  0.00000000000E+00 -0.88817841970E-15  0.88817841970E-15  0.91188000000E+02  0.91188000000E+02 0.  0.
    9900012    2    3    3    0    0  0.35639470291E+02 -0.71848206321E+01 -0.58293756605E+01  0.54367148424E+02  0.40000146463E+02 0.  0.
        -12    1    3    3    0    0 -0.35639470291E+02  0.71848206321E+01  0.58293756605E+01  0.36820851576E+02  0.00000000000E+00 0.  1.
         11    1    4    4    0    0  0.14401217589E+02  0.12868604150E+02  0.10895366772E+01  0.19343813772E+02  0.51100000000E-03 0. -1.
        -11    1    4    4    0    0  0.13669785289E+01 -0.12475291086E+02  0.33096893955E+00  0.12554324302E+02  0.51100000000E-03 0.  1.
         12    1    4    4    0    0  0.19871274174E+02 -0.75781336969E+01 -0.72498812772E+01  0.22469010351E+02  0.00000000000E+00 0. -1.
</event>
<event>
 8    1  0.1262344E-006  0.9118800E+02  0.7816164E-02  0.1184000E+00
        -11   -1    0    0    0    0  0.00000000000E+00  0.00000000000E+00  0.45593999997E+02  0.45594000000E+02  0.51100000000E-03 0. -1.
         11   -1    0    0    0    0 -0.00000000000E+00 -0.00000000000E+00 -0.45593999997E+02  0.45594000000E+02  0.51100000000E-03 0.  1.
         23    2    1    2    0    0  0.00000000000E+00  0.00000000000E+00  0.00000000000E+00  0.91188000000E+02  0.91188000000E+02 0.  0.
    9900012    2    3    3    0    0  0.20670262908E+02  0.40154974997E+00 -0.30468983625E+02  0.54367082384E+02  0.39999995912E+02 0.  0.
         12    1    3    3    0    0 -0.20670262908E+02 -0.40154974997E+00  0.30468983625E+02  0.36820917616E+02  0.00000000000E+00 0. -1.
         11    1    4    4    0    0  0.63525719596E+01 -0.20931234643E+01  0.10696984449E+01  0.67735213415E+01  0.51100000000E-03 0. -1.
        -11    1    4    4    0    0  0.19397593602E+02  0.13360120656E+02 -0.19219721122E+02  0.30399952989E+02  0.51100000000E-03 0.  1.
         12    1    4    4    0    0 -0.50799026529E+01 -0.10865447441E+02 -0.12318960948E+02  0.17193608054E+02  0.00000000000E+00 0. -1.
</event>
<event>
 8    1  0.1262344E-006  0.9118800E+02  0.7816164E-02  0.1184000E+00
        -11   -1    0    0    0    0  0.00000000000E+00  0.00000000000E+00  0.45593999997E+02  0.45594000000E+02  0.51100000000E-03 0. -1.
         11   -1    0    0    0    0 -0.00000000000E+00 -0.00000000000E+00 -0.45593999997E+02  0.45594000000E+02  0.51100000000E-03 0.  1.
         23    2    1    2    0    0  0.00000000000E+00  0.00000000000E+00  0.35527136788E-14  0.91188000000E+02  0.91188000000E+02 0.  0.
    9900012    2    3    3    0    0 -0.13174633443E+02 -0.17275709076E+02 -0.29728097825E+02  0.54367069937E+02  0.39999967535E+02 0.  0.
         12    1    3    3    0    0  0.13174633443E+02  0.17275709076E+02  0.29728097825E+02  0.36820930063E+02  0.00000000000E+00 0. -1.
         11    1    4    4    0    0  0.34284517309E+01  0.67934770395E+01 -0.69704276717E+01  0.10319519066E+02  0.51100000000E-03 0. -1.
        -11    1    4    4    0    0  0.56012055886E+01 -0.26389402966E+01 -0.71750288937E+01  0.94772648914E+01  0.51100000000E-03 0.  1.
         12    1    4    4    0    0 -0.22204290763E+02 -0.21430245819E+02 -0.15582641260E+02  0.34570285980E+02  0.00000000000E+00 0. -1.
</event>
<event>
 8    1  0.1262344E-006  0.9118800E+02  0.7816164E-02  0.1184000E+00
        -11   -1    0    0    0    0  0.00000000000E+00  0.00000000000E+00  0.45593999997E+02  0.45594000000E+02  0.51100000000E-03 0.  1.
         11   -1    0    0    0    0 -0.00000000000E+00 -0.00000000000E+00 -0.45593999997E+02  0.45594000000E+02  0.51100000000E-03 0. -1.
         23    2    1    2    0    0  0.17763568394E-14  0.71054273576E-14 -0.35527136788E-14  0.91188000000E+02  0.91188000000E+02 0.  0.
    9900012    2    3    3    0    0 -0.12388385729E+02 -0.30440735371E+02  0.16603211846E+02  0.54367121215E+02  0.40000084433E+02 0.  0.
         12    1    3    3    0    0  0.12388385729E+02  0.30440735371E+02 -0.16603211846E+02  0.36820878785E+02  0.00000000000E+00 0. -1.
         11    1    4    4    0    0 -0.41734282236E+01 -0.19862354230E+02  0.16594164320E+02  0.26216348114E+02  0.51100000000E-03 0. -1.
        -11    1    4    4    0    0 -0.96430399200E+00 -0.13640716913E+02  0.88694999925E+01  0.16299296625E+02  0.51100000000E-03 0.  1.
         12    1    4    4    0    0 -0.72506535138E+01  0.30623357719E+01 -0.88604524663E+01  0.11851476476E+02  0.00000000000E+00 0. -1.
</event>
<event>
 8    1  0.1262344E-006  0.9118800E+02  0.7816164E-02  0.1184000E+00
        -11   -1    0    0    0    0  0.00000000000E+00  0.00000000000E+00  0.45593999997E+02  0.45594000000E+02  0.51100000000E-03 0. -1.
         11   -1    0    0    0    0 -0.00000000000E+00 -0.00000000000E+00 -0.45593999997E+02  0.45594000000E+02  0.51100000000E-03 0.  1.
         23    2    1    2    0    0 -0.35527136788E-14 -0.35527136788E-14  0.17763568394E-14  0.91188000000E+02  0.91188000000E+02 0.  0.
    9900012    2    3    3    0    0 -0.23094418740E+02 -0.26210717257E+02 -0.11637227751E+02  0.54367096347E+02  0.40000027743E+02 0.  0.
        -12    1    3    3    0    0  0.23094418740E+02  0.26210717257E+02  0.11637227751E+02  0.36820903653E+02  0.00000000000E+00 0.  1.
         11    1    4    4    0    0 -0.42035757891E+01 -0.32225857515E+00 -0.10302087047E+02  0.11131347528E+02  0.51100000000E-03 0. -1.
        -11    1    4    4    0    0 -0.12500026173E+02  0.35300836475E+01 -0.18913732708E+01  0.13125907130E+02  0.51100000000E-03 0.  1.
         12    1    4    4    0    0 -0.63908167786E+01 -0.29418542329E+02  0.55623256657E+00  0.30109841689E+02  0.00000000000E+00 0. -1.
</event>
<event>
 8    1  0.1262344E-006  0.9118800E+02  0.7816164E-02  0.1184000E+00
        -11   -1    0    0    0    0  0.00000000000E+00  0.00000000000E+00  0.45593999997E+02  0.45594000000E+02  0.51100000000E-03 0.  1.
         11   -1    0    0    0    0 -0.00000000000E+00 -0.00000000000E+00 -0.45593999997E+02  0.45594000000E+02  0.51100000000E-03 0. -1.
         23    2    1    2    0    0  0.35527136788E-14 -0.88817841970E-15  0.00000000000E+00  0.91188000000E+02  0.91188000000E+02 0.  0.
    9900012    2    3    3    0    0  0.17806705212E+02 -0.68469317774E+01 -0.31493175007E+02  0.54367091574E+02  0.40000016862E+02 0.  0.
        -12    1    3    3    0    0 -0.17806705212E+02  0.68469317774E+01  0.31493175007E+02  0.36820908426E+02  0.00000000000E+00 0.  1.
         11    1    4    4    0    0 -0.26090604726E+01  0.23136739985E+01 -0.29830348458E+02  0.30033480873E+02  0.51100000000E-03 0. -1.
        -11    1    4    4    0    0  0.41385619530E+01 -0.63366161084E+01 -0.19319055255E+01  0.78110599770E+01  0.51100000000E-03 0.  1.
        -12    1    4    4    0    0  0.16277203731E+02 -0.28239896674E+01  0.26907897655E+00  0.16522550724E+02  0.00000000000E+00 0.  1.
</event>
<event>
 8    1  0.1262344E-006  0.9118800E+02  0.7816164E-02  0.1184000E+00
        -11   -1    0    0    0    0  0.00000000000E+00  0.00000000000E+00  0.45593999997E+02  0.45594000000E+02  0.51100000000E-03 0. -1.
         11   -1    0    0    0    0 -0.00000000000E+00 -0.00000000000E+00 -0.45593999997E+02  0.45594000000E+02  0.51100000000E-03 0.  1.
         23    2    1    2    0    0  0.88817841970E-15  0.35527136788E-14  0.00000000000E+00  0.91188000000E+02  0.91188000000E+02 0.  0.
    9900012    2    3    3    0    0  0.46213596680E+01  0.31438991074E+02 -0.18601414707E+02  0.54367085372E+02  0.40000002723E+02 0.  0.
         12    1    3    3    0    0 -0.46213596680E+01 -0.31438991074E+02  0.18601414707E+02  0.36820914628E+02  0.00000000000E+00 0. -1.
         11    1    4    4    0    0  0.16176050570E+01  0.71715395243E+01  0.37837692364E+01  0.82682848986E+01  0.51100000000E-03 0. -1.
        -11    1    4    4    0    0  0.97136764139E+01  0.46514591372E+01  0.48988743084E+01  0.11831760280E+02  0.51100000000E-03 0.  1.
        -12    1    4    4    0    0 -0.67099218029E+01  0.19615992412E+02 -0.27284058252E+02  0.34267040193E+02  0.00000000000E+00 0.  1.
</event>
<event>
 8    1  0.1262344E-006  0.9118800E+02  0.7816164E-02  0.1184000E+00
        -11   -1    0    0    0    0  0.00000000000E+00  0.00000000000E+00  0.45593999997E+02  0.45594000000E+02  0.51100000000E-03 0.  1.
         11   -1    0    0    0    0 -0.00000000000E+00 -0.00000000000E+00 -0.45593999997E+02  0.45594000000E+02  0.51100000000E-03 0. -1.
         23    2    1    2    0    0 -0.35527136788E-14  0.00000000000E+00  0.00000000000E+00  0.91188000000E+02  0.91188000000E+02 0.  0.
    9900012    2    3    3    0    0 -0.29574491479E+02  0.21223892962E+02  0.55382117529E+01  0.54367136782E+02  0.40000119922E+02 0.  0.
         12    1    3    3    0    0  0.29574491479E+02 -0.21223892962E+02 -0.55382117529E+01  0.36820863218E+02  0.00000000000E+00 0. -1.
         11    1    4    4    0    0 -0.36527950841E+01  0.98259234644E+00  0.14637005652E+02  0.15117881279E+02  0.51100000000E-03 0. -1.
        -11    1    4    4    0    0 -0.29058344475E+01  0.12596883910E+02  0.10263142771E+01  0.12968372270E+02  0.51100000000E-03 0.  1.
        -12    1    4    4    0    0 -0.23015861947E+02  0.76444167061E+01 -0.10125108177E+02  0.26280883233E+02  0.00000000000E+00 0.  1.
</event>
<event>
 8    1  0.1262344E-006  0.9118800E+02  0.7816164E-02  0.1184000E+00
        -11   -1    0    0    0    0  0.00000000000E+00  0.00000000000E+00  0.45593999997E+02  0.45594000000E+02  0.51100000000E-03 0.  1.
         11   -1    0    0    0    0 -0.00000000000E+00 -0.00000000000E+00 -0.45593999997E+02  0.45594000000E+02  0.51100000000E-03 0. -1.
         23    2    1    2    0    0  0.00000000000E+00  0.35527136788E-14 -0.35527136788E-14  0.91188000000E+02  0.91188000000E+02 0.  0.
    9900012    2    3    3    0    0 -0.13260766188E+02  0.17395931345E+02 -0.29619366284E+02  0.54367174286E+02  0.40000205418E+02 0.  0.
        -12    1    3    3    0    0  0.13260766188E+02 -0.17395931345E+02  0.29619366284E+02  0.36820825714E+02  0.00000000000E+00 0.  1.
         11    1    4    4    0    0 -0.24127432800E+01  0.13007082450E+01 -0.24516489790E+02  0.24669240847E+02  0.51100000000E-03 0. -1.
        -11    1    4    4    0    0 -0.13821490741E+02  0.26424801943E+01 -0.71251158145E+01  0.15772874929E+02  0.51100000000E-03 0.  1.
        -12    1    4    4    0    0  0.29734678334E+01  0.13452742906E+02  0.20222393208E+01  0.13925058510E+02  0.00000000000E+00 0.  1.
</event>
<event>
 8    1  0.1262344E-006  0.9118800E+02  0.7816164E-02  0.1184000E+00
        -11   -1    0    0    0    0  0.00000000000E+00  0.00000000000E+00  0.45593999997E+02  0.45594000000E+02  0.51100000000E-03 0.  1.
         11   -1    0    0    0    0 -0.00000000000E+00 -0.00000000000E+00 -0.45593999997E+02  0.45594000000E+02  0.51100000000E-03 0. -1.
         23    2    1    2    0    0  0.00000000000E+00  0.00000000000E+00  0.00000000000E+00  0.91188000000E+02  0.91188000000E+02 0.  0.
    9900012    2    3    3    0    0  0.23900517412E+02  0.23100801309E+02 -0.15839744056E+02  0.54367092278E+02  0.40000018466E+02 0.  0.
        -12    1    3    3    0    0 -0.23900517412E+02 -0.23100801309E+02  0.15839744056E+02  0.36820907722E+02  0.00000000000E+00 0.  1.
         11    1    4    4    0    0  0.38388096250E+01  0.13500612297E+02  0.11190732372E+02  0.17950918723E+02  0.51100000000E-03 0. -1.
        -11    1    4    4    0    0  0.43749321835E+01  0.70921887075E+01 -0.11483831776E+02  0.14188642105E+02  0.51100000000E-03 0.  1.
        -12    1    4    4    0    0  0.15686775604E+02  0.25080003047E+01 -0.15546644653E+02  0.22227531449E+02  0.00000000000E+00 0.  1.
</event>
<event>
 8    1  0.1262344E-006  0.9118800E+02  0.7816164E-02  0.1184000E+00
        -11   -1    0    0    0    0  0.00000000000E+00  0.00000000000E+00  0.45593999997E+02  0.45594000000E+02  0.51100000000E-03 0.  1.
         11   -1    0    0    0    0 -0.00000000000E+00 -0.00000000000E+00 -0.45593999997E+02  0.45594000000E+02  0.51100000000E-03 0. -1.
         23    2    1    2    0    0 -0.35527136788E-14  0.35527136788E-14  0.00000000000E+00  0.91188000000E+02  0.91188000000E+02 0.  0.
    9900012    2    3    3    0    0  0.17106973091E+02 -0.18765999129E+02 -0.26664017719E+02  0.54367067196E+02  0.39999961287E+02 0.  0.
        -12    1    3    3    0    0 -0.17106973091E+02  0.18765999129E+02  0.26664017719E+02  0.36820932804E+02  0.00000000000E+00 0.  1.
         11    1    4    4    0    0  0.91404220959E+00  0.84770686526E+01 -0.46267105858E+01  0.97006503497E+01  0.51100000000E-03 0. -1.
        -11    1    4    4    0    0 -0.26794150996E+01 -0.11309688736E+02 -0.86806811379E-01  0.11623074476E+02  0.51100000000E-03 0.  1.
         12    1    4    4    0    0  0.18872345981E+02 -0.15933379046E+02 -0.21950500322E+02  0.33043342370E+02  0.00000000000E+00 0. -1.
</event>
<event>
 8    1  0.1262344E-006  0.9118800E+02  0.7816164E-02  0.1184000E+00
        -11   -1    0    0    0    0  0.00000000000E+00  0.00000000000E+00  0.45593999997E+02  0.45594000000E+02  0.51100000000E-03 0. -1.
         11   -1    0    0    0    0 -0.00000000000E+00 -0.00000000000E+00 -0.45593999997E+02  0.45594000000E+02  0.51100000000E-03 0.  1.
         23    2    1    2    0    0  0.00000000000E+00  0.88817841970E-15  0.00000000000E+00  0.91188000000E+02  0.91188000000E+02 0.  0.
    9900012    2    3    3    0    0  0.18638916582E+02 -0.55228624064E+01 -0.31270900579E+02  0.54367076009E+02  0.39999981378E+02 0.  0.
         12    1    3    3    0    0 -0.18638916582E+02  0.55228624064E+01  0.31270900579E+02  0.36820923991E+02  0.00000000000E+00 0. -1.
         11    1    4    4    0    0  0.75816332419E+01 -0.11055295006E+02 -0.18473720356E+01  0.13531943466E+02  0.51100000000E-03 0. -1.
        -11    1    4    4    0    0  0.18243664648E+02 -0.11818606830E+01 -0.21373838158E+02  0.28125949803E+02  0.51100000000E-03 0.  1.
        -12    1    4    4    0    0 -0.71863813087E+01  0.67142932822E+01 -0.80496903858E+01  0.12709182739E+02  0.00000000000E+00 0.  1.
</event>
<event>
 8    1  0.1262344E-006  0.9118800E+02  0.7816164E-02  0.1184000E+00
        -11   -1    0    0    0    0  0.00000000000E+00  0.00000000000E+00  0.45593999997E+02  0.45594000000E+02  0.51100000000E-03 0. -1.
         11   -1    0    0    0    0 -0.00000000000E+00 -0.00000000000E+00 -0.45593999997E+02  0.45594000000E+02  0.51100000000E-03 0.  1.
         23    2    1    2    0    0 -0.66613381478E-15  0.00000000000E+00  0.00000000000E+00  0.91188000000E+02  0.91188000000E+02 0.  0.
    9900012    2    3    3    0    0 -0.10504879257E+01 -0.45807842209E+01 -0.36519755364E+02  0.54367086909E+02  0.40000006227E+02 0.  0.
         12    1    3    3    0    0  0.10504879257E+01  0.45807842209E+01  0.36519755364E+02  0.36820913091E+02  0.00000000000E+00 0. -1.
         11    1    4    4    0    0  0.27510579777E+01 -0.15230847911E+02 -0.20661009145E+01  0.15614602824E+02  0.51100000000E-03 0. -1.
        -11    1    4    4    0    0  0.60929776545E+00  0.10008337154E+02 -0.32264501214E+02  0.33786625982E+02  0.51100000000E-03 0.  1.
         12    1    4    4    0    0 -0.44108436689E+01  0.64172653605E+00 -0.21891532357E+01  0.49658581039E+01  0.00000000000E+00 0. -1.
</event>
<event>
 8    1  0.1262344E-006  0.9118800E+02  0.7816164E-02  0.1184000E+00
        -11   -1    0    0    0    0  0.00000000000E+00  0.00000000000E+00  0.45593999997E+02  0.45594000000E+02  0.51100000000E-03 0. -1.
         11   -1    0    0    0    0 -0.00000000000E+00 -0.00000000000E+00 -0.45593999997E+02  0.45594000000E+02  0.51100000000E-03 0.  1.
         23    2    1    2    0    0 -0.88817841970E-15 -0.35527136788E-14 -0.35527136788E-14  0.91188000000E+02  0.91188000000E+02 0.  0.
    9900012    2    3    3    0    0 -0.72936953262E+01  0.30767729129E+02  0.18866044809E+02  0.54367098408E+02  0.40000032442E+02 0.  0.
        -12    1    3    3    0    0  0.72936953262E+01 -0.30767729129E+02 -0.18866044809E+02  0.36820901592E+02  0.00000000000E+00 0.  1.
         11    1    4    4    0    0 -0.22244589407E+00  0.18872716304E+01  0.97555031535E+01  0.99388690716E+01  0.51100000000E-03 0. -1.
        -11    1    4    4    0    0 -0.17932883414E+02  0.11139591277E+02 -0.13308333679E+01  0.21153012057E+02  0.51100000000E-03 0.  1.
        -12    1    4    4    0    0  0.10861633982E+02  0.17740866222E+02  0.10441375023E+02  0.23275217280E+02  0.00000000000E+00 0.  1.
</event>
<event>
 8    1  0.1262344E-006  0.9118800E+02  0.7816164E-02  0.1184000E+00
        -11   -1    0    0    0    0  0.00000000000E+00  0.00000000000E+00  0.45593999997E+02  0.45594000000E+02  0.51100000000E-03 0.  1.
         11   -1    0    0    0    0 -0.00000000000E+00 -0.00000000000E+00 -0.45593999997E+02  0.45594000000E+02  0.51100000000E-03 0. -1.
         23    2    1    2    0    0  0.00000000000E+00 -0.71054273576E-14  0.17763568394E-14  0.91188000000E+02  0.91188000000E+02 0.  0.
    9900012    2    3    3    0    0  0.12437605244E+02 -0.32907761912E+02  0.10870377178E+02  0.54367083142E+02  0.39999997639E+02 0.  0.
         12    1    3    3    0    0 -0.12437605244E+02  0.32907761912E+02 -0.10870377178E+02  0.36820916858E+02  0.00000000000E+00 0. -1.
         11    1    4    4    0    0  0.13635359019E+02 -0.60406145083E+01 -0.35961554143E+01  0.15340937821E+02  0.51100000000E-03 0. -1.
        -11    1    4    4    0    0  0.58519433016E+01  0.22327863606E+01  0.32132848450E+01  0.70395862871E+01  0.51100000000E-03 0.  1.
        -12    1    4    4    0    0 -0.70496970766E+01 -0.29099933764E+02  0.11253247747E+02  0.31986559034E+02  0.00000000000E+00 0.  1.
</event>
<event>
 8    1  0.1262344E-006  0.9118800E+02  0.7816164E-02  0.1184000E+00
        -11   -1    0    0    0    0  0.00000000000E+00  0.00000000000E+00  0.45593999997E+02  0.45594000000E+02  0.51100000000E-03 0. -1.
         11   -1    0    0    0    0 -0.00000000000E+00 -0.00000000000E+00 -0.45593999997E+02  0.45594000000E+02  0.51100000000E-03 0.  1.
         23    2    1    2    0    0  0.00000000000E+00  0.00000000000E+00 -0.35527136788E-14  0.91188000000E+02  0.91188000000E+02 0.  0.
    9900012    2    3    3    0    0  0.97807774785E+01 -0.22430504408E+02 -0.27513442121E+02  0.54367073431E+02  0.39999975500E+02 0.  0.
         12    1    3    3    0    0 -0.97807774785E+01  0.22430504408E+02  0.27513442121E+02  0.36820926569E+02  0.00000000000E+00 0. -1.
         11    1    4    4    0    0  0.32689592909E+01 -0.86006964937E+01 -0.72003710759E+01  0.11683467761E+02  0.51100000000E-03 0. -1.
        -11    1    4    4    0    0 -0.75056715220E+01  0.28380600861E+00  0.60593502269E+01  0.96504598999E+01  0.51100000000E-03 0.  1.
        -12    1    4    4    0    0  0.14017489709E+02 -0.14113613923E+02 -0.26372421272E+02  0.33033145770E+02  0.00000000000E+00 0.  1.
</event>
<event>
 8    1  0.1262344E-006  0.9118800E+02  0.7816164E-02  0.1184000E+00
        -11   -1    0    0    0    0  0.00000000000E+00  0.00000000000E+00  0.45593999997E+02  0.45594000000E+02  0.51100000000E-03 0. -1.
         11   -1    0    0    0    0 -0.00000000000E+00 -0.00000000000E+00 -0.45593999997E+02  0.45594000000E+02  0.51100000000E-03 0.  1.
         23    2    1    2    0    0  0.13322676296E-14  0.00000000000E+00  0.00000000000E+00  0.91188000000E+02  0.91188000000E+02 0.  0.
    9900012    2    3    3    0    0  0.14171021946E+01 -0.10584184246E+02 -0.35238421306E+02  0.54367089216E+02  0.40000011486E+02 0.  0.
         12    1    3    3    0    0 -0.14171021946E+01  0.10584184246E+02  0.35238421306E+02  0.36820910784E+02  0.00000000000E+00 0. -1.
         11    1    4    4    0    0 -0.11019468032E+02  0.18339387118E+01 -0.25087540752E+01  0.11449273085E+02  0.51100000000E-03 0. -1.
        -11    1    4    4    0    0  0.34714393134E+01 -0.14562652594E+02 -0.29621796614E+02  0.33189946917E+02  0.51100000000E-03 0.  1.
        -12    1    4    4    0    0  0.89651309134E+01  0.21445296367E+01 -0.31078706175E+01  0.97278692134E+01  0.00000000000E+00 0.  1.
</event>
<event>
 8    1  0.1262344E-006  0.9118800E+02  0.7816164E-02  0.1184000E+00
        -11   -1    0    0    0    0  0.00000000000E+00  0.00000000000E+00  0.45593999997E+02  0.45594000000E+02  0.51100000000E-03 0. -1.
         11   -1    0    0    0    0 -0.00000000000E+00 -0.00000000000E+00 -0.45593999997E+02  0.45594000000E+02  0.51100000000E-03 0.  1.
         23    2    1    2    0    0  0.88817841970E-15 -0.17763568394E-14  0.00000000000E+00  0.91188000000E+02  0.91188000000E+02 0.  0.
    9900012    2    3    3    0    0  0.48142230294E+01 -0.11457469371E+02 -0.34660197060E+02  0.54367087355E+02  0.40000007244E+02 0.  0.
         12    1    3    3    0    0 -0.48142230294E+01  0.11457469371E+02  0.34660197060E+02  0.36820912645E+02  0.00000000000E+00 0. -1.
         11    1    4    4    0    0 -0.34399623047E+01 -0.12791942426E+02 -0.19441125724E+02  0.23524976118E+02  0.51100000000E-03 0. -1.
        -11    1    4    4    0    0 -0.19979318283E+01  0.41163615579E+00 -0.19563313659E+02  0.19669377659E+02  0.51100000000E-03 0.  1.
         12    1    4    4    0    0  0.10252117162E+02  0.92283689841E+00  0.43442423228E+01  0.11172733578E+02  0.00000000000E+00 0. -1.
</event>
<event>
 8    1  0.1262344E-006  0.9118800E+02  0.7816164E-02  0.1184000E+00
        -11   -1    0    0    0    0  0.00000000000E+00  0.00000000000E+00  0.45593999997E+02  0.45594000000E+02  0.51100000000E-03 0. -1.
         11   -1    0    0    0    0 -0.00000000000E+00 -0.00000000000E+00 -0.45593999997E+02  0.45594000000E+02  0.51100000000E-03 0.  1.
         23    2    1    2    0    0 -0.22204460493E-15  0.00000000000E+00  0.00000000000E+00  0.91188000000E+02  0.91188000000E+02 0.  0.
    9900012    2    3    3    0    0 -0.15905569122E+01  0.26491071933E+02  0.25523947103E+02  0.54367100511E+02  0.40000037235E+02 0.  0.
        -12    1    3    3    0    0  0.15905569122E+01 -0.26491071933E+02 -0.25523947103E+02  0.36820899489E+02  0.00000000000E+00 0.  1.
         11    1    4    4    0    0 -0.66485839339E+01 -0.93668452616E+00 -0.26898284971E+01  0.72329954952E+01  0.51100000000E-03 0. -1.
        -11    1    4    4    0    0 -0.50641070298E+01  0.26943620758E+02  0.22725037193E+02  0.35609425652E+02  0.51100000000E-03 0.  1.
        -12    1    4    4    0    0  0.10122134052E+02  0.48413570111E+00  0.54887384072E+01  0.11524679364E+02  0.00000000000E+00 0.  1.
</event>
<event>
 8    1  0.1262344E-006  0.9118800E+02  0.7816164E-02  0.1184000E+00
        -11   -1    0    0    0    0  0.00000000000E+00  0.00000000000E+00  0.45593999997E+02  0.45594000000E+02  0.51100000000E-03 0.  1.
         11   -1    0    0    0    0 -0.00000000000E+00 -0.00000000000E+00 -0.45593999997E+02  0.45594000000E+02  0.51100000000E-03 0. -1.
         23    2    1    2    0    0  0.00000000000E+00 -0.88817841970E-15  0.00000000000E+00  0.91188000000E+02  0.91188000000E+02 0.  0.
    9900012    2    3    3    0    0 -0.28358433618E+02  0.32937268908E+01 -0.23253318762E+02  0.54367269053E+02  0.40000421457E+02 0.  0.
        -12    1    3    3    0    0  0.28358433618E+02 -0.32937268908E+01  0.23253318762E+02  0.36820730947E+02  0.00000000000E+00 0.  1.
         11    1    4    4    0    0 -0.12964594406E+02 -0.12634792819E+01 -0.27724807725E+00  0.13028965989E+02  0.51100000000E-03 0. -1.
        -11    1    4    4    0    0  0.71457631890E+01 -0.20966322535E+01 -0.14599053781E+02  0.16388720814E+02  0.51100000000E-03 0.  1.
        -12    1    4    4    0    0 -0.22539602401E+02  0.66538384262E+01 -0.83770169033E+01  0.24949582249E+02  0.00000000000E+00 0.  1.
</event>
<event>
 8    1  0.1262344E-006  0.9118800E+02  0.7816164E-02  0.1184000E+00
        -11   -1    0    0    0    0  0.00000000000E+00  0.00000000000E+00  0.45593999997E+02  0.45594000000E+02  0.51100000000E-03 0.  1.
         11   -1    0    0    0    0 -0.00000000000E+00 -0.00000000000E+00 -0.45593999997E+02  0.45594000000E+02  0.51100000000E-03 0. -1.
         23    2    1    2    0    0 -0.44408920985E-15 -0.71054273576E-14  0.00000000000E+00  0.91188000000E+02  0.91188000000E+02 0.  0.
    9900012    2    3    3    0    0 -0.28287346655E+01 -0.32695701206E+02 -0.16696413730E+02  0.54367070509E+02  0.39999968839E+02 0.  0.
        -12    1    3    3    0    0  0.28287346655E+01  0.32695701206E+02  0.16696413730E+02  0.36820929491E+02  0.00000000000E+00 0.  1.
         11    1    4    4    0    0  0.88281776801E+01 -0.11828390115E+02 -0.23053023873E+02  0.27373151880E+02  0.51100000000E-03 0. -1.
        -11    1    4    4    0    0 -0.14326799146E+01 -0.10138724670E+00  0.33602412759E+01  0.36543224823E+01  0.51100000000E-03 0.  1.
         12    1    4    4    0    0 -0.10224232431E+02 -0.20765923844E+02  0.29963688675E+01  0.23339596147E+02  0.00000000000E+00 0. -1.
</event>
<event>
 8    1  0.1262344E-006  0.9118800E+02  0.7816164E-02  0.1184000E+00
        -11   -1    0    0    0    0  0.00000000000E+00  0.00000000000E+00  0.45593999997E+02  0.45594000000E+02  0.51100000000E-03 0. -1.
         11   -1    0    0    0    0 -0.00000000000E+00 -0.00000000000E+00 -0.45593999997E+02  0.45594000000E+02  0.51100000000E-03 0.  1.
         23    2    1    2    0    0  0.22204460493E-15  0.71054273576E-14  0.00000000000E+00  0.91188000000E+02  0.91188000000E+02 0.  0.
    9900012    2    3    3    0    0 -0.64492061563E+00 -0.36495111914E+02 -0.48449571788E+01  0.54367045011E+02  0.39999910711E+02 0.  0.
        -12    1    3    3    0    0  0.64492061563E+00  0.36495111914E+02  0.48449571788E+01  0.36820954989E+02  0.00000000000E+00 0.  1.
         11    1    4    4    0    0 -0.90180925639E+01 -0.77110907298E+01  0.72809548072E+01  0.13921178718E+02  0.51100000000E-03 0. -1.
        -11    1    4    4    0    0  0.28462769750E+01 -0.31556497091E+02 -0.70824086700E+01  0.32466510655E+02  0.51100000000E-03 0.  1.
         12    1    4    4    0    0  0.55268949732E+01  0.27724759065E+01 -0.50435033160E+01  0.79793556379E+01  0.00000000000E+00 0. -1.
</event>
<event>
 8    1  0.1262344E-006  0.9118800E+02  0.7816164E-02  0.1184000E+00
        -11   -1    0    0    0    0  0.00000000000E+00  0.00000000000E+00  0.45593999997E+02  0.45594000000E+02  0.51100000000E-03 0.  1.
         11   -1    0    0    0    0 -0.00000000000E+00 -0.00000000000E+00 -0.45593999997E+02  0.45594000000E+02  0.51100000000E-03 0. -1.
         23    2    1    2    0    0  0.00000000000E+00  0.44408920985E-15  0.00000000000E+00  0.91188000000E+02  0.91188000000E+02 0.  0.
    9900012    2    3    3    0    0 -0.21535394775E+02  0.24359505819E+01  0.29766965475E+02  0.54367091307E+02  0.40000016253E+02 0.  0.
         12    1    3    3    0    0  0.21535394775E+02 -0.24359505819E+01 -0.29766965475E+02  0.36820908693E+02  0.00000000000E+00 0. -1.
         11    1    4    4    0    0 -0.12878594701E+01 -0.83290839125E+01  0.16013774671E+02  0.18096220609E+02  0.51100000000E-03 0. -1.
        -11    1    4    4    0    0 -0.66409901140E+01  0.24216257985E+01 -0.70944661789E+01  0.10014912472E+02  0.51100000000E-03 0.  1.
        -12    1    4    4    0    0 -0.13606545191E+02  0.83434086959E+01  0.20847656983E+02  0.26255958226E+02  0.00000000000E+00 0.  1.
</event>
<event>
 8    1  0.1262344E-006  0.9118800E+02  0.7816164E-02  0.1184000E+00
        -11   -1    0    0    0    0  0.00000000000E+00  0.00000000000E+00  0.45593999997E+02  0.45594000000E+02  0.51100000000E-03 0. -1.
         11   -1    0    0    0    0 -0.00000000000E+00 -0.00000000000E+00 -0.45593999997E+02  0.45594000000E+02  0.51100000000E-03 0.  1.
         23    2    1    2    0    0  0.00000000000E+00 -0.13322676296E-14 -0.17763568394E-14  0.91188000000E+02  0.91188000000E+02 0.  0.
    9900012    2    3    3    0    0 -0.33500150827E+02 -0.29516404563E+01 -0.14993586544E+02  0.54367083061E+02  0.39999997453E+02 0.  0.
         12    1    3    3    0    0  0.33500150827E+02  0.29516404563E+01  0.14993586544E+02  0.36820916939E+02  0.00000000000E+00 0. -1.
         11    1    4    4    0    0 -0.45088223292E+01  0.78776203414E+01  0.31224643079E+01  0.95987584955E+01  0.51100000000E-03 0. -1.
        -11    1    4    4    0    0 -0.12970314413E+02  0.22664173554E+01 -0.20048977267E+02  0.23985979098E+02  0.51100000000E-03 0.  1.
         12    1    4    4    0    0 -0.16021014085E+02 -0.13095678153E+02  0.19329264144E+01  0.20782345467E+02  0.00000000000E+00 0. -1.
</event>
<event>
 8    1  0.1262344E-006  0.9118800E+02  0.7816164E-02  0.1184000E+00
        -11   -1    0    0    0    0  0.00000000000E+00  0.00000000000E+00  0.45593999997E+02  0.45594000000E+02  0.51100000000E-03 0.  1.
         11   -1    0    0    0    0 -0.00000000000E+00 -0.00000000000E+00 -0.45593999997E+02  0.45594000000E+02  0.51100000000E-03 0. -1.
         23    2    1    2    0    0  0.71054273576E-14 -0.44408920985E-15  0.00000000000E+00  0.91188000000E+02  0.91188000000E+02 0.  0.
    9900012    2    3    3    0    0 -0.36104341259E+02 -0.35696108141E+01 -0.62866988003E+01  0.54366971213E+02  0.39999742473E+02 0.  0.
        -12    1    3    3    0    0  0.36104341259E+02  0.35696108141E+01  0.62866988003E+01  0.36821028787E+02  0.00000000000E+00 0.  1.
         11    1    4    4    0    0 -0.17744992144E+02 -0.63798416070E+01  0.97273968053E+01  0.21218137854E+02  0.51100000000E-03 0. -1.
        -11    1    4    4    0    0 -0.24115043668E+01 -0.64276046306E+00  0.55626175491E+01  0.60968195465E+01  0.51100000000E-03 0.  1.
        -12    1    4    4    0    0 -0.15947844748E+02  0.34529912560E+01 -0.21576713155E+02  0.27052013812E+02  0.00000000000E+00 0.  1.
</event>
<event>
 8    1  0.1262344E-006  0.9118800E+02  0.7816164E-02  0.1184000E+00
        -11   -1    0    0    0    0  0.00000000000E+00  0.00000000000E+00  0.45593999997E+02  0.45594000000E+02  0.51100000000E-03 0. -1.
         11   -1    0    0    0    0 -0.00000000000E+00 -0.00000000000E+00 -0.45593999997E+02  0.45594000000E+02  0.51100000000E-03 0.  1.
         23    2    1    2    0    0  0.26645352591E-14 -0.35527136788E-14  0.00000000000E+00  0.91188000000E+02  0.91188000000E+02 0.  0.
    9900012    2    3    3    0    0 -0.31482605206E+01 -0.31758683161E+02  0.18364438373E+02  0.54367107871E+02  0.40000054013E+02 0.  0.
        -12    1    3    3    0    0  0.31482605206E+01  0.31758683161E+02 -0.18364438373E+02  0.36820892129E+02  0.00000000000E+00 0.  1.
         11    1    4    4    0    0  0.12310606890E+02 -0.68938330629E+01  0.13560541816E+02  0.19569472934E+02  0.51100000000E-03 0. -1.
        -11    1    4    4    0    0 -0.17998993348E+02 -0.13765533774E+02  0.62310842072E+00  0.22668082098E+02  0.51100000000E-03 0.  1.
         12    1    4    4    0    0  0.25401259378E+01 -0.11099316324E+02  0.41807881358E+01  0.12129552839E+02  0.00000000000E+00 0. -1.
</event>
<event>
 8    1  0.1262344E-006  0.9118800E+02  0.7816164E-02  0.1184000E+00
        -11   -1    0    0    0    0  0.00000000000E+00  0.00000000000E+00  0.45593999997E+02  0.45594000000E+02  0.51100000000E-03 0. -1.
         11   -1    0    0    0    0 -0.00000000000E+00 -0.00000000000E+00 -0.45593999997E+02  0.45594000000E+02  0.51100000000E-03 0.  1.
         23    2    1    2    0    0  0.38857805862E-15  0.00000000000E+00  0.00000000000E+00  0.91188000000E+02  0.91188000000E+02 0.  0.
    9900012    2    3    3    0    0  0.46312411204E+00  0.15115077629E+02 -0.33572302635E+02  0.54367088009E+02  0.40000008733E+02 0.  0.
         12    1    3    3    0    0 -0.46312411204E+00 -0.15115077629E+02  0.33572302635E+02  0.36820911991E+02  0.00000000000E+00 0. -1.
         11    1    4    4    0    0 -0.13989339110E+02  0.81206200255E+01 -0.10114644608E+02  0.19077529037E+02  0.51100000000E-03 0. -1.
        -11    1    4    4    0    0  0.11365333965E+01  0.34110627481E+01  0.34949750257E+01  0.50141707115E+01  0.51100000000E-03 0.  1.
        -12    1    4    4    0    0  0.13315929826E+02  0.35833948551E+01 -0.26952633053E+02  0.30275388260E+02  0.00000000000E+00 0.  1.
</event>
<event>
 8    1  0.1262344E-006  0.9118800E+02  0.7816164E-02  0.1184000E+00
        -11   -1    0    0    0    0  0.00000000000E+00  0.00000000000E+00  0.45593999997E+02  0.45594000000E+02  0.51100000000E-03 0. -1.
         11   -1    0    0    0    0 -0.00000000000E+00 -0.00000000000E+00 -0.45593999997E+02  0.45594000000E+02  0.51100000000E-03 0.  1.
         23    2    1    2    0    0  0.00000000000E+00 -0.35527136788E-14  0.00000000000E+00  0.91188000000E+02  0.91188000000E+02 0.  0.
    9900012    2    3    3    0    0  0.23688363103E+02 -0.21852642545E+02  0.17807369138E+02  0.54367096585E+02  0.40000028285E+02 0.  0.
        -12    1    3    3    0    0 -0.23688363103E+02  0.21852642545E+02 -0.17807369138E+02  0.36820903415E+02  0.00000000000E+00 0.  1.
         11    1    4    4    0    0  0.10425783664E+01 -0.20974051759E+02  0.19699722002E+02  0.28793694867E+02  0.51100000000E-03 0. -1.
        -11    1    4    4    0    0  0.11125109048E+02 -0.13409057179E+01 -0.67282224507E+01  0.13070388559E+02  0.51100000000E-03 0.  1.
        -12    1    4    4    0    0  0.11520675688E+02  0.46231493151E+00  0.48358695862E+01  0.12503013159E+02  0.00000000000E+00 0.  1.
</event>
<event>
 8    1  0.1262344E-006  0.9118800E+02  0.7816164E-02  0.1184000E+00
        -11   -1    0    0    0    0  0.00000000000E+00  0.00000000000E+00  0.45593999997E+02  0.45594000000E+02  0.51100000000E-03 0. -1.
         11   -1    0    0    0    0 -0.00000000000E+00 -0.00000000000E+00 -0.45593999997E+02  0.45594000000E+02  0.51100000000E-03 0.  1.
         23    2    1    2    0    0  0.35527136788E-14  0.00000000000E+00  0.00000000000E+00  0.91188000000E+02  0.91188000000E+02 0.  0.
    9900012    2    3    3    0    0  0.18812260990E+02  0.20834590511E+02  0.23828369050E+02  0.54367183919E+02  0.40000227379E+02 0.  0.
        -12    1    3    3    0    0 -0.18812260990E+02 -0.20834590511E+02 -0.23828369050E+02  0.36820816081E+02  0.00000000000E+00 0.  1.
         11    1    4    4    0    0  0.31324650685E+01  0.14372898700E+02 -0.17927647467E+01  0.14819128184E+02  0.51100000000E-03 0. -1.
        -11    1    4    4    0    0  0.13984856644E+02  0.34531672375E+01  0.73513571702E+00  0.14423626593E+02  0.51100000000E-03 0.  1.
         12    1    4    4    0    0  0.16949392771E+01  0.30085245739E+01  0.24885998080E+02  0.25124429141E+02  0.00000000000E+00 0. -1.
</event>
<event>
 8    1  0.1262344E-006  0.9118800E+02  0.7816164E-02  0.1184000E+00
        -11   -1    0    0    0    0  0.00000000000E+00  0.00000000000E+00  0.45593999997E+02  0.45594000000E+02  0.51100000000E-03 0.  1.
         11   -1    0    0    0    0 -0.00000000000E+00 -0.00000000000E+00 -0.45593999997E+02  0.45594000000E+02  0.51100000000E-03 0. -1.
         23    2    1    2    0    0  0.00000000000E+00  0.00000000000E+00  0.13322676296E-14  0.91188000000E+02  0.91188000000E+02 0.  0.
    9900012    2    3    3    0    0  0.35288284880E+02  0.10473722930E+02  0.90434076858E+00  0.54367085372E+02  0.40000002723E+02 0.  0.
         12    1    3    3    0    0 -0.35288284880E+02 -0.10473722930E+02 -0.90434076858E+00  0.36820914628E+02  0.00000000000E+00 0. -1.
         11    1    4    4    0    0  0.34033684669E+01  0.99989738431E+01 -0.33352387425E+00  0.10567574616E+02  0.51100000000E-03 0. -1.
        -11    1    4    4    0    0  0.20203411188E+02  0.11323252303E+02  0.10426579931E+02  0.25398965248E+02  0.51100000000E-03 0.  1.
         12    1    4    4    0    0  0.11681505225E+02 -0.10848503216E+02 -0.91887152879E+01  0.18400545508E+02  0.00000000000E+00 0. -1.
</event>
<event>
 8    1  0.1262344E-006  0.9118800E+02  0.7816164E-02  0.1184000E+00
        -11   -1    0    0    0    0  0.00000000000E+00  0.00000000000E+00  0.45593999997E+02  0.45594000000E+02  0.51100000000E-03 0. -1.
         11   -1    0    0    0    0 -0.00000000000E+00 -0.00000000000E+00 -0.45593999997E+02  0.45594000000E+02  0.51100000000E-03 0.  1.
         23    2    1    2    0    0 -0.17763568394E-14 -0.56205040622E-15  0.00000000000E+00  0.91188000000E+02  0.91188000000E+02 0.  0.
    9900012    2    3    3    0    0 -0.92503104618E+01 -0.13855775561E-01 -0.35640026293E+02  0.54367083257E+02  0.39999997900E+02 0.  0.
         12    1    3    3    0    0  0.92503104618E+01  0.13855775561E-01  0.35640026293E+02  0.36820916743E+02  0.00000000000E+00 0. -1.
         11    1    4    4    0    0 -0.43945107184E+01  0.96202559528E+01  0.25465349728E+00  0.10579503661E+02  0.51100000000E-03 0. -1.
        -11    1    4    4    0    0 -0.60644707558E+01 -0.16586481765E+02 -0.28782354057E+02  0.33768522150E+02  0.51100000000E-03 0.  1.
        -12    1    4    4    0    0  0.12086710125E+01  0.69523700370E+01 -0.71123257340E+01  0.10019057445E+02  0.00000000000E+00 0.  1.
</event>
<event>
 8    1  0.1262344E-006  0.9118800E+02  0.7816164E-02  0.1184000E+00
        -11   -1    0    0    0    0  0.00000000000E+00  0.00000000000E+00  0.45593999997E+02  0.45594000000E+02  0.51100000000E-03 0.  1.
         11   -1    0    0    0    0 -0.00000000000E+00 -0.00000000000E+00 -0.45593999997E+02  0.45594000000E+02  0.51100000000E-03 0. -1.
         23    2    1    2    0    0 -0.17763568394E-14  0.35527136788E-14  0.71054273576E-14  0.91188000000E+02  0.91188000000E+02 0.  0.
    9900012    2    3    3    0    0 -0.65141616982E+01  0.21256484329E+02 -0.29351453306E+02  0.54367078776E+02  0.39999987685E+02 0.  0.
        -12    1    3    3    0    0  0.65141616982E+01 -0.21256484329E+02  0.29351453306E+02  0.36820921224E+02  0.00000000000E+00 0.  1.
         11    1    4    4    0    0  0.14792360329E+02  0.70327278764E+01 -0.15866664531E+02  0.22804039754E+02  0.51100000000E-03 0. -1.
        -11    1    4    4    0    0 -0.16575097307E+02  0.45856865109E+01 -0.11379680443E+02  0.20621820937E+02  0.51100000000E-03 0.  1.
        -12    1    4    4    0    0 -0.47314247199E+01  0.96380699418E+01 -0.21051083318E+01  0.10941218084E+02  0.00000000000E+00 0.  1.
</event>
<event>
 8    1  0.1262344E-006  0.9118800E+02  0.7816164E-02  0.1184000E+00
        -11   -1    0    0    0    0  0.00000000000E+00  0.00000000000E+00  0.45593999997E+02  0.45594000000E+02  0.51100000000E-03 0. -1.
         11   -1    0    0    0    0 -0.00000000000E+00 -0.00000000000E+00 -0.45593999997E+02  0.45594000000E+02  0.51100000000E-03 0.  1.
         23    2    1    2    0    0  0.00000000000E+00  0.00000000000E+00  0.00000000000E+00  0.91188000000E+02  0.91188000000E+02 0.  0.
    9900012    2    3    3    0    0  0.12491294532E+02  0.29847251592E+02 -0.17575227398E+02  0.54367089029E+02  0.40000011059E+02 0.  0.
         12    1    3    3    0    0 -0.12491294532E+02 -0.29847251592E+02  0.17575227398E+02  0.36820910971E+02  0.00000000000E+00 0. -1.
         11    1    4    4    0    0  0.56271474973E+01  0.33677671031E+02 -0.53575306770E+01  0.34562312571E+02  0.51100000000E-03 0. -1.
        -11    1    4    4    0    0  0.52111050039E+01  0.15296310712E+01 -0.13049265062E+02  0.14134309516E+02  0.51100000000E-03 0.  1.
         12    1    4    4    0    0  0.16530420308E+01 -0.53600505105E+01  0.83156834136E+00  0.56704669417E+01  0.00000000000E+00 0. -1.
</event>
<event>
 8    1  0.1262344E-006  0.9118800E+02  0.7816164E-02  0.1184000E+00
        -11   -1    0    0    0    0  0.00000000000E+00  0.00000000000E+00  0.45593999997E+02  0.45594000000E+02  0.51100000000E-03 0.  1.
         11   -1    0    0    0    0 -0.00000000000E+00 -0.00000000000E+00 -0.45593999997E+02  0.45594000000E+02  0.51100000000E-03 0. -1.
         23    2    1    2    0    0  0.00000000000E+00  0.00000000000E+00 -0.35527136788E-14  0.91188000000E+02  0.91188000000E+02 0.  0.
    9900012    2    3    3    0    0 -0.23565318780E+02  0.22714656477E+02  0.16867099957E+02  0.54367096575E+02  0.40000028261E+02 0.  0.
         12    1    3    3    0    0  0.23565318780E+02 -0.22714656477E+02 -0.16867099957E+02  0.36820903425E+02  0.00000000000E+00 0. -1.
         11    1    4    4    0    0  0.21025740940E+01 -0.22003485746E+01  0.11736094594E+02  0.12124284237E+02  0.51100000000E-03 0. -1.
        -11    1    4    4    0    0  0.17424050380E+01  0.68445817316E+01 -0.40639938773E+01  0.81486392049E+01  0.51100000000E-03 0.  1.
        -12    1    4    4    0    0 -0.27410297912E+02  0.18070423320E+02  0.91949992402E+01  0.34094173133E+02  0.00000000000E+00 0.  1.
</event>
<event>
 8    1  0.1262344E-006  0.9118800E+02  0.7816164E-02  0.1184000E+00
        -11   -1    0    0    0    0  0.00000000000E+00  0.00000000000E+00  0.45593999997E+02  0.45594000000E+02  0.51100000000E-03 0.  1.
         11   -1    0    0    0    0 -0.00000000000E+00 -0.00000000000E+00 -0.45593999997E+02  0.45594000000E+02  0.51100000000E-03 0. -1.
         23    2    1    2    0    0  0.11102230246E-14 -0.17763568394E-14 -0.71054273576E-14  0.91188000000E+02  0.91188000000E+02 0.  0.
    9900012    2    3    3    0    0 -0.13585803345E+01 -0.14565835946E+02  0.33790094039E+02  0.54367085121E+02  0.40000002151E+02 0.  0.
         12    1    3    3    0    0  0.13585803345E+01  0.14565835946E+02 -0.33790094039E+02  0.36820914879E+02  0.00000000000E+00 0. -1.
         11    1    4    4    0    0  0.51188588825E+01 -0.21005467035E+02  0.12411772266E+02  0.24929589902E+02  0.51100000000E-03 0. -1.
        -11    1    4    4    0    0 -0.76222616657E+01  0.24805108157E+00  0.21830988556E+02  0.23124715433E+02  0.51100000000E-03 0.  1.
         12    1    4    4    0    0  0.11448224488E+01  0.61915800071E+01 -0.45266678310E+00  0.63127797871E+01  0.00000000000E+00 0. -1.
</event>
<event>
 8    1  0.1262344E-006  0.9118800E+02  0.7816164E-02  0.1184000E+00
        -11   -1    0    0    0    0  0.00000000000E+00  0.00000000000E+00  0.45593999997E+02  0.45594000000E+02  0.51100000000E-03 0.  1.
         11   -1    0    0    0    0 -0.00000000000E+00 -0.00000000000E+00 -0.45593999997E+02  0.45594000000E+02  0.51100000000E-03 0. -1.
         23    2    1    2    0    0 -0.88817841970E-15 -0.71054273576E-14  0.00000000000E+00  0.91188000000E+02  0.91188000000E+02 0.  0.
    9900012    2    3    3    0    0 -0.77480809296E+01 -0.35063385884E+02  0.81428529543E+01  0.54367084178E+02  0.40000000001E+02 0.  0.
         12    1    3    3    0    0  0.77480809296E+01  0.35063385884E+02 -0.81428529543E+01  0.36820915822E+02  0.00000000000E+00 0. -1.
         11    1    4    4    0    0 -0.54279972840E+00  0.61875608711E+01  0.87265766143E+00  0.62723259429E+01  0.51100000000E-03 0. -1.
        -11    1    4    4    0    0  0.87274348166E+00 -0.39015028363E+02  0.73587606172E+01  0.39712535520E+02  0.51100000000E-03 0.  1.
        -12    1    4    4    0    0 -0.80780246829E+01 -0.22359183922E+01 -0.88565324344E-01  0.83822227154E+01  0.00000000000E+00 0.  1.
</event>
<event>
 8    1  0.1262344E-006  0.9118800E+02  0.7816164E-02  0.1184000E+00
        -11   -1    0    0    0    0  0.00000000000E+00  0.00000000000E+00  0.45593999997E+02  0.45594000000E+02  0.51100000000E-03 0.  1.
         11   -1    0    0    0    0 -0.00000000000E+00 -0.00000000000E+00 -0.45593999997E+02  0.45594000000E+02  0.51100000000E-03 0. -1.
         23    2    1    2    0    0  0.00000000000E+00 -0.17763568394E-14  0.00000000000E+00  0.91188000000E+02  0.91188000000E+02 0.  0.
    9900012    2    3    3    0    0  0.35692776808E+02  0.59995663593E+01 -0.67687117218E+01  0.54367019960E+02  0.39999853602E+02 0.  0.
        -12    1    3    3    0    0 -0.35692776808E+02 -0.59995663593E+01  0.67687117218E+01  0.36820980040E+02  0.00000000000E+00 0.  1.
         11    1    4    4    0    0  0.24925923248E+02 -0.55469356472E+01  0.29630199340E+01  0.25706995784E+02  0.51100000000E-03 0. -1.
        -11    1    4    4    0    0 -0.44612125233E+01  0.10428021082E+02 -0.64299338318E+01  0.13038024781E+02  0.51100000000E-03 0.  1.
        -12    1    4    4    0    0  0.15228066083E+02  0.11184809249E+01 -0.33017978241E+01  0.15621999395E+02  0.00000000000E+00 0.  1.
</event>
<event>
 8    1  0.1262344E-006  0.9118800E+02  0.7816164E-02  0.1184000E+00
        -11   -1    0    0    0    0  0.00000000000E+00  0.00000000000E+00  0.45593999997E+02  0.45594000000E+02  0.51100000000E-03 0.  1.
         11   -1    0    0    0    0 -0.00000000000E+00 -0.00000000000E+00 -0.45593999997E+02  0.45594000000E+02  0.51100000000E-03 0. -1.
         23    2    1    2    0    0  0.00000000000E+00  0.71054273576E-14 -0.35527136788E-14  0.91188000000E+02  0.91188000000E+02 0.  0.
    9900012    2    3    3    0    0 -0.54828492857E+01 -0.28445411906E+02 -0.22727970962E+02  0.54367302575E+02  0.40000497878E+02 0.  0.
        -12    1    3    3    0    0  0.54828492857E+01  0.28445411906E+02  0.22727970962E+02  0.36820697425E+02  0.00000000000E+00 0.  1.
         11    1    4    4    0    0 -0.12859063101E+02  0.43547187646E+01 -0.72816992419E+01  0.15405915210E+02  0.51100000000E-03 0.  1.
        -11    1    4    4    0    0  0.99864823098E+01 -0.19252771650E+02 -0.70261306694E+01  0.22798367432E+02  0.51100000000E-03 0. -1.
         12    1    4    4    0    0 -0.26102684946E+01 -0.13547359021E+02 -0.84201410504E+01  0.16163019933E+02  0.00000000000E+00 0. -1.
</event>
<event>
 8    1  0.1262344E-006  0.9118800E+02  0.7816164E-02  0.1184000E+00
        -11   -1    0    0    0    0  0.00000000000E+00  0.00000000000E+00  0.45593999997E+02  0.45594000000E+02  0.51100000000E-03 0.  1.
         11   -1    0    0    0    0 -0.00000000000E+00 -0.00000000000E+00 -0.45593999997E+02  0.45594000000E+02  0.51100000000E-03 0. -1.
         23    2    1    2    0    0  0.00000000000E+00  0.00000000000E+00  0.00000000000E+00  0.91188000000E+02  0.91188000000E+02 0.  0.
    9900012    2    3    3    0    0 -0.26897327096E+02 -0.25046484586E+02 -0.22334605201E+01  0.54367069255E+02  0.39999965981E+02 0.  0.
         12    1    3    3    0    0  0.26897327096E+02  0.25046484586E+02  0.22334605201E+01  0.36820930745E+02  0.00000000000E+00 0. -1.
         11    1    4    4    0    0  0.41394447202E+01  0.83372963348E+00 -0.43828389014E+00  0.42452562612E+01  0.51100000000E-03 0. -1.
        -11    1    4    4    0    0 -0.29407492210E+02 -0.75522582969E+01  0.44596075379E+01  0.30687543126E+02  0.51100000000E-03 0.  1.
         12    1    4    4    0    0 -0.16292796066E+01 -0.18327955922E+02 -0.62547841678E+01  0.19434269868E+02  0.00000000000E+00 0. -1.
</event>
<event>
 8    1  0.1262344E-006  0.9118800E+02  0.7816164E-02  0.1184000E+00
        -11   -1    0    0    0    0  0.00000000000E+00  0.00000000000E+00  0.45593999997E+02  0.45594000000E+02  0.51100000000E-03 0. -1.
         11   -1    0    0    0    0 -0.00000000000E+00 -0.00000000000E+00 -0.45593999997E+02  0.45594000000E+02  0.51100000000E-03 0.  1.
         23    2    1    2    0    0  0.35527136788E-14  0.88817841970E-15  0.00000000000E+00  0.91188000000E+02  0.91188000000E+02 0.  0.
    9900012    2    3    3    0    0  0.21909430673E+02  0.48063064622E+01 -0.29200282758E+02  0.54367078673E+02  0.39999987450E+02 0.  0.
         12    1    3    3    0    0 -0.21909430673E+02 -0.48063064622E+01  0.29200282758E+02  0.36820921327E+02  0.00000000000E+00 0. -1.
         11    1    4    4    0    0  0.27400224985E+02  0.82719915250E+01 -0.10512146239E+02  0.30491037893E+02  0.51100000000E-03 0. -1.
        -11    1    4    4    0    0  0.14947877401E+01  0.36168543493E+01 -0.97361301382E+01  0.10493248120E+02  0.51100000000E-03 0.  1.
         12    1    4    4    0    0 -0.69855820517E+01 -0.70825394121E+01 -0.89520063811E+01  0.13382792660E+02  0.00000000000E+00 0. -1.
</event>
<event>
 8    1  0.1262344E-006  0.9118800E+02  0.7816164E-02  0.1184000E+00
        -11   -1    0    0    0    0  0.00000000000E+00  0.00000000000E+00  0.45593999997E+02  0.45594000000E+02  0.51100000000E-03 0.  1.
         11   -1    0    0    0    0 -0.00000000000E+00 -0.00000000000E+00 -0.45593999997E+02  0.45594000000E+02  0.51100000000E-03 0. -1.
         23    2    1    2    0    0  0.17763568394E-14 -0.17763568394E-14  0.00000000000E+00  0.91188000000E+02  0.91188000000E+02 0.  0.
    9900012    2    3    3    0    0  0.91285946290E+01 -0.12406026927E+02  0.33444569878E+02  0.54367082055E+02  0.39999995161E+02 0.  0.
         12    1    3    3    0    0 -0.91285946290E+01  0.12406026927E+02 -0.33444569878E+02  0.36820917945E+02  0.00000000000E+00 0. -1.
         11    1    4    4    0    0 -0.60484556000E+01 -0.47136442723E+01  0.11205563736E+01  0.77497034988E+01  0.51100000000E-03 0. -1.
        -11    1    4    4    0    0  0.31480488787E+01 -0.17579202282E+02  0.19533244807E+02  0.26466700164E+02  0.51100000000E-03 0.  1.
         12    1    4    4    0    0  0.12029001350E+02  0.98868196267E+01  0.12790768697E+02  0.20150678392E+02  0.00000000000E+00 0. -1.
</event>
<event>
 8    1  0.1262344E-006  0.9118800E+02  0.7816164E-02  0.1184000E+00
        -11   -1    0    0    0    0  0.00000000000E+00  0.00000000000E+00  0.45593999997E+02  0.45594000000E+02  0.51100000000E-03 0. -1.
         11   -1    0    0    0    0 -0.00000000000E+00 -0.00000000000E+00 -0.45593999997E+02  0.45594000000E+02  0.51100000000E-03 0.  1.
         23    2    1    2    0    0 -0.35527136788E-14 -0.17763568394E-14  0.00000000000E+00  0.91188000000E+02  0.91188000000E+02 0.  0.
    9900012    2    3    3    0    0 -0.17536421092E+02  0.15267291524E+02  0.28551064895E+02  0.54367087982E+02  0.40000008672E+02 0.  0.
        -12    1    3    3    0    0  0.17536421092E+02 -0.15267291524E+02 -0.28551064895E+02  0.36820912018E+02  0.00000000000E+00 0.  1.
         11    1    4    4    0    0 -0.81834275669E+01  0.63454016452E+01  0.11702290130E+01  0.10421230493E+02  0.51100000000E-03 0. -1.
        -11    1    4    4    0    0 -0.19959100129E+02  0.87847387171E+01  0.10983001915E+02  0.24416462553E+02  0.51100000000E-03 0.  1.
        -12    1    4    4    0    0  0.10606106604E+02  0.13715116205E+00  0.16397833968E+02  0.19529394936E+02  0.00000000000E+00 0.  1.
</event>
<event>
 8    1  0.1262344E-006  0.9118800E+02  0.7816164E-02  0.1184000E+00
        -11   -1    0    0    0    0  0.00000000000E+00  0.00000000000E+00  0.45593999997E+02  0.45594000000E+02  0.51100000000E-03 0.  1.
         11   -1    0    0    0    0 -0.00000000000E+00 -0.00000000000E+00 -0.45593999997E+02  0.45594000000E+02  0.51100000000E-03 0. -1.
         23    2    1    2    0    0  0.26645352591E-14  0.00000000000E+00 -0.35527136788E-14  0.91188000000E+02  0.91188000000E+02 0.  0.
    9900012    2    3    3    0    0 -0.65616431934E+01 -0.21615817814E+02  0.29077144501E+02  0.54367094613E+02  0.40000023790E+02 0.  0.
         12    1    3    3    0    0  0.65616431934E+01  0.21615817814E+02 -0.29077144501E+02  0.36820905387E+02  0.00000000000E+00 0. -1.
         11    1    4    4    0    0  0.64326165553E+01 -0.47238870955E+01 -0.70526562533E+01  0.10650522312E+02  0.51100000000E-03 0. -1.
        -11    1    4    4    0    0 -0.11870678480E+02 -0.18890616709E+02  0.33094912144E+02  0.39912925442E+02  0.51100000000E-03 0.  1.
         12    1    4    4    0    0 -0.11235812683E+01  0.19986859903E+01  0.30348886100E+01  0.38036468592E+01  0.00000000000E+00 0. -1.
</event>
<event>
 8    1  0.1262344E-006  0.9118800E+02  0.7816164E-02  0.1184000E+00
        -11   -1    0    0    0    0  0.00000000000E+00  0.00000000000E+00  0.45593999997E+02  0.45594000000E+02  0.51100000000E-03 0. -1.
         11   -1    0    0    0    0 -0.00000000000E+00 -0.00000000000E+00 -0.45593999997E+02  0.45594000000E+02  0.51100000000E-03 0.  1.
         23    2    1    2    0    0 -0.71054273576E-14  0.00000000000E+00  0.88817841970E-15  0.91188000000E+02  0.91188000000E+02 0.  0.
    9900012    2    3    3    0    0  0.35357340138E+02  0.84935649727E+01 -0.57877375527E+01  0.54367081305E+02  0.39999993450E+02 0.  0.
         12    1    3    3    0    0 -0.35357340138E+02 -0.84935649727E+01  0.57877375527E+01  0.36820918695E+02  0.00000000000E+00 0. -1.
         11    1    4    4    0    0  0.98435745081E+01 -0.23093862178E+01  0.47677744693E+01  0.11178591032E+02  0.51100000000E-03 0. -1.
        -11    1    4    4    0    0  0.30460984040E+02  0.15366502045E+02 -0.12246310943E+02  0.36248766403E+02  0.51100000000E-03 0.  1.
         12    1    4    4    0    0 -0.49472184100E+01 -0.45635508549E+01  0.16907989207E+01  0.69397238699E+01  0.00000000000E+00 0. -1.
</event>
<event>
 8    1  0.1262344E-006  0.9118800E+02  0.7816164E-02  0.1184000E+00
        -11   -1    0    0    0    0  0.00000000000E+00  0.00000000000E+00  0.45593999997E+02  0.45594000000E+02  0.51100000000E-03 0.  1.
         11   -1    0    0    0    0 -0.00000000000E+00 -0.00000000000E+00 -0.45593999997E+02  0.45594000000E+02  0.51100000000E-03 0. -1.
         23    2    1    2    0    0 -0.17763568394E-14 -0.35527136788E-14 -0.35527136788E-14  0.91188000000E+02  0.91188000000E+02 0.  0.
    9900012    2    3    3    0    0 -0.10430820312E+02 -0.17253650249E+02 -0.30810560538E+02  0.54367067095E+02  0.39999961057E+02 0.  0.
        -12    1    3    3    0    0  0.10430820312E+02  0.17253650249E+02  0.30810560538E+02  0.36820932905E+02  0.00000000000E+00 0.  1.
         11    1    4    4    0    0 -0.11780534583E+02 -0.62367865037E+01 -0.74120695629E+01  0.15251795843E+02  0.51100000000E-03 0. -1.
        -11    1    4    4    0    0  0.13352014223E+02 -0.62025248861E+01 -0.30965052560E+01  0.15044465555E+02  0.51100000000E-03 0.  1.
         12    1    4    4    0    0 -0.12002299951E+02 -0.48143388597E+01 -0.20301985719E+02  0.24070805697E+02  0.00000000000E+00 0. -1.
</event>
<event>
 8    1  0.1262344E-006  0.9118800E+02  0.7816164E-02  0.1184000E+00
        -11   -1    0    0    0    0  0.00000000000E+00  0.00000000000E+00  0.45593999997E+02  0.45594000000E+02  0.51100000000E-03 0. -1.
         11   -1    0    0    0    0 -0.00000000000E+00 -0.00000000000E+00 -0.45593999997E+02  0.45594000000E+02  0.51100000000E-03 0.  1.
         23    2    1    2    0    0  0.35527136788E-14  0.00000000000E+00  0.00000000000E+00  0.91188000000E+02  0.91188000000E+02 0.  0.
    9900012    2    3    3    0    0 -0.31379828934E+02 -0.12025344951E+02 -0.15049175333E+02  0.54367078457E+02  0.39999986957E+02 0.  0.
        -12    1    3    3    0    0  0.31379828934E+02  0.12025344951E+02  0.15049175333E+02  0.36820921543E+02  0.00000000000E+00 0.  1.
         11    1    4    4    0    0 -0.66594553679E+01 -0.14380697306E+02  0.34464622435E+01  0.16218227495E+02  0.51100000000E-03 0. -1.
        -11    1    4    4    0    0 -0.35490515269E+01 -0.93461813389E+00  0.50960913820E+01  0.62800816422E+01  0.51100000000E-03 0.  1.
         12    1    4    4    0    0 -0.21171322039E+02  0.32899704895E+01 -0.23591728958E+02  0.31868769320E+02  0.00000000000E+00 0. -1.
</event>
<event>
 8    1  0.1262344E-006  0.9118800E+02  0.7816164E-02  0.1184000E+00
        -11   -1    0    0    0    0  0.00000000000E+00  0.00000000000E+00  0.45593999997E+02  0.45594000000E+02  0.51100000000E-03 0. -1.
         11   -1    0    0    0    0 -0.00000000000E+00 -0.00000000000E+00 -0.45593999997E+02  0.45594000000E+02  0.51100000000E-03 0.  1.
         23    2    1    2    0    0  0.00000000000E+00 -0.88817841970E-15  0.00000000000E+00  0.91188000000E+02  0.91188000000E+02 0.  0.
    9900012    2    3    3    0    0  0.14662237251E+02  0.46191928195E+01  0.33458295664E+02  0.54367140528E+02  0.40000128462E+02 0.  0.
        -12    1    3    3    0    0 -0.14662237251E+02 -0.46191928195E+01 -0.33458295664E+02  0.36820859472E+02  0.00000000000E+00 0.  1.
         11    1    4    4    0    0  0.76634301799E+01  0.84029636415E+01  0.19550217592E+02  0.22617448314E+02  0.51100000000E-03 0.  1.
        -11    1    4    4    0    0  0.11906779405E+02  0.86394927965E+01  0.10152553293E+02  0.17874187260E+02  0.51100000000E-03 0. -1.
        -12    1    4    4    0    0 -0.49079723335E+01 -0.12423263619E+02  0.37555247782E+01  0.13875504954E+02  0.00000000000E+00 0.  1.
</event>
<event>
 8    1  0.1262344E-006  0.9118800E+02  0.7816164E-02  0.1184000E+00
        -11   -1    0    0    0    0  0.00000000000E+00  0.00000000000E+00  0.45593999997E+02  0.45594000000E+02  0.51100000000E-03 0.  1.
         11   -1    0    0    0    0 -0.00000000000E+00 -0.00000000000E+00 -0.45593999997E+02  0.45594000000E+02  0.51100000000E-03 0. -1.
         23    2    1    2    0    0  0.17763568394E-14  0.35527136788E-14  0.71054273576E-14  0.91188000000E+02  0.91188000000E+02 0.  0.
    9900012    2    3    3    0    0  0.14813056259E+02  0.20587690508E+02  0.26692677763E+02  0.54367099925E+02  0.40000035899E+02 0.  0.
         12    1    3    3    0    0 -0.14813056259E+02 -0.20587690508E+02 -0.26692677763E+02  0.36820900075E+02  0.00000000000E+00 0. -1.
         11    1    4    4    0    0  0.43669436914E+01  0.13021485017E+01 -0.20215925605E+01  0.49852406829E+01  0.51100000000E-03 0.  1.
        -11    1    4    4    0    0  0.10294571353E+02 -0.18069469515E+01 -0.33728183449E+01  0.10982675470E+02  0.51100000000E-03 0. -1.
        -12    1    4    4    0    0  0.15154121515E+00  0.21092488958E+02  0.32087088668E+02  0.38399183772E+02  0.00000000000E+00 0.  1.
</event>
<event>
 8    1  0.1262344E-006  0.9118800E+02  0.7816164E-02  0.1184000E+00
        -11   -1    0    0    0    0  0.00000000000E+00  0.00000000000E+00  0.45593999997E+02  0.45594000000E+02  0.51100000000E-03 0.  1.
         11   -1    0    0    0    0 -0.00000000000E+00 -0.00000000000E+00 -0.45593999997E+02  0.45594000000E+02  0.51100000000E-03 0. -1.
         23    2    1    2    0    0  0.44408920985E-15  0.35527136788E-14  0.00000000000E+00  0.91188000000E+02  0.91188000000E+02 0.  0.
    9900012    2    3    3    0    0  0.27354337021E+01  0.24404686650E+02  0.27435528978E+02  0.54367087758E+02  0.40000008162E+02 0.  0.
         12    1    3    3    0    0 -0.27354337021E+01 -0.24404686650E+02 -0.27435528978E+02  0.36820912242E+02  0.00000000000E+00 0. -1.
         11    1    4    4    0    0 -0.24060314168E+01 -0.70666306848E+01  0.50338069573E+01  0.90036364408E+01  0.51100000000E-03 0. -1.
        -11    1    4    4    0    0 -0.35656184676E+01  0.15337008872E+02  0.21963141706E+02  0.27024379180E+02  0.51100000000E-03 0.  1.
         12    1    4    4    0    0  0.87070835865E+01  0.16134308464E+02  0.43858031426E+00  0.18339072138E+02  0.00000000000E+00 0. -1.
</event>
<event>
 8    1  0.1262344E-006  0.9118800E+02  0.7816164E-02  0.1184000E+00
        -11   -1    0    0    0    0  0.00000000000E+00  0.00000000000E+00  0.45593999997E+02  0.45594000000E+02  0.51100000000E-03 0.  1.
         11   -1    0    0    0    0 -0.00000000000E+00 -0.00000000000E+00 -0.45593999997E+02  0.45594000000E+02  0.51100000000E-03 0. -1.
         23    2    1    2    0    0  0.00000000000E+00  0.35527136788E-14 -0.88817841970E-15  0.91188000000E+02  0.91188000000E+02 0.  0.
    9900012    2    3    3    0    0  0.16554195399E+02 -0.31952167030E+02  0.77972693370E+01  0.54367085123E+02  0.40000002156E+02 0.  0.
         12    1    3    3    0    0 -0.16554195399E+02  0.31952167030E+02 -0.77972693370E+01  0.36820914877E+02  0.00000000000E+00 0. -1.
         11    1    4    4    0    0 -0.13387740334E+01 -0.82751891636E+01 -0.11278494350E+02  0.14052597862E+02  0.51100000000E-03 0. -1.
        -11    1    4    4    0    0 -0.26344620225E+01  0.13686192195E+01  0.59046061311E+00  0.30269048073E+01  0.51100000000E-03 0.  1.
        -12    1    4    4    0    0  0.20527431455E+02 -0.25045597086E+02  0.18485303074E+02  0.37287582454E+02  0.00000000000E+00 0.  1.
</event>
<event>
 8    1  0.1262344E-006  0.9118800E+02  0.7816164E-02  0.1184000E+00
        -11   -1    0    0    0    0  0.00000000000E+00  0.00000000000E+00  0.45593999997E+02  0.45594000000E+02  0.51100000000E-03 0. -1.
         11   -1    0    0    0    0 -0.00000000000E+00 -0.00000000000E+00 -0.45593999997E+02  0.45594000000E+02  0.51100000000E-03 0.  1.
         23    2    1    2    0    0  0.71054273576E-14 -0.44408920985E-15  0.00000000000E+00  0.91188000000E+02  0.91188000000E+02 0.  0.
    9900012    2    3    3    0    0  0.12857745565E+02 -0.15121283877E+01  0.34469862478E+02  0.54367087837E+02  0.40000008341E+02 0.  0.
        -12    1    3    3    0    0 -0.12857745565E+02  0.15121283877E+01 -0.34469862478E+02  0.36820912163E+02  0.00000000000E+00 0.  1.
         11    1    4    4    0    0 -0.53819527578E+01 -0.54681253719E+01  0.42396319038E+01  0.87658593139E+01  0.51100000000E-03 0. -1.
        -11    1    4    4    0    0  0.18840777445E+02  0.15142449607E+01  0.40882784745E+01  0.19338610439E+02  0.51100000000E-03 0.  1.
         12    1    4    4    0    0 -0.60107912217E+00  0.24417520235E+01  0.26141952100E+02  0.26262618084E+02  0.00000000000E+00 0. -1.
</event>
<event>
 8    1  0.1262344E-006  0.9118800E+02  0.7816164E-02  0.1184000E+00
        -11   -1    0    0    0    0  0.00000000000E+00  0.00000000000E+00  0.45593999997E+02  0.45594000000E+02  0.51100000000E-03 0.  1.
         11   -1    0    0    0    0 -0.00000000000E+00 -0.00000000000E+00 -0.45593999997E+02  0.45594000000E+02  0.51100000000E-03 0. -1.
         23    2    1    2    0    0  0.00000000000E+00  0.00000000000E+00 -0.88817841970E-15  0.91188000000E+02  0.91188000000E+02 0.  0.
    9900012    2    3    3    0    0 -0.32935980112E+02  0.15075746107E+02  0.66121837007E+01  0.54367110821E+02  0.40000060739E+02 0.  0.
         12    1    3    3    0    0  0.32935980112E+02 -0.15075746107E+02 -0.66121837007E+01  0.36820889179E+02  0.00000000000E+00 0. -1.
         11    1    4    4    0    0  0.66211474033E+01  0.27047545208E+01 -0.52034788730E+01  0.88448562790E+01  0.51100000000E-03 0. -1.
        -11    1    4    4    0    0 -0.35766379922E+02  0.10977353867E+02  0.15071352485E+02  0.40334624042E+02  0.51100000000E-03 0.  1.
        -12    1    4    4    0    0 -0.37907475939E+01  0.13936377189E+01 -0.32556899110E+01  0.51876305004E+01  0.00000000000E+00 0.  1.
</event>
<event>
 8    1  0.1262344E-006  0.9118800E+02  0.7816164E-02  0.1184000E+00
        -11   -1    0    0    0    0  0.00000000000E+00  0.00000000000E+00  0.45593999997E+02  0.45594000000E+02  0.51100000000E-03 0.  1.
         11   -1    0    0    0    0 -0.00000000000E+00 -0.00000000000E+00 -0.45593999997E+02  0.45594000000E+02  0.51100000000E-03 0. -1.
         23    2    1    2    0    0 -0.17763568394E-14  0.00000000000E+00 -0.35527136788E-14  0.91188000000E+02  0.91188000000E+02 0.  0.
    9900012    2    3    3    0    0 -0.91086935708E+01 -0.24770943415E+02  0.25675109783E+02  0.54367092914E+02  0.40000019917E+02 0.  0.
         12    1    3    3    0    0  0.91086935708E+01  0.24770943415E+02 -0.25675109783E+02  0.36820907086E+02  0.00000000000E+00 0. -1.
         11    1    4    4    0    0 -0.10869128939E+02 -0.25078077523E+02  0.64296620187E+01  0.28078256535E+02  0.51100000000E-03 0. -1.
        -11    1    4    4    0    0  0.70576021590E+01 -0.62180319735E+01  0.11528004941E+02  0.14878459868E+02  0.51100000000E-03 0.  1.
         12    1    4    4    0    0 -0.52971667908E+01  0.65251660812E+01  0.77174428231E+01  0.11410376511E+02  0.00000000000E+00 0. -1.
</event>
<event>
 8    1  0.1262344E-006  0.9118800E+02  0.7816164E-02  0.1184000E+00
        -11   -1    0    0    0    0  0.00000000000E+00  0.00000000000E+00  0.45593999997E+02  0.45594000000E+02  0.51100000000E-03 0. -1.
         11   -1    0    0    0    0 -0.00000000000E+00 -0.00000000000E+00 -0.45593999997E+02  0.45594000000E+02  0.51100000000E-03 0.  1.
         23    2    1    2    0    0  0.35527136788E-14  0.00000000000E+00  0.00000000000E+00  0.91188000000E+02  0.91188000000E+02 0.  0.
    9900012    2    3    3    0    0 -0.12680970492E+02 -0.34444122227E+02  0.29280467387E+01  0.54367108833E+02  0.40000056207E+02 0.  0.
         12    1    3    3    0    0  0.12680970492E+02  0.34444122227E+02 -0.29280467387E+01  0.36820891167E+02  0.00000000000E+00 0. -1.
         11    1    4    4    0    0  0.69725748398E+01 -0.11058665112E+02  0.59442179536E+01  0.14361218656E+02  0.51100000000E-03 0. -1.
        -11    1    4    4    0    0 -0.17863432495E+01 -0.18847036446E+02 -0.85298599606E+01  0.20764400214E+02  0.51100000000E-03 0.  1.
         12    1    4    4    0    0 -0.17867202082E+02 -0.45384206690E+01  0.55136887456E+01  0.19241489963E+02  0.00000000000E+00 0. -1.
</event>
<event>
 8    1  0.1262344E-006  0.9118800E+02  0.7816164E-02  0.1184000E+00
        -11   -1    0    0    0    0  0.00000000000E+00  0.00000000000E+00  0.45593999997E+02  0.45594000000E+02  0.51100000000E-03 0.  1.
         11   -1    0    0    0    0 -0.00000000000E+00 -0.00000000000E+00 -0.45593999997E+02  0.45594000000E+02  0.51100000000E-03 0. -1.
         23    2    1    2    0    0  0.00000000000E+00  0.44408920985E-15  0.17763568394E-14  0.91188000000E+02  0.91188000000E+02 0.  0.
    9900012    2    3    3    0    0  0.35527625733E+02  0.19733095799E+01 -0.94696169553E+01  0.54367084935E+02  0.40000001727E+02 0.  0.
        -12    1    3    3    0    0 -0.35527625733E+02 -0.19733095799E+01  0.94696169553E+01  0.36820915065E+02  0.00000000000E+00 0.  1.
         11    1    4    4    0    0  0.21727639470E+01  0.84378604072E+01 -0.14985802960E+02  0.17334724746E+02  0.51100000000E-03 0. -1.
        -11    1    4    4    0    0  0.41103351601E+01  0.32093996293E+01 -0.15279768389E+01  0.54341342080E+01  0.51100000000E-03 0.  1.
        -12    1    4    4    0    0  0.29244526626E+02 -0.96739504565E+01  0.70441628432E+01  0.31598225981E+02  0.00000000000E+00 0.  1.
</event>
<event>
 8    1  0.1262344E-006  0.9118800E+02  0.7816164E-02  0.1184000E+00
        -11   -1    0    0    0    0  0.00000000000E+00  0.00000000000E+00  0.45593999997E+02  0.45594000000E+02  0.51100000000E-03 0.  1.
         11   -1    0    0    0    0 -0.00000000000E+00 -0.00000000000E+00 -0.45593999997E+02  0.45594000000E+02  0.51100000000E-03 0. -1.
         23    2    1    2    0    0  0.17763568394E-14 -0.88817841970E-15  0.00000000000E+00  0.91188000000E+02  0.91188000000E+02 0.  0.
    9900012    2    3    3    0    0 -0.65187063619E+01  0.44943137563E+01  0.35959503106E+02  0.54367105764E+02  0.40000049209E+02 0.  0.
         12    1    3    3    0    0  0.65187063619E+01 -0.44943137563E+01 -0.35959503106E+02  0.36820894236E+02  0.00000000000E+00 0. -1.
         11    1    4    4    0    0  0.12216182266E+02  0.95421359560E+01  0.19846717336E+02  0.25182923917E+02  0.51100000000E-03 0. -1.
        -11    1    4    4    0    0  0.24039069751E+01 -0.11402029608E+01  0.75753761499E+00  0.27663504904E+01  0.51100000000E-03 0.  1.
        -12    1    4    4    0    0 -0.21138795603E+02 -0.39076192390E+01  0.15355248155E+02  0.26417831356E+02  0.00000000000E+00 0.  1.
</event>
<event>
 8    1  0.1262344E-006  0.9118800E+02  0.7816164E-02  0.1184000E+00
        -11   -1    0    0    0    0  0.00000000000E+00  0.00000000000E+00  0.45593999997E+02  0.45594000000E+02  0.51100000000E-03 0.  1.
         11   -1    0    0    0    0 -0.00000000000E+00 -0.00000000000E+00 -0.45593999997E+02  0.45594000000E+02  0.51100000000E-03 0. -1.
         23    2    1    2    0    0  0.00000000000E+00 -0.17763568394E-14  0.22204460493E-15  0.91188000000E+02  0.91188000000E+02 0.  0.
    9900012    2    3    3    0    0 -0.35038074873E+02 -0.11277848160E+02  0.96118847243E+00  0.54367076149E+02  0.39999981697E+02 0.  0.
         12    1    3    3    0    0  0.35038074873E+02  0.11277848160E+02 -0.96118847243E+00  0.36820923851E+02  0.00000000000E+00 0. -1.
         11    1    4    4    0    0 -0.22980287179E+02 -0.82283764241E+01  0.16755273035E+00  0.24409585240E+02  0.51100000000E-03 0. -1.
        -11    1    4    4    0    0 -0.35761229510E+01 -0.14758674716E+02 -0.17179126776E+01  0.15282616234E+02  0.51100000000E-03 0.  1.
        -12    1    4    4    0    0 -0.84816647430E+01  0.11709202981E+02  0.25115484197E+01  0.14674874675E+02  0.00000000000E+00 0.  1.
</event>
<event>
 8    1  0.1262344E-006  0.9118800E+02  0.7816164E-02  0.1184000E+00
        -11   -1    0    0    0    0  0.00000000000E+00  0.00000000000E+00  0.45593999997E+02  0.45594000000E+02  0.51100000000E-03 0. -1.
         11   -1    0    0    0    0 -0.00000000000E+00 -0.00000000000E+00 -0.45593999997E+02  0.45594000000E+02  0.51100000000E-03 0.  1.
         23    2    1    2    0    0  0.00000000000E+00  0.00000000000E+00  0.00000000000E+00  0.91188000000E+02  0.91188000000E+02 0.  0.
    9900012    2    3    3    0    0  0.17747190147E+02  0.31694226370E+01  0.32105704876E+02  0.54367023864E+02  0.39999862503E+02 0.  0.
        -12    1    3    3    0    0 -0.17747190147E+02 -0.31694226370E+01 -0.32105704876E+02  0.36820976136E+02  0.00000000000E+00 0.  1.
         11    1    4    4    0    0 -0.26543045528E+01  0.54094449462E+01  0.15494618084E+02  0.16624999763E+02  0.51100000000E-03 0. -1.
        -11    1    4    4    0    0 -0.25602073961E+01 -0.92337273543E+01  0.70881420956E+01  0.11918814597E+02  0.51100000000E-03 0.  1.
         12    1    4    4    0    0  0.22961702096E+02  0.69937050452E+01  0.95229446962E+01  0.25823209504E+02  0.00000000000E+00 0. -1.
</event>
<event>
 8    1  0.1262344E-006  0.9118800E+02  0.7816164E-02  0.1184000E+00
        -11   -1    0    0    0    0  0.00000000000E+00  0.00000000000E+00  0.45593999997E+02  0.45594000000E+02  0.51100000000E-03 0.  1.
         11   -1    0    0    0    0 -0.00000000000E+00 -0.00000000000E+00 -0.45593999997E+02  0.45594000000E+02  0.51100000000E-03 0. -1.
         23    2    1    2    0    0  0.00000000000E+00  0.00000000000E+00  0.00000000000E+00  0.91188000000E+02  0.91188000000E+02 0.  0.
    9900012    2    3    3    0    0 -0.21208619474E+02  0.18120730091E+02 -0.24033618177E+02  0.54367065714E+02  0.39999957908E+02 0.  0.
        -12    1    3    3    0    0  0.21208619474E+02 -0.18120730091E+02  0.24033618177E+02  0.36820934286E+02  0.00000000000E+00 0.  1.
         11    1    4    4    0    0 -0.18405319725E+02  0.12043185445E+02 -0.24120741416E+02  0.32643594725E+02  0.51100000000E-03 0. -1.
        -11    1    4    4    0    0  0.19558556922E+00  0.91724932080E+01 -0.82500160229E+01  0.12338381174E+02  0.51100000000E-03 0.  1.
         12    1    4    4    0    0 -0.29988853183E+01 -0.30949485624E+01  0.83371392618E+01  0.93850898146E+01  0.00000000000E+00 0. -1.
</event>
<event>
 8    1  0.1262344E-006  0.9118800E+02  0.7816164E-02  0.1184000E+00
        -11   -1    0    0    0    0  0.00000000000E+00  0.00000000000E+00  0.45593999997E+02  0.45594000000E+02  0.51100000000E-03 0. -1.
         11   -1    0    0    0    0 -0.00000000000E+00 -0.00000000000E+00 -0.45593999997E+02  0.45594000000E+02  0.51100000000E-03 0.  1.
         23    2    1    2    0    0  0.00000000000E+00  0.35527136788E-14 -0.35527136788E-14  0.91188000000E+02  0.91188000000E+02 0.  0.
    9900012    2    3    3    0    0 -0.12720003280E+02  0.27505754462E+02 -0.20914488164E+02  0.54367070800E+02  0.39999969503E+02 0.  0.
         12    1    3    3    0    0  0.12720003280E+02 -0.27505754462E+02  0.20914488164E+02  0.36820929200E+02  0.00000000000E+00 0. -1.
         11    1    4    4    0    0 -0.10763303438E+02  0.52767846843E+01 -0.13601646005E+02  0.18130028456E+02  0.51100000000E-03 0. -1.
        -11    1    4    4    0    0  0.21414120296E+01  0.50088754963E+01 -0.15722813615E+02  0.16639752025E+02  0.51100000000E-03 0.  1.
         12    1    4    4    0    0 -0.40981118718E+01  0.17220094281E+02  0.84099714558E+01  0.19597290319E+02  0.00000000000E+00 0. -1.
</event>
<event>
 8    1  0.1262344E-006  0.9118800E+02  0.7816164E-02  0.1184000E+00
        -11   -1    0    0    0    0  0.00000000000E+00  0.00000000000E+00  0.45593999997E+02  0.45594000000E+02  0.51100000000E-03 0.  1.
         11   -1    0    0    0    0 -0.00000000000E+00 -0.00000000000E+00 -0.45593999997E+02  0.45594000000E+02  0.51100000000E-03 0. -1.
         23    2    1    2    0    0 -0.35527136788E-14  0.17763568394E-14  0.00000000000E+00  0.91188000000E+02  0.91188000000E+02 0.  0.
    9900012    2    3    3    0    0 -0.31780952906E+02  0.11354395601E+02 -0.14725110593E+02  0.54367080008E+02  0.39999990495E+02 0.  0.
        -12    1    3    3    0    0  0.31780952906E+02 -0.11354395601E+02  0.14725110593E+02  0.36820919992E+02  0.00000000000E+00 0.  1.
         11    1    4    4    0    0 -0.23621393808E+02 -0.18312124327E+01 -0.11299121882E+02  0.26248690253E+02  0.51100000000E-03 0. -1.
        -11    1    4    4    0    0  0.34808431111E+01  0.48279849672E+01  0.78730157621E+01  0.98696547588E+01  0.51100000000E-03 0.  1.
         12    1    4    4    0    0 -0.11640402209E+02  0.83576230670E+01 -0.11299004473E+02  0.18248734997E+02  0.00000000000E+00 0. -1.
</event>
<event>
 8    1  0.1262344E-006  0.9118800E+02  0.7816164E-02  0.1184000E+00
        -11   -1    0    0    0    0  0.00000000000E+00  0.00000000000E+00  0.45593999997E+02  0.45594000000E+02  0.51100000000E-03 0. -1.
         11   -1    0    0    0    0 -0.00000000000E+00 -0.00000000000E+00 -0.45593999997E+02  0.45594000000E+02  0.51100000000E-03 0.  1.
         23    2    1    2    0    0  0.00000000000E+00  0.00000000000E+00 -0.17763568394E-14  0.91188000000E+02  0.91188000000E+02 0.  0.
    9900012    2    3    3    0    0  0.29049588599E+02 -0.20910854739E+02 -0.86393210664E+01  0.54367077793E+02  0.39999985444E+02 0.  0.
         12    1    3    3    0    0 -0.29049588599E+02  0.20910854739E+02  0.86393210664E+01  0.36820922207E+02  0.00000000000E+00 0. -1.
         11    1    4    4    0    0  0.33028279772E+02 -0.13924187517E+02 -0.84731323134E+01  0.36831294223E+02  0.51100000000E-03 0.  1.
        -11    1    4    4    0    0  0.23890690389E+00 -0.10738342843E+02 -0.30928700830E+01  0.11177429451E+02  0.51100000000E-03 0. -1.
         12    1    4    4    0    0 -0.42175980767E+01  0.37516756202E+01  0.29266813300E+01  0.63583541190E+01  0.00000000000E+00 0. -1.
</event>
<event>
 8    1  0.1262344E-006  0.9118800E+02  0.7816164E-02  0.1184000E+00
        -11   -1    0    0    0    0  0.00000000000E+00  0.00000000000E+00  0.45593999997E+02  0.45594000000E+02  0.51100000000E-03 0.  1.
         11   -1    0    0    0    0 -0.00000000000E+00 -0.00000000000E+00 -0.45593999997E+02  0.45594000000E+02  0.51100000000E-03 0. -1.
         23    2    1    2    0    0  0.88817841970E-15  0.00000000000E+00  0.00000000000E+00  0.91188000000E+02  0.91188000000E+02 0.  0.
    9900012    2    3    3    0    0  0.34096412870E+01  0.91337049186E+01  0.35506769758E+02  0.54367069568E+02  0.39999966694E+02 0.  0.
         12    1    3    3    0    0 -0.34096412870E+01 -0.91337049186E+01 -0.35506769758E+02  0.36820930432E+02  0.00000000000E+00 0. -1.
         11    1    4    4    0    0  0.14788899756E+01 -0.46438272205E+01  0.86715580224E+01  0.99472692540E+01  0.51100000000E-03 0. -1.
        -11    1    4    4    0    0  0.12721359666E+02 -0.50481996852E+01  0.10950217695E+02  0.17527823015E+02  0.51100000000E-03 0.  1.
        -12    1    4    4    0    0 -0.10790608355E+02  0.18825731824E+02  0.15884994041E+02  0.26891977299E+02  0.00000000000E+00 0.  1.
</event>
<event>
 8    1  0.1262344E-006  0.9118800E+02  0.7816164E-02  0.1184000E+00
        -11   -1    0    0    0    0  0.00000000000E+00  0.00000000000E+00  0.45593999997E+02  0.45594000000E+02  0.51100000000E-03 0.  1.
         11   -1    0    0    0    0 -0.00000000000E+00 -0.00000000000E+00 -0.45593999997E+02  0.45594000000E+02  0.51100000000E-03 0. -1.
         23    2    1    2    0    0  0.00000000000E+00  0.17763568394E-14  0.00000000000E+00  0.91188000000E+02  0.91188000000E+02 0.  0.
    9900012    2    3    3    0    0  0.12562638143E+02  0.12431657581E+02  0.32301916084E+02  0.54367085155E+02  0.40000002229E+02 0.  0.
         12    1    3    3    0    0 -0.12562638143E+02 -0.12431657581E+02 -0.32301916084E+02  0.36820914845E+02  0.00000000000E+00 0. -1.
         11    1    4    4    0    0  0.84519706469E+01  0.57595226050E+00 -0.34907839807E+00  0.84787608063E+01  0.51100000000E-03 0. -1.
        -11    1    4    4    0    0  0.81388962959E+01 -0.79492289830E+01  0.16373605814E+02  0.19938075181E+02  0.51100000000E-03 0.  1.
        -12    1    4    4    0    0 -0.40282287997E+01  0.19804934303E+02  0.16277388668E+02  0.25950249168E+02  0.00000000000E+00 0.  1.
</event>
<event>
 8    1  0.1262344E-006  0.9118800E+02  0.7816164E-02  0.1184000E+00
        -11   -1    0    0    0    0  0.00000000000E+00  0.00000000000E+00  0.45593999997E+02  0.45594000000E+02  0.51100000000E-03 0.  1.
         11   -1    0    0    0    0 -0.00000000000E+00 -0.00000000000E+00 -0.45593999997E+02  0.45594000000E+02  0.51100000000E-03 0. -1.
         23    2    1    2    0    0  0.00000000000E+00 -0.17763568394E-14 -0.13322676296E-14  0.91188000000E+02  0.91188000000E+02 0.  0.
    9900012    2    3    3    0    0  0.35300283276E+02  0.98702553886E+01  0.34997233400E+01  0.54367081974E+02  0.39999994976E+02 0.  0.
        -12    1    3    3    0    0 -0.35300283276E+02 -0.98702553886E+01 -0.34997233400E+01  0.36820918026E+02  0.00000000000E+00 0.  1.
         11    1    4    4    0    0  0.17111199378E+02 -0.76218542402E+01 -0.12307702563E+02  0.22413508178E+02  0.51100000000E-03 0. -1.
        -11    1    4    4    0    0  0.80461624976E+01  0.78512924816E+00  0.31965811675E+01  0.86934049886E+01  0.51100000000E-03 0.  1.
         12    1    4    4    0    0  0.10142921401E+02  0.16706980381E+02  0.12610844736E+02  0.23260168807E+02  0.00000000000E+00 0. -1.
</event>
<event>
 8    1  0.1262344E-006  0.9118800E+02  0.7816164E-02  0.1184000E+00
        -11   -1    0    0    0    0  0.00000000000E+00  0.00000000000E+00  0.45593999997E+02  0.45594000000E+02  0.51100000000E-03 0.  1.
         11   -1    0    0    0    0 -0.00000000000E+00 -0.00000000000E+00 -0.45593999997E+02  0.45594000000E+02  0.51100000000E-03 0. -1.
         23    2    1    2    0    0  0.00000000000E+00  0.00000000000E+00  0.44408920985E-15  0.91188000000E+02  0.91188000000E+02 0.  0.
    9900012    2    3    3    0    0 -0.62562181890E+01  0.36149083266E+02 -0.31440545485E+01  0.54367060767E+02  0.39999946629E+02 0.  0.
         12    1    3    3    0    0  0.62562181890E+01 -0.36149083266E+02  0.31440545485E+01  0.36820939233E+02  0.00000000000E+00 0. -1.
         11    1    4    4    0    0  0.54648743949E+01 -0.10338373281E+01 -0.10919453180E+00  0.55628765473E+01  0.51100000000E-03 0. -1.
        -11    1    4    4    0    0  0.59304691089E+01 -0.11732690796E+01 -0.25953655127E+01  0.65789776250E+01  0.51100000000E-03 0.  1.
        -12    1    4    4    0    0 -0.17651561693E+02  0.38356189674E+02 -0.43949450394E+00  0.42225206594E+02  0.00000000000E+00 0.  1.
</event>
<event>
 8    1  0.1262344E-006  0.9118800E+02  0.7816164E-02  0.1184000E+00
        -11   -1    0    0    0    0  0.00000000000E+00  0.00000000000E+00  0.45593999997E+02  0.45594000000E+02  0.51100000000E-03 0.  1.
         11   -1    0    0    0    0 -0.00000000000E+00 -0.00000000000E+00 -0.45593999997E+02  0.45594000000E+02  0.51100000000E-03 0. -1.
         23    2    1    2    0    0 -0.19984014443E-14  0.00000000000E+00  0.00000000000E+00  0.91188000000E+02  0.91188000000E+02 0.  0.
    9900012    2    3    3    0    0 -0.18657620296E+01 -0.17723471518E+02 -0.32220773926E+02  0.54367071400E+02  0.39999970871E+02 0.  0.
        -12    1    3    3    0    0  0.18657620296E+01  0.17723471518E+02  0.32220773926E+02  0.36820928600E+02  0.00000000000E+00 0.  1.
         11    1    4    4    0    0 -0.96801554264E+01 -0.23770161052E+02 -0.25015732290E+02  0.35840100834E+02  0.51100000000E-03 0. -1.
        -11    1    4    4    0    0 -0.15456938547E+01 -0.13702025136E+00  0.29896875526E+01  0.33684085211E+01  0.51100000000E-03 0.  1.
         12    1    4    4    0    0  0.93600872515E+01  0.61837097849E+01 -0.10194729188E+02  0.15158562045E+02  0.00000000000E+00 0. -1.
</event>
<event>
 8    1  0.1262344E-006  0.9118800E+02  0.7816164E-02  0.1184000E+00
        -11   -1    0    0    0    0  0.00000000000E+00  0.00000000000E+00  0.45593999997E+02  0.45594000000E+02  0.51100000000E-03 0.  1.
         11   -1    0    0    0    0 -0.00000000000E+00 -0.00000000000E+00 -0.45593999997E+02  0.45594000000E+02  0.51100000000E-03 0. -1.
         23    2    1    2    0    0  0.35527136788E-14 -0.17763568394E-14  0.35527136788E-14  0.91188000000E+02  0.91188000000E+02 0.  0.
    9900012    2    3    3    0    0 -0.13716685101E+02 -0.15148393964E+02 -0.30629419826E+02  0.54367046064E+02  0.39999913112E+02 0.  0.
        -12    1    3    3    0    0  0.13716685101E+02  0.15148393964E+02  0.30629419826E+02  0.36820953936E+02  0.00000000000E+00 0.  1.
         11    1    4    4    0    0  0.85947647277E+01  0.12166317365E+01 -0.19430520126E+01  0.88952585624E+01  0.51100000000E-03 0. -1.
        -11    1    4    4    0    0 -0.17534818554E+02 -0.47024381020E-01 -0.19198162880E+02  0.26000798665E+02  0.51100000000E-03 0.  1.
         12    1    4    4    0    0 -0.47766312755E+01 -0.16318001319E+02 -0.94882049335E+01  0.19470988836E+02  0.00000000000E+00 0. -1.
</event>
<event>
 8    1  0.1262344E-006  0.9118800E+02  0.7816164E-02  0.1184000E+00
        -11   -1    0    0    0    0  0.00000000000E+00  0.00000000000E+00  0.45593999997E+02  0.45594000000E+02  0.51100000000E-03 0. -1.
         11   -1    0    0    0    0 -0.00000000000E+00 -0.00000000000E+00 -0.45593999997E+02  0.45594000000E+02  0.51100000000E-03 0.  1.
         23    2    1    2    0    0  0.88817841970E-15  0.00000000000E+00  0.00000000000E+00  0.91188000000E+02  0.91188000000E+02 0.  0.
    9900012    2    3    3    0    0  0.55303505525E+01 -0.15818796770E+02 -0.32786611479E+02  0.54367068442E+02  0.39999964128E+02 0.  0.
         12    1    3    3    0    0 -0.55303505525E+01  0.15818796770E+02  0.32786611479E+02  0.36820931558E+02  0.00000000000E+00 0. -1.
         11    1    4    4    0    0 -0.10176913377E+02  0.35017498637E+01 -0.18510075878E+01  0.10920533291E+02  0.51100000000E-03 0.  1.
        -11    1    4    4    0    0  0.68562598059E+01  0.22270253222E+01 -0.70957218337E+01  0.10115196929E+02  0.51100000000E-03 0. -1.
         12    1    4    4    0    0  0.88510041239E+01 -0.21547571956E+02 -0.23839882058E+02  0.33331338223E+02  0.00000000000E+00 0. -1.
</event>
<event>
 8    1  0.1262344E-006  0.9118800E+02  0.7816164E-02  0.1184000E+00
        -11   -1    0    0    0    0  0.00000000000E+00  0.00000000000E+00  0.45593999997E+02  0.45594000000E+02  0.51100000000E-03 0.  1.
         11   -1    0    0    0    0 -0.00000000000E+00 -0.00000000000E+00 -0.45593999997E+02  0.45594000000E+02  0.51100000000E-03 0. -1.
         23    2    1    2    0    0  0.00000000000E+00  0.00000000000E+00  0.53290705182E-14  0.91188000000E+02  0.91188000000E+02 0.  0.
    9900012    2    3    3    0    0 -0.92386491516E+01  0.32255697377E+02 -0.15165360218E+02  0.54367206935E+02  0.40000279848E+02 0.  0.
        -12    1    3    3    0    0  0.92386491516E+01 -0.32255697377E+02  0.15165360218E+02  0.36820793065E+02  0.00000000000E+00 0.  1.
         11    1    4    4    0    0  0.67589257235E+01  0.26120937470E+02  0.14678421160E+01  0.27021121590E+02  0.51100000000E-03 0. -1.
        -11    1    4    4    0    0 -0.14356319775E+02  0.40072797361E+01 -0.54908399495E+01  0.15884317170E+02  0.51100000000E-03 0.  1.
         12    1    4    4    0    0 -0.16412551003E+01  0.21274801711E+01 -0.11142362384E+02  0.11461768175E+02  0.00000000000E+00 0. -1.
</event>
<event>
 8    1  0.1262344E-006  0.9118800E+02  0.7816164E-02  0.1184000E+00
        -11   -1    0    0    0    0  0.00000000000E+00  0.00000000000E+00  0.45593999997E+02  0.45594000000E+02  0.51100000000E-03 0. -1.
         11   -1    0    0    0    0 -0.00000000000E+00 -0.00000000000E+00 -0.45593999997E+02  0.45594000000E+02  0.51100000000E-03 0.  1.
         23    2    1    2    0    0  0.00000000000E+00  0.00000000000E+00  0.00000000000E+00  0.91188000000E+02  0.91188000000E+02 0.  0.
    9900012    2    3    3    0    0  0.16279477671E+02  0.24119640307E+02 -0.22561074293E+02  0.54367075039E+02  0.39999979166E+02 0.  0.
         12    1    3    3    0    0 -0.16279477671E+02 -0.24119640307E+02  0.22561074293E+02  0.36820924961E+02  0.00000000000E+00 0. -1.
         11    1    4    4    0    0 -0.19282687831E+01 -0.23187375418E+01  0.16625502196E+01  0.34436663284E+01  0.51100000000E-03 0. -1.
        -11    1    4    4    0    0  0.22617021395E+02  0.53403110514E+01 -0.12506341285E+02  0.26390474636E+02  0.51100000000E-03 0.  1.
        -12    1    4    4    0    0 -0.44092749409E+01  0.21098066797E+02 -0.11717283227E+02  0.24532934075E+02  0.00000000000E+00 0.  1.
</event>
<event>
 8    1  0.1262344E-006  0.9118800E+02  0.7816164E-02  0.1184000E+00
        -11   -1    0    0    0    0  0.00000000000E+00  0.00000000000E+00  0.45593999997E+02  0.45594000000E+02  0.51100000000E-03 0.  1.
         11   -1    0    0    0    0 -0.00000000000E+00 -0.00000000000E+00 -0.45593999997E+02  0.45594000000E+02  0.51100000000E-03 0. -1.
         23    2    1    2    0    0  0.00000000000E+00  0.00000000000E+00 -0.17763568394E-14  0.91188000000E+02  0.91188000000E+02 0.  0.
    9900012    2    3    3    0    0  0.22112831836E+02 -0.25815418411E+02 -0.14155140559E+02  0.54367066229E+02  0.39999959082E+02 0.  0.
        -12    1    3    3    0    0 -0.22112831836E+02  0.25815418411E+02  0.14155140559E+02  0.36820933771E+02  0.00000000000E+00 0.  1.
         11    1    4    4    0    0 -0.44357193791E+01  0.85840114272E+00 -0.51441407650E+01  0.68465059266E+01  0.51100000000E-03 0. -1.
        -11    1    4    4    0    0  0.21223385230E+01 -0.25308655495E+01  0.83921309457E+01  0.90187284751E+01  0.51100000000E-03 0.  1.
        -12    1    4    4    0    0  0.24426212692E+02 -0.24142954004E+02 -0.17403130739E+02  0.38501831827E+02  0.00000000000E+00 0.  1.
</event>
<event>
 8    1  0.1262344E-006  0.9118800E+02  0.7816164E-02  0.1184000E+00
        -11   -1    0    0    0    0  0.00000000000E+00  0.00000000000E+00  0.45593999997E+02  0.45594000000E+02  0.51100000000E-03 0.  1.
         11   -1    0    0    0    0 -0.00000000000E+00 -0.00000000000E+00 -0.45593999997E+02  0.45594000000E+02  0.51100000000E-03 0. -1.
         23    2    1    2    0    0 -0.35527136788E-14  0.00000000000E+00  0.00000000000E+00  0.91188000000E+02  0.91188000000E+02 0.  0.
    9900012    2    3    3    0    0 -0.26974975776E+02 -0.65009416852E+01 -0.24204727629E+02  0.54367076593E+02  0.39999982709E+02 0.  0.
        -12    1    3    3    0    0  0.26974975776E+02  0.65009416852E+01  0.24204727629E+02  0.36820923407E+02  0.00000000000E+00 0.  1.
         11    1    4    4    0    0 -0.19601768330E+02 -0.56816546573E+01  0.41303635932E+01  0.20822353974E+02  0.51100000000E-03 0. -1.
        -11    1    4    4    0    0 -0.86796384756E+01  0.55720150488E+01 -0.11280419391E+02  0.15285003685E+02  0.51100000000E-03 0.  1.
        -12    1    4    4    0    0  0.13064310296E+01 -0.63913020766E+01 -0.17054671832E+02  0.18259718934E+02  0.00000000000E+00 0.  1.
</event>
<event>
 8    1  0.1262344E-006  0.9118800E+02  0.7816164E-02  0.1184000E+00
        -11   -1    0    0    0    0  0.00000000000E+00  0.00000000000E+00  0.45593999997E+02  0.45594000000E+02  0.51100000000E-03 0.  1.
         11   -1    0    0    0    0 -0.00000000000E+00 -0.00000000000E+00 -0.45593999997E+02  0.45594000000E+02  0.51100000000E-03 0. -1.
         23    2    1    2    0    0  0.00000000000E+00  0.88817841970E-15 -0.35527136788E-14  0.91188000000E+02  0.91188000000E+02 0.  0.
    9900012    2    3    3    0    0  0.30091722901E+02 -0.33448958931E+01  0.20954275985E+02  0.54367057620E+02  0.39999939456E+02 0.  0.
         12    1    3    3    0    0 -0.30091722901E+02  0.33448958931E+01 -0.20954275985E+02  0.36820942380E+02  0.00000000000E+00 0. -1.
         11    1    4    4    0    0  0.71864505817E+01 -0.98651406180E+00  0.19525767034E+02  0.20829638990E+02  0.51100000000E-03 0. -1.
        -11    1    4    4    0    0  0.22104987469E+02 -0.59330697497E+01  0.94170853028E+01  0.24749005708E+02  0.51100000000E-03 0.  1.
        -12    1    4    4    0    0  0.80028485022E+00  0.35746879184E+01 -0.79885763517E+01  0.87884129217E+01  0.00000000000E+00 0.  1.
</event>
<event>
 8    1  0.1262344E-006  0.9118800E+02  0.7816164E-02  0.1184000E+00
        -11   -1    0    0    0    0  0.00000000000E+00  0.00000000000E+00  0.45593999997E+02  0.45594000000E+02  0.51100000000E-03 0. -1.
         11   -1    0    0    0    0 -0.00000000000E+00 -0.00000000000E+00 -0.45593999997E+02  0.45594000000E+02  0.51100000000E-03 0.  1.
         23    2    1    2    0    0  0.44408920985E-15 -0.17763568394E-14  0.00000000000E+00  0.91188000000E+02  0.91188000000E+02 0.  0.
    9900012    2    3    3    0    0  0.29432695945E+01  0.39494793236E+01 -0.36489976713E+02  0.54367087147E+02  0.40000006768E+02 0.  0.
         12    1    3    3    0    0 -0.29432695945E+01 -0.39494793236E+01  0.36489976713E+02  0.36820912853E+02  0.00000000000E+00 0. -1.
         11    1    4    4    0    0 -0.81241576201E+01  0.10411881400E+02 -0.78131624512E+01  0.15344533850E+02  0.51100000000E-03 0. -1.
        -11    1    4    4    0    0 -0.42069397940E+01  0.33684945845E+01 -0.15969462744E+02  0.16854341838E+02  0.51100000000E-03 0.  1.
         12    1    4    4    0    0  0.15274367009E+02 -0.98308966612E+01 -0.12707351518E+02  0.22168211459E+02  0.00000000000E+00 0. -1.
</event>
<event>
 8    1  0.1262344E-006  0.9118800E+02  0.7816164E-02  0.1184000E+00
        -11   -1    0    0    0    0  0.00000000000E+00  0.00000000000E+00  0.45593999997E+02  0.45594000000E+02  0.51100000000E-03 0.  1.
         11   -1    0    0    0    0 -0.00000000000E+00 -0.00000000000E+00 -0.45593999997E+02  0.45594000000E+02  0.51100000000E-03 0. -1.
         23    2    1    2    0    0  0.00000000000E+00 -0.35527136788E-14  0.00000000000E+00  0.91188000000E+02  0.91188000000E+02 0.  0.
    9900012    2    3    3    0    0 -0.27004804056E+02  0.13601060068E+02 -0.21012637250E+02  0.54367092878E+02  0.40000019834E+02 0.  0.
        -12    1    3    3    0    0  0.27004804056E+02 -0.13601060068E+02  0.21012637250E+02  0.36820907122E+02  0.00000000000E+00 0.  1.
         11    1    4    4    0    0 -0.33800026133E+01 -0.95127489001E+01 -0.18206178645E+02  0.20817822903E+02  0.51100000000E-03 0.  1.
        -11    1    4    4    0    0 -0.21760266634E+02  0.21074891330E+02 -0.11226478262E+01  0.30313702958E+02  0.51100000000E-03 0. -1.
         12    1    4    4    0    0 -0.18645348081E+01  0.20389176382E+01 -0.16838107789E+01  0.32355670175E+01  0.00000000000E+00 0. -1.
</event>
<event>
 8    1  0.1262344E-006  0.9118800E+02  0.7816164E-02  0.1184000E+00
        -11   -1    0    0    0    0  0.00000000000E+00  0.00000000000E+00  0.45593999997E+02  0.45594000000E+02  0.51100000000E-03 0.  1.
         11   -1    0    0    0    0 -0.00000000000E+00 -0.00000000000E+00 -0.45593999997E+02  0.45594000000E+02  0.51100000000E-03 0. -1.
         23    2    1    2    0    0  0.35527136788E-14 -0.35527136788E-14 -0.17763568394E-14  0.91188000000E+02  0.91188000000E+02 0.  0.
    9900012    2    3    3    0    0  0.22292879374E+02 -0.24676540201E+02  0.15807449143E+02  0.54367088068E+02  0.40000008869E+02 0.  0.
         12    1    3    3    0    0 -0.22292879374E+02  0.24676540201E+02 -0.15807449143E+02  0.36820911932E+02  0.00000000000E+00 0. -1.
         11    1    4    4    0    0  0.23855233533E+01  0.53719210934E+01  0.29936359944E+01  0.65962197227E+01  0.51100000000E-03 0. -1.
        -11    1    4    4    0    0 -0.33835314715E+01 -0.20466269261E+02  0.72856170051E+01  0.21986283862E+02  0.51100000000E-03 0.  1.
        -12    1    4    4    0    0  0.23290887492E+02 -0.95821920335E+01  0.55281961438E+01  0.25784584483E+02  0.00000000000E+00 0.  1.
</event>
<event>
 8    1  0.1262344E-006  0.9118800E+02  0.7816164E-02  0.1184000E+00
        -11   -1    0    0    0    0  0.00000000000E+00  0.00000000000E+00  0.45593999997E+02  0.45594000000E+02  0.51100000000E-03 0. -1.
         11   -1    0    0    0    0 -0.00000000000E+00 -0.00000000000E+00 -0.45593999997E+02  0.45594000000E+02  0.51100000000E-03 0.  1.
         23    2    1    2    0    0 -0.17763568394E-14  0.00000000000E+00 -0.71054273576E-14  0.91188000000E+02  0.91188000000E+02 0.  0.
    9900012    2    3    3    0    0 -0.13379642653E+02 -0.13804209725E+02  0.31403971137E+02  0.54367075964E+02  0.39999981276E+02 0.  0.
         12    1    3    3    0    0  0.13379642653E+02  0.13804209725E+02 -0.31403971137E+02  0.36820924036E+02  0.00000000000E+00 0. -1.
         11    1    4    4    0    0 -0.28526397087E+00  0.51785634598E+01  0.65585047955E+01  0.83613922558E+01  0.51100000000E-03 0.  1.
        -11    1    4    4    0    0 -0.22818869716E+02 -0.14903386208E+02  0.13160229688E+02  0.30265547761E+02  0.51100000000E-03 0. -1.
        -12    1    4    4    0    0  0.97244910343E+01 -0.40793869773E+01  0.11685236653E+02  0.15740135947E+02  0.00000000000E+00 0.  1.
</event>
<event>
 8    1  0.1262344E-006  0.9118800E+02  0.7816164E-02  0.1184000E+00
        -11   -1    0    0    0    0  0.00000000000E+00  0.00000000000E+00  0.45593999997E+02  0.45594000000E+02  0.51100000000E-03 0.  1.
         11   -1    0    0    0    0 -0.00000000000E+00 -0.00000000000E+00 -0.45593999997E+02  0.45594000000E+02  0.51100000000E-03 0. -1.
         23    2    1    2    0    0  0.00000000000E+00  0.17763568394E-14 -0.35527136788E-14  0.91188000000E+02  0.91188000000E+02 0.  0.
    9900012    2    3    3    0    0  0.23104263029E+02  0.10202518324E+02 -0.26793299658E+02  0.54367092124E+02  0.40000018115E+02 0.  0.
        -12    1    3    3    0    0 -0.23104263029E+02 -0.10202518324E+02  0.26793299658E+02  0.36820907876E+02  0.00000000000E+00 0.  1.
         11    1    4    4    0    0  0.22870966523E+01  0.84696382834E-01 -0.14875187925E+01  0.27295964892E+01  0.51100000000E-03 0. -1.
        -11    1    4    4    0    0  0.90576158803E+01 -0.13657571966E+02 -0.23442712913E+01  0.16554917263E+02  0.51100000000E-03 0.  1.
        -12    1    4    4    0    0  0.11759550496E+02  0.23775393907E+02 -0.22961509574E+02  0.35082578372E+02  0.00000000000E+00 0.  1.
</event>
<event>
 8    1  0.1262344E-006  0.9118800E+02  0.7816164E-02  0.1184000E+00
        -11   -1    0    0    0    0  0.00000000000E+00  0.00000000000E+00  0.45593999997E+02  0.45594000000E+02  0.51100000000E-03 0.  1.
         11   -1    0    0    0    0 -0.00000000000E+00 -0.00000000000E+00 -0.45593999997E+02  0.45594000000E+02  0.51100000000E-03 0. -1.
         23    2    1    2    0    0  0.00000000000E+00  0.71054273576E-14 -0.35527136788E-14  0.91188000000E+02  0.91188000000E+02 0.  0.
    9900012    2    3    3    0    0  0.18707712675E+02  0.24812768774E+02 -0.19751659637E+02  0.54367081134E+02  0.39999993060E+02 0.  0.
        -12    1    3    3    0    0 -0.18707712675E+02 -0.24812768774E+02  0.19751659637E+02  0.36820918866E+02  0.00000000000E+00 0.  1.
         11    1    4    4    0    0  0.10011316305E+02 -0.15615621311E+00 -0.14918887050E+02  0.17967304472E+02  0.51100000000E-03 0. -1.
        -11    1    4    4    0    0  0.76614700505E+00 -0.46941201917E+01 -0.30356555003E+01  0.56424241409E+01  0.51100000000E-03 0.  1.
        -12    1    4    4    0    0  0.79302493640E+01  0.29663045179E+02 -0.17971170870E+01  0.30757352521E+02  0.00000000000E+00 0.  1.
</event>
<event>
 8    1  0.1262344E-006  0.9118800E+02  0.7816164E-02  0.1184000E+00
        -11   -1    0    0    0    0  0.00000000000E+00  0.00000000000E+00  0.45593999997E+02  0.45594000000E+02  0.51100000000E-03 0.  1.
         11   -1    0    0    0    0 -0.00000000000E+00 -0.00000000000E+00 -0.45593999997E+02  0.45594000000E+02  0.51100000000E-03 0. -1.
         23    2    1    2    0    0  0.35527136788E-14  0.00000000000E+00 -0.35527136788E-14  0.91188000000E+02  0.91188000000E+02 0.  0.
    9900012    2    3    3    0    0 -0.18999903150E+02  0.27094685617E+01  0.31423598355E+02  0.54367081039E+02  0.39999992844E+02 0.  0.
         12    1    3    3    0    0  0.18999903150E+02 -0.27094685617E+01 -0.31423598355E+02  0.36820918961E+02  0.00000000000E+00 0. -1.
         11    1    4    4    0    0 -0.40532216121E+01  0.47096005204E+01 -0.12779805640E+01  0.63436722079E+01  0.51100000000E-03 0. -1.
        -11    1    4    4    0    0  0.93957975840E+01 -0.42354141061E+01  0.13234204536E+02  0.16773905772E+02  0.51100000000E-03 0.  1.
        -12    1    4    4    0    0 -0.24342479122E+02  0.22352821474E+01  0.19467374383E+02  0.31249503059E+02  0.00000000000E+00 0.  1.
</event>
<event>
 8    1  0.1262344E-006  0.9118800E+02  0.7816164E-02  0.1184000E+00
        -11   -1    0    0    0    0  0.00000000000E+00  0.00000000000E+00  0.45593999997E+02  0.45594000000E+02  0.51100000000E-03 0.  1.
         11   -1    0    0    0    0 -0.00000000000E+00 -0.00000000000E+00 -0.45593999997E+02  0.45594000000E+02  0.51100000000E-03 0. -1.
         23    2    1    2    0    0  0.35527136788E-14  0.71054273576E-14  0.00000000000E+00  0.91188000000E+02  0.91188000000E+02 0.  0.
    9900012    2    3    3    0    0 -0.16420025100E+02 -0.32011360315E+02 -0.78381031472E+01  0.54367078305E+02  0.39999986612E+02 0.  0.
         12    1    3    3    0    0  0.16420025100E+02  0.32011360315E+02  0.78381031472E+01  0.36820921695E+02  0.00000000000E+00 0. -1.
         11    1    4    4    0    0 -0.22534348479E+02 -0.20113783795E+02 -0.52642524026E+01  0.30660618284E+02  0.51100000000E-03 0. -1.
        -11    1    4    4    0    0  0.39346707847E+01  0.37485889010E+01  0.38426672524E+01  0.66557978340E+01  0.51100000000E-03 0.  1.
         12    1    4    4    0    0  0.21796525939E+01 -0.15646165421E+02 -0.64165179970E+01  0.17050662187E+02  0.00000000000E+00 0. -1.
</event>
<event>
 8    1  0.1262344E-006  0.9118800E+02  0.7816164E-02  0.1184000E+00
        -11   -1    0    0    0    0  0.00000000000E+00  0.00000000000E+00  0.45593999997E+02  0.45594000000E+02  0.51100000000E-03 0.  1.
         11   -1    0    0    0    0 -0.00000000000E+00 -0.00000000000E+00 -0.45593999997E+02  0.45594000000E+02  0.51100000000E-03 0. -1.
         23    2    1    2    0    0  0.00000000000E+00 -0.35527136788E-14  0.00000000000E+00  0.91188000000E+02  0.91188000000E+02 0.  0.
    9900012    2    3    3    0    0 -0.20622840016E+02 -0.30425897765E+02 -0.21778333464E+01  0.54367085519E+02  0.40000003058E+02 0.  0.
         12    1    3    3    0    0  0.20622840016E+02  0.30425897765E+02  0.21778333464E+01  0.36820914481E+02  0.00000000000E+00 0. -1.
         11    1    4    4    0    0 -0.39344530706E+00 -0.84290099724E+01 -0.79418077085E+01  0.11587722739E+02  0.51100000000E-03 0. -1.
        -11    1    4    4    0    0 -0.10730101140E+02 -0.63936196298E+01 -0.11984123082E+02  0.17309900310E+02  0.51100000000E-03 0.  1.
        -12    1    4    4    0    0 -0.94992935687E+01 -0.15603268163E+02  0.17748097444E+02  0.25469462471E+02  0.00000000000E+00 0.  1.
</event>
<event>
 8    1  0.1262344E-006  0.9118800E+02  0.7816164E-02  0.1184000E+00
        -11   -1    0    0    0    0  0.00000000000E+00  0.00000000000E+00  0.45593999997E+02  0.45594000000E+02  0.51100000000E-03 0. -1.
         11   -1    0    0    0    0 -0.00000000000E+00 -0.00000000000E+00 -0.45593999997E+02  0.45594000000E+02  0.51100000000E-03 0.  1.
         23    2    1    2    0    0  0.00000000000E+00  0.35527136788E-14 -0.17763568394E-14  0.91188000000E+02  0.91188000000E+02 0.  0.
    9900012    2    3    3    0    0  0.21004476737E+02  0.26883400341E+02  0.13851863815E+02  0.54367090342E+02  0.40000014053E+02 0.  0.
        -12    1    3    3    0    0 -0.21004476737E+02 -0.26883400341E+02 -0.13851863815E+02  0.36820909658E+02  0.00000000000E+00 0.  1.
         11    1    4    4    0    0  0.27826800357E+02  0.21711888184E+02  0.13450519975E+02  0.37771065572E+02  0.51100000000E-03 0. -1.
        -11    1    4    4    0    0 -0.46271490972E+01  0.73399832665E+01  0.57585195490E+01  0.10413760645E+02  0.51100000000E-03 0.  1.
        -12    1    4    4    0    0 -0.21951745222E+01 -0.21684711097E+01 -0.53571757089E+01  0.61822641251E+01  0.00000000000E+00 0.  1.
</event>
<event>
 8    1  0.1262344E-006  0.9118800E+02  0.7816164E-02  0.1184000E+00
        -11   -1    0    0    0    0  0.00000000000E+00  0.00000000000E+00  0.45593999997E+02  0.45594000000E+02  0.51100000000E-03 0.  1.
         11   -1    0    0    0    0 -0.00000000000E+00 -0.00000000000E+00 -0.45593999997E+02  0.45594000000E+02  0.51100000000E-03 0. -1.
         23    2    1    2    0    0  0.00000000000E+00  0.00000000000E+00  0.00000000000E+00  0.91188000000E+02  0.91188000000E+02 0.  0.
    9900012    2    3    3    0    0 -0.24929667096E+02 -0.13536319403E+02  0.23474659744E+02  0.54367083463E+02  0.39999998371E+02 0.  0.
         12    1    3    3    0    0  0.24929667096E+02  0.13536319403E+02 -0.23474659744E+02  0.36820916537E+02  0.00000000000E+00 0. -1.
         11    1    4    4    0    0 -0.32721578537E+02 -0.38997895786E+01  0.16456195687E+02  0.36833631880E+02  0.51100000000E-03 0. -1.
        -11    1    4    4    0    0  0.44184960264E+00  0.20650609744E+01  0.17571767341E+01  0.27472492125E+01  0.51100000000E-03 0.  1.
         12    1    4    4    0    0  0.73500618384E+01 -0.11701590799E+02  0.52612873233E+01  0.14786202371E+02  0.00000000000E+00 0. -1.
</event>
<event>
 8    1  0.1262344E-006  0.9118800E+02  0.7816164E-02  0.1184000E+00
        -11   -1    0    0    0    0  0.00000000000E+00  0.00000000000E+00  0.45593999997E+02  0.45594000000E+02  0.51100000000E-03 0. -1.
         11   -1    0    0    0    0 -0.00000000000E+00 -0.00000000000E+00 -0.45593999997E+02  0.45594000000E+02  0.51100000000E-03 0.  1.
         23    2    1    2    0    0  0.17763568394E-14 -0.17763568394E-14  0.71054273576E-14  0.91188000000E+02  0.91188000000E+02 0.  0.
    9900012    2    3    3    0    0  0.34747008198E+01 -0.11360654922E+02  0.34851737788E+02  0.54367059587E+02  0.39999943941E+02 0.  0.
        -12    1    3    3    0    0 -0.34747008198E+01  0.11360654922E+02 -0.34851737788E+02  0.36820940413E+02  0.00000000000E+00 0.  1.
         11    1    4    4    0    0 -0.11002190224E+02  0.48035834007E+01  0.14338810547E+02  0.18700911512E+02  0.51100000000E-03 0. -1.
        -11    1    4    4    0    0 -0.72380162282E+00 -0.75898986269E+01 -0.12962296692E+01  0.77337352923E+01  0.51100000000E-03 0.  1.
        -12    1    4    4    0    0  0.15200692666E+02 -0.85743396960E+01  0.21809156910E+02  0.27932412783E+02  0.00000000000E+00 0.  1.
</event>
<event>
 8    1  0.1262344E-006  0.9118800E+02  0.7816164E-02  0.1184000E+00
        -11   -1    0    0    0    0  0.00000000000E+00  0.00000000000E+00  0.45593999997E+02  0.45594000000E+02  0.51100000000E-03 0. -1.
         11   -1    0    0    0    0 -0.00000000000E+00 -0.00000000000E+00 -0.45593999997E+02  0.45594000000E+02  0.51100000000E-03 0.  1.
         23    2    1    2    0    0  0.00000000000E+00  0.11102230246E-15  0.00000000000E+00  0.91188000000E+02  0.91188000000E+02 0.  0.
    9900012    2    3    3    0    0  0.27638020420E+02  0.70272150853E+00  0.24319335261E+02  0.54367026930E+02  0.39999869493E+02 0.  0.
        -12    1    3    3    0    0 -0.27638020420E+02 -0.70272150853E+00 -0.24319335261E+02  0.36820973070E+02  0.00000000000E+00 0.  1.
         11    1    4    4    0    0  0.19746101703E+02  0.90894456488E+01  0.32981198830E+02  0.39500456088E+02  0.51100000000E-03 0. -1.
        -11    1    4    4    0    0  0.48132841314E+01 -0.40443026091E+01 -0.26106919799E+01  0.68073343240E+01  0.51100000000E-03 0.  1.
         12    1    4    4    0    0  0.30786345851E+01 -0.43424215311E+01 -0.60511715884E+01  0.80592365181E+01  0.00000000000E+00 0. -1.
</event>
<event>
 8    1  0.1262344E-006  0.9118800E+02  0.7816164E-02  0.1184000E+00
        -11   -1    0    0    0    0  0.00000000000E+00  0.00000000000E+00  0.45593999997E+02  0.45594000000E+02  0.51100000000E-03 0.  1.
         11   -1    0    0    0    0 -0.00000000000E+00 -0.00000000000E+00 -0.45593999997E+02  0.45594000000E+02  0.51100000000E-03 0. -1.
         23    2    1    2    0    0  0.35527136788E-14 -0.16653345369E-15 -0.35527136788E-14  0.91188000000E+02  0.91188000000E+02 0.  0.
    9900012    2    3    3    0    0 -0.25394813851E+02 -0.38836411243E+00  0.26659567799E+02  0.54367082678E+02  0.39999996581E+02 0.  0.
         12    1    3    3    0    0  0.25394813851E+02  0.38836411243E+00 -0.26659567799E+02  0.36820917322E+02  0.00000000000E+00 0. -1.
         11    1    4    4    0    0  0.50360982048E+01 -0.83087927623E-01 -0.81454174421E+00  0.51022217950E+01  0.51100000000E-03 0. -1.
        -11    1    4    4    0    0 -0.16380646683E+02 -0.10381287685E+02  0.34999482413E+01  0.19706505466E+02  0.51100000000E-03 0.  1.
        -12    1    4    4    0    0 -0.14050265373E+02  0.10076011500E+02  0.23974161302E+02  0.29558355417E+02  0.00000000000E+00 0.  1.
</event>
<event>
 8    1  0.1262344E-006  0.9118800E+02  0.7816164E-02  0.1184000E+00
        -11   -1    0    0    0    0  0.00000000000E+00  0.00000000000E+00  0.45593999997E+02  0.45594000000E+02  0.51100000000E-03 0.  1.
         11   -1    0    0    0    0 -0.00000000000E+00 -0.00000000000E+00 -0.45593999997E+02  0.45594000000E+02  0.51100000000E-03 0. -1.
         23    2    1    2    0    0  0.00000000000E+00  0.00000000000E+00  0.00000000000E+00  0.91188000000E+02  0.91188000000E+02 0.  0.
    9900012    2    3    3    0    0  0.29339852984E+02  0.20807082484E+02 -0.78751677992E+01  0.54367083085E+02  0.39999997508E+02 0.  0.
         12    1    3    3    0    0 -0.29339852984E+02 -0.20807082484E+02  0.78751677992E+01  0.36820916915E+02  0.00000000000E+00 0. -1.
         11    1    4    4    0    0 -0.59116241825E+01 -0.24497044370E+01  0.31443780585E+01  0.71298994341E+01  0.51100000000E-03 0. -1.
        -11    1    4    4    0    0  0.23943783454E+02  0.65175118696E+01 -0.13770480001E+01  0.24853148463E+02  0.51100000000E-03 0.  1.
        -12    1    4    4    0    0  0.11307693712E+02  0.16739275052E+02 -0.96424978576E+01  0.22384035187E+02  0.00000000000E+00 0.  1.
</event>
<event>
 8    1  0.1262344E-006  0.9118800E+02  0.7816164E-02  0.1184000E+00
        -11   -1    0    0    0    0  0.00000000000E+00  0.00000000000E+00  0.45593999997E+02  0.45594000000E+02  0.51100000000E-03 0.  1.
         11   -1    0    0    0    0 -0.00000000000E+00 -0.00000000000E+00 -0.45593999997E+02  0.45594000000E+02  0.51100000000E-03 0. -1.
         23    2    1    2    0    0  0.00000000000E+00  0.35527136788E-14  0.00000000000E+00  0.91188000000E+02  0.91188000000E+02 0.  0.
    9900012    2    3    3    0    0  0.19708886968E+02 -0.28429722509E+02 -0.12613136577E+02  0.54367074404E+02  0.39999977719E+02 0.  0.
        -12    1    3    3    0    0 -0.19708886968E+02  0.28429722509E+02  0.12613136577E+02  0.36820925596E+02  0.00000000000E+00 0.  1.
         11    1    4    4    0    0  0.27920523464E+02 -0.13102350818E+02 -0.93171875261E+01  0.32218584871E+02  0.51100000000E-03 0. -1.
        -11    1    4    4    0    0 -0.25718028598E+01  0.22155136217E+01  0.16761137308E+00  0.33986415508E+01  0.51100000000E-03 0.  1.
         12    1    4    4    0    0 -0.56398336364E+01 -0.17542885312E+02 -0.34635604239E+01  0.18749847982E+02  0.00000000000E+00 0. -1.
</event>
<event>
 8    1  0.1262344E-006  0.9118800E+02  0.7816164E-02  0.1184000E+00
        -11   -1    0    0    0    0  0.00000000000E+00  0.00000000000E+00  0.45593999997E+02  0.45594000000E+02  0.51100000000E-03 0. -1.
         11   -1    0    0    0    0 -0.00000000000E+00 -0.00000000000E+00 -0.45593999997E+02  0.45594000000E+02  0.51100000000E-03 0.  1.
         23    2    1    2    0    0  0.35527136788E-14  0.30531133177E-15  0.00000000000E+00  0.91188000000E+02  0.91188000000E+02 0.  0.
    9900012    2    3    3    0    0  0.15545021217E+02 -0.24580120366E+00 -0.33377709362E+02  0.54367087666E+02  0.40000007952E+02 0.  0.
         12    1    3    3    0    0 -0.15545021217E+02  0.24580120366E+00  0.33377709362E+02  0.36820912334E+02  0.00000000000E+00 0. -1.
         11    1    4    4    0    0  0.84918203697E+01 -0.47937565534E+01 -0.11555537880E+02  0.15120237136E+02  0.51100000000E-03 0.  1.
        -11    1    4    4    0    0 -0.11470427278E+02 -0.18634360580E+01 -0.13866583772E+02  0.18092132037E+02  0.51100000000E-03 0. -1.
        -12    1    4    4    0    0  0.18523628126E+02  0.64113914078E+01 -0.79555877100E+01  0.21154718493E+02  0.00000000000E+00 0.  1.
</event>
<event>
 8    1  0.1262344E-006  0.9118800E+02  0.7816164E-02  0.1184000E+00
        -11   -1    0    0    0    0  0.00000000000E+00  0.00000000000E+00  0.45593999997E+02  0.45594000000E+02  0.51100000000E-03 0.  1.
         11   -1    0    0    0    0 -0.00000000000E+00 -0.00000000000E+00 -0.45593999997E+02  0.45594000000E+02  0.51100000000E-03 0. -1.
         23    2    1    2    0    0  0.00000000000E+00 -0.88817841970E-15  0.00000000000E+00  0.91188000000E+02  0.91188000000E+02 0.  0.
    9900012    2    3    3    0    0 -0.19365414530E+02 -0.38456797965E+01 -0.31080178544E+02  0.54367000131E+02  0.39999808399E+02 0.  0.
        -12    1    3    3    0    0  0.19365414530E+02  0.38456797965E+01  0.31080178544E+02  0.36820999869E+02  0.00000000000E+00 0.  1.
         11    1    4    4    0    0 -0.20336467564E+02  0.12238148246E+02 -0.13825335644E+02  0.27467873806E+02  0.51100000000E-03 0. -1.
        -11    1    4    4    0    0 -0.58185490941E+01 -0.96237423417E+01 -0.99682904543E+01  0.15027932162E+02  0.51100000000E-03 0.  1.
         12    1    4    4    0    0  0.67896021280E+01 -0.64600857013E+01 -0.72865524455E+01  0.11871194163E+02  0.00000000000E+00 0. -1.
</event>
<event>
 8    1  0.1262344E-006  0.9118800E+02  0.7816164E-02  0.1184000E+00
        -11   -1    0    0    0    0  0.00000000000E+00  0.00000000000E+00  0.45593999997E+02  0.45594000000E+02  0.51100000000E-03 0.  1.
         11   -1    0    0    0    0 -0.00000000000E+00 -0.00000000000E+00 -0.45593999997E+02  0.45594000000E+02  0.51100000000E-03 0. -1.
         23    2    1    2    0    0  0.00000000000E+00  0.00000000000E+00  0.00000000000E+00  0.91188000000E+02  0.91188000000E+02 0.  0.
    9900012    2    3    3    0    0 -0.32138123550E+02  0.44523993528E+01 -0.17409681234E+02  0.54367084124E+02  0.39999999877E+02 0.  0.
        -12    1    3    3    0    0  0.32138123550E+02 -0.44523993528E+01  0.17409681234E+02  0.36820915876E+02  0.00000000000E+00 0.  1.
         11    1    4    4    0    0 -0.40425058084E+02 -0.94704519256E-02 -0.10487641208E+02  0.41763333549E+02  0.51100000000E-03 0. -1.
        -11    1    4    4    0    0  0.41441136058E+01  0.37392898194E+01 -0.15722734909E+01  0.57989662977E+01  0.51100000000E-03 0.  1.
         12    1    4    4    0    0  0.41428209282E+01  0.72257998533E+00 -0.53497665350E+01  0.68047842770E+01  0.00000000000E+00 0. -1.
</event>
<event>
 8    1  0.1262344E-006  0.9118800E+02  0.7816164E-02  0.1184000E+00
        -11   -1    0    0    0    0  0.00000000000E+00  0.00000000000E+00  0.45593999997E+02  0.45594000000E+02  0.51100000000E-03 0.  1.
         11   -1    0    0    0    0 -0.00000000000E+00 -0.00000000000E+00 -0.45593999997E+02  0.45594000000E+02  0.51100000000E-03 0. -1.
         23    2    1    2    0    0  0.00000000000E+00  0.00000000000E+00 -0.35527136788E-14  0.91188000000E+02  0.91188000000E+02 0.  0.
    9900012    2    3    3    0    0  0.12654913024E+02  0.25118497114E+02  0.23763261046E+02  0.54367105165E+02  0.40000047845E+02 0.  0.
         12    1    3    3    0    0 -0.12654913024E+02 -0.25118497114E+02 -0.23763261046E+02  0.36820894835E+02  0.00000000000E+00 0. -1.
         11    1    4    4    0    0  0.15878679156E+01 -0.93895652921E+01  0.21548003097E+01  0.97636276828E+01  0.51100000000E-03 0. -1.
        -11    1    4    4    0    0 -0.35734534449E+00  0.10090279368E+02  0.68653151957E-01  0.10096838462E+02  0.51100000000E-03 0.  1.
        -12    1    4    4    0    0  0.11424390453E+02  0.24417783038E+02  0.21539807584E+02  0.34506639020E+02  0.00000000000E+00 0.  1.
</event>
<event>
 8    1  0.1262344E-006  0.9118800E+02  0.7816164E-02  0.1184000E+00
        -11   -1    0    0    0    0  0.00000000000E+00  0.00000000000E+00  0.45593999997E+02  0.45594000000E+02  0.51100000000E-03 0.  1.
         11   -1    0    0    0    0 -0.00000000000E+00 -0.00000000000E+00 -0.45593999997E+02  0.45594000000E+02  0.51100000000E-03 0. -1.
         23    2    1    2    0    0  0.00000000000E+00 -0.35527136788E-14  0.00000000000E+00  0.91188000000E+02  0.91188000000E+02 0.  0.
    9900012    2    3    3    0    0 -0.26384333279E+02  0.21526906118E+02  0.14008547180E+02  0.54367080353E+02  0.39999991280E+02 0.  0.
         12    1    3    3    0    0  0.26384333279E+02 -0.21526906118E+02 -0.14008547180E+02  0.36820919647E+02  0.00000000000E+00 0. -1.
         11    1    4    4    0    0  0.73539696361E+01  0.10071717252E+02 -0.13032038423E+01  0.12538688063E+02  0.51100000000E-03 0. -1.
        -11    1    4    4    0    0  0.12258378033E+01  0.26636235600E+00  0.27590252230E+01  0.30308163367E+01  0.51100000000E-03 0.  1.
         12    1    4    4    0    0 -0.34964140718E+02  0.11188826510E+02  0.12552725799E+02  0.38797575953E+02  0.00000000000E+00 0. -1.
</event>
<event>
 8    1  0.1262344E-006  0.9118800E+02  0.7816164E-02  0.1184000E+00
        -11   -1    0    0    0    0  0.00000000000E+00  0.00000000000E+00  0.45593999997E+02  0.45594000000E+02  0.51100000000E-03 0.  1.
         11   -1    0    0    0    0 -0.00000000000E+00 -0.00000000000E+00 -0.45593999997E+02  0.45594000000E+02  0.51100000000E-03 0. -1.
         23    2    1    2    0    0  0.00000000000E+00 -0.88817841970E-15  0.00000000000E+00  0.91188000000E+02  0.91188000000E+02 0.  0.
    9900012    2    3    3    0    0  0.16066797313E+02 -0.59199866358E+01  0.32597412355E+02  0.54367088687E+02  0.40000010280E+02 0.  0.
         12    1    3    3    0    0 -0.16066797313E+02  0.59199866358E+01 -0.32597412355E+02  0.36820911313E+02  0.00000000000E+00 0. -1.
         11    1    4    4    0    0 -0.31499553397E+01  0.57943190106E+01 -0.44756438961E+01  0.79704290966E+01  0.51100000000E-03 0. -1.
        -11    1    4    4    0    0  0.39376237982E+01 -0.29584359824E+01  0.23906568019E+02  0.24408630017E+02  0.51100000000E-03 0.  1.
         12    1    4    4    0    0  0.15279128854E+02 -0.87558696640E+01  0.13166488233E+02  0.21988029573E+02  0.00000000000E+00 0. -1.
</event>
<event>
 8    1  0.1262344E-006  0.9118800E+02  0.7816164E-02  0.1184000E+00
        -11   -1    0    0    0    0  0.00000000000E+00  0.00000000000E+00  0.45593999997E+02  0.45594000000E+02  0.51100000000E-03 0. -1.
         11   -1    0    0    0    0 -0.00000000000E+00 -0.00000000000E+00 -0.45593999997E+02  0.45594000000E+02  0.51100000000E-03 0.  1.
         23    2    1    2    0    0  0.00000000000E+00  0.00000000000E+00 -0.35527136788E-14  0.91188000000E+02  0.91188000000E+02 0.  0.
    9900012    2    3    3    0    0 -0.97824248486E+01 -0.22955333265E+02  0.27076507975E+02  0.54367075984E+02  0.39999981321E+02 0.  0.
        -12    1    3    3    0    0  0.97824248486E+01  0.22955333265E+02 -0.27076507975E+02  0.36820924016E+02  0.00000000000E+00 0.  1.
         11    1    4    4    0    0 -0.69530133508E+01 -0.11981506240E+02 -0.46419650296E+01  0.14609884532E+02  0.51100000000E-03 0. -1.
        -11    1    4    4    0    0  0.61300293840E+01 -0.27246323554E+00  0.12752684524E+01  0.62672008385E+01  0.51100000000E-03 0.  1.
         12    1    4    4    0    0 -0.89594408817E+01 -0.10701363790E+02  0.30443204553E+02  0.33489990614E+02  0.00000000000E+00 0. -1.
</event>
<event>
 8    1  0.1262344E-006  0.9118800E+02  0.7816164E-02  0.1184000E+00
        -11   -1    0    0    0    0  0.00000000000E+00  0.00000000000E+00  0.45593999997E+02  0.45594000000E+02  0.51100000000E-03 0.  1.
         11   -1    0    0    0    0 -0.00000000000E+00 -0.00000000000E+00 -0.45593999997E+02  0.45594000000E+02  0.51100000000E-03 0. -1.
         23    2    1    2    0    0  0.00000000000E+00  0.00000000000E+00  0.71054273576E-14  0.91188000000E+02  0.91188000000E+02 0.  0.
    9900012    2    3    3    0    0  0.71404480867E+01 -0.13752809965E+02  0.33401408812E+02  0.54367083506E+02  0.39999998468E+02 0.  0.
         12    1    3    3    0    0 -0.71404480867E+01  0.13752809965E+02 -0.33401408812E+02  0.36820916494E+02  0.00000000000E+00 0. -1.
         11    1    4    4    0    0 -0.26530369448E+01 -0.44123461782E+01  0.10495989723E+02  0.11690731557E+02  0.51100000000E-03 0. -1.
        -11    1    4    4    0    0  0.14106639364E+02 -0.19241890216E+02  0.20843507452E+02  0.31681215513E+02  0.51100000000E-03 0.  1.
         12    1    4    4    0    0 -0.43131543327E+01  0.99014264289E+01  0.20619116375E+01  0.10995136435E+02  0.00000000000E+00 0. -1.
</event>
<event>
 8    1  0.1262344E-006  0.9118800E+02  0.7816164E-02  0.1184000E+00
        -11   -1    0    0    0    0  0.00000000000E+00  0.00000000000E+00  0.45593999997E+02  0.45594000000E+02  0.51100000000E-03 0.  1.
         11   -1    0    0    0    0 -0.00000000000E+00 -0.00000000000E+00 -0.45593999997E+02  0.45594000000E+02  0.51100000000E-03 0. -1.
         23    2    1    2    0    0  0.00000000000E+00  0.35527136788E-14  0.00000000000E+00  0.91188000000E+02  0.91188000000E+02 0.  0.
    9900012    2    3    3    0    0 -0.16475531054E+02 -0.31615899623E+02  0.92071978846E+01  0.54367072182E+02  0.39999972653E+02 0.  0.
         12    1    3    3    0    0  0.16475531054E+02  0.31615899623E+02 -0.92071978846E+01  0.36820927818E+02  0.00000000000E+00 0. -1.
         11    1    4    4    0    0 -0.16260336742E+01 -0.96892859912E+01  0.16193533953E+02  0.18940876186E+02  0.51100000000E-03 0. -1.
        -11    1    4    4    0    0 -0.30198942682E+00 -0.18230113683E+02  0.13037983531E+01  0.18279172107E+02  0.51100000000E-03 0.  1.
        -12    1    4    4    0    0 -0.14547507953E+02 -0.36964999492E+01 -0.82901344220E+01  0.17147023889E+02  0.00000000000E+00 0.  1.
</event>
<event>
 8    1  0.1262344E-006  0.9118800E+02  0.7816164E-02  0.1184000E+00
        -11   -1    0    0    0    0  0.00000000000E+00  0.00000000000E+00  0.45593999997E+02  0.45594000000E+02  0.51100000000E-03 0.  1.
         11   -1    0    0    0    0 -0.00000000000E+00 -0.00000000000E+00 -0.45593999997E+02  0.45594000000E+02  0.51100000000E-03 0. -1.
         23    2    1    2    0    0  0.00000000000E+00  0.00000000000E+00  0.00000000000E+00  0.91188000000E+02  0.91188000000E+02 0.  0.
    9900012    2    3    3    0    0  0.19012457297E+02  0.19005973246E+02  0.25161035161E+02  0.54367105906E+02  0.40000049534E+02 0.  0.
        -12    1    3    3    0    0 -0.19012457297E+02 -0.19005973246E+02 -0.25161035161E+02  0.36820894094E+02  0.00000000000E+00 0.  1.
         11    1    4    4    0    0 -0.17736888159E+01  0.10482053550E+02 -0.59934432462E+01  0.12204129664E+02  0.51100000000E-03 0. -1.
        -11    1    4    4    0    0  0.21332020240E+02  0.34358441951E+01  0.18257050066E+02  0.28287452876E+02  0.51100000000E-03 0.  1.
        -12    1    4    4    0    0 -0.54587412694E+00  0.50880755003E+01  0.12897428342E+02  0.13875523367E+02  0.00000000000E+00 0.  1.
</event>
<event>
 8    1  0.1262344E-006  0.9118800E+02  0.7816164E-02  0.1184000E+00
        -11   -1    0    0    0    0  0.00000000000E+00  0.00000000000E+00  0.45593999997E+02  0.45594000000E+02  0.51100000000E-03 0.  1.
         11   -1    0    0    0    0 -0.00000000000E+00 -0.00000000000E+00 -0.45593999997E+02  0.45594000000E+02  0.51100000000E-03 0. -1.
         23    2    1    2    0    0 -0.71054273576E-14  0.00000000000E+00 -0.17763568394E-14  0.91188000000E+02  0.91188000000E+02 0.  0.
    9900012    2    3    3    0    0  0.25153700959E+02  0.22523147096E+02  0.14689409196E+02  0.54367087877E+02  0.40000008433E+02 0.  0.
        -12    1    3    3    0    0 -0.25153700959E+02 -0.22523147096E+02 -0.14689409196E+02  0.36820912123E+02  0.00000000000E+00 0.  1.
         11    1    4    4    0    0  0.20797317526E+02 -0.41018060339E+01  0.27387391904E+01  0.21374141425E+02  0.51100000000E-03 0. -1.
        -11    1    4    4    0    0  0.24119595420E+01 -0.12155231103E+01  0.18920049846E+00  0.27075528349E+01  0.51100000000E-03 0.  1.
        -12    1    4    4    0    0  0.19444238905E+01  0.27840476241E+02  0.11761469508E+02  0.30285393617E+02  0.00000000000E+00 0.  1.
</event>
<event>
 8    1  0.1262344E-006  0.9118800E+02  0.7816164E-02  0.1184000E+00
        -11   -1    0    0    0    0  0.00000000000E+00  0.00000000000E+00  0.45593999997E+02  0.45594000000E+02  0.51100000000E-03 0.  1.
         11   -1    0    0    0    0 -0.00000000000E+00 -0.00000000000E+00 -0.45593999997E+02  0.45594000000E+02  0.51100000000E-03 0. -1.
         23    2    1    2    0    0  0.35527136788E-14  0.12212453271E-14  0.71054273576E-14  0.91188000000E+02  0.91188000000E+02 0.  0.
    9900012    2    3    3    0    0 -0.31277181326E+02  0.86118852856E+00 -0.19410747559E+02  0.54367070650E+02  0.39999969161E+02 0.  0.
        -12    1    3    3    0    0  0.31277181326E+02 -0.86118852856E+00  0.19410747559E+02  0.36820929350E+02  0.00000000000E+00 0.  1.
         11    1    4    4    0    0 -0.20130278373E+02  0.16908847487E+02 -0.20555649509E+02  0.33371723925E+02  0.51100000000E-03 0. -1.
        -11    1    4    4    0    0  0.42854662238E+00 -0.17699887182E+01  0.18571336548E+01  0.26010493926E+01  0.51100000000E-03 0.  1.
        -12    1    4    4    0    0 -0.11575449575E+02 -0.14277670240E+02 -0.71223170495E+00  0.18394297332E+02  0.00000000000E+00 0.  1.
</event>
<event>
 8    1  0.1262344E-006  0.9118800E+02  0.7816164E-02  0.1184000E+00
        -11   -1    0    0    0    0  0.00000000000E+00  0.00000000000E+00  0.45593999997E+02  0.45594000000E+02  0.51100000000E-03 0.  1.
         11   -1    0    0    0    0 -0.00000000000E+00 -0.00000000000E+00 -0.45593999997E+02  0.45594000000E+02  0.51100000000E-03 0. -1.
         23    2    1    2    0    0  0.00000000000E+00  0.00000000000E+00 -0.35527136788E-14  0.91188000000E+02  0.91188000000E+02 0.  0.
    9900012    2    3    3    0    0  0.28854395087E+01  0.29282771604E+02  0.22135339329E+02  0.54367085818E+02  0.40000003739E+02 0.  0.
        -12    1    3    3    0    0 -0.28854395087E+01 -0.29282771604E+02 -0.22135339329E+02  0.36820914182E+02  0.00000000000E+00 0.  1.
         11    1    4    4    0    0  0.92879116926E+01  0.20669467192E+02  0.13130085632E+02  0.26189527040E+02  0.51100000000E-03 0. -1.
        -11    1    4    4    0    0 -0.47561759090E+00  0.16341062927E+02  0.26834896901E+01  0.16566763923E+02  0.51100000000E-03 0.  1.
        -12    1    4    4    0    0 -0.59268545930E+01 -0.77277585146E+01  0.63217640066E+01  0.11610794856E+02  0.00000000000E+00 0.  1.
</event>
<event>
 8    1  0.1262344E-006  0.9118800E+02  0.7816164E-02  0.1184000E+00
        -11   -1    0    0    0    0  0.00000000000E+00  0.00000000000E+00  0.45593999997E+02  0.45594000000E+02  0.51100000000E-03 0. -1.
         11   -1    0    0    0    0 -0.00000000000E+00 -0.00000000000E+00 -0.45593999997E+02  0.45594000000E+02  0.51100000000E-03 0.  1.
         23    2    1    2    0    0 -0.44408920985E-15  0.35527136788E-14  0.35527136788E-14  0.91188000000E+02  0.91188000000E+02 0.  0.
    9900012    2    3    3    0    0 -0.95730812598E+00  0.25091336524E+02 -0.26931169681E+02  0.54367088716E+02  0.40000010346E+02 0.  0.
         12    1    3    3    0    0  0.95730812598E+00 -0.25091336524E+02  0.26931169681E+02  0.36820911284E+02  0.00000000000E+00 0. -1.
         11    1    4    4    0    0  0.41569397250E+01 -0.70387906917E+01 -0.60189649695E+01  0.10151485696E+02  0.51100000000E-03 0.  1.
        -11    1    4    4    0    0 -0.49106942506E+01  0.32707706758E+02 -0.24129393184E+02  0.40940647468E+02  0.51100000000E-03 0. -1.
         12    1    4    4    0    0 -0.20355360047E+00 -0.57757954221E+00  0.32171884732E+01  0.32749555520E+01  0.00000000000E+00 0. -1.
</event>
<event>
 8    1  0.1262344E-006  0.9118800E+02  0.7816164E-02  0.1184000E+00
        -11   -1    0    0    0    0  0.00000000000E+00  0.00000000000E+00  0.45593999997E+02  0.45594000000E+02  0.51100000000E-03 0.  1.
         11   -1    0    0    0    0 -0.00000000000E+00 -0.00000000000E+00 -0.45593999997E+02  0.45594000000E+02  0.51100000000E-03 0. -1.
         23    2    1    2    0    0  0.00000000000E+00 -0.71054273576E-14  0.00000000000E+00  0.91188000000E+02  0.91188000000E+02 0.  0.
    9900012    2    3    3    0    0 -0.29830530837E+01  0.35663694273E+02 -0.86595998415E+01  0.54366995610E+02  0.39999798091E+02 0.  0.
        -12    1    3    3    0    0  0.29830530837E+01 -0.35663694273E+02  0.86595998415E+01  0.36821004390E+02  0.00000000000E+00 0.  1.
         11    1    4    4    0    0  0.16285486525E+01  0.63623987996E+01 -0.79766293669E+01  0.10332420119E+02  0.51100000000E-03 0. -1.
        -11    1    4    4    0    0 -0.10858257172E+02 -0.10572660012E+01 -0.62067744773E+01  0.12551637737E+02  0.51100000000E-03 0.  1.
        -12    1    4    4    0    0  0.62466554355E+01  0.30358561475E+02  0.55238040027E+01  0.31482937754E+02  0.00000000000E+00 0.  1.
</event>
<event>
 8    1  0.1262344E-006  0.9118800E+02  0.7816164E-02  0.1184000E+00
        -11   -1    0    0    0    0  0.00000000000E+00  0.00000000000E+00  0.45593999997E+02  0.45594000000E+02  0.51100000000E-03 0.  1.
         11   -1    0    0    0    0 -0.00000000000E+00 -0.00000000000E+00 -0.45593999997E+02  0.45594000000E+02  0.51100000000E-03 0. -1.
         23    2    1    2    0    0  0.88817841970E-15  0.00000000000E+00  0.17763568394E-14  0.91188000000E+02  0.91188000000E+02 0.  0.
    9900012    2    3    3    0    0 -0.11669615151E+01  0.36086966927E+02  0.72214280280E+01  0.54367081978E+02  0.39999994986E+02 0.  0.
         12    1    3    3    0    0  0.11669615151E+01 -0.36086966927E+02 -0.72214280280E+01  0.36820918022E+02  0.00000000000E+00 0. -1.
         11    1    4    4    0    0 -0.64604459505E+01 -0.69639024434E+01  0.26824490209E+00  0.95029076976E+01  0.51100000000E-03 0. -1.
        -11    1    4    4    0    0  0.59230366367E+01  0.13564200777E+02  0.30728079164E+01  0.15116615179E+02  0.51100000000E-03 0.  1.
         12    1    4    4    0    0 -0.62955220122E+00  0.29486668594E+02  0.38803752095E+01  0.29747559102E+02  0.00000000000E+00 0. -1.
</event>
<event>
 8    1  0.1262344E-006  0.9118800E+02  0.7816164E-02  0.1184000E+00
        -11   -1    0    0    0    0  0.00000000000E+00  0.00000000000E+00  0.45593999997E+02  0.45594000000E+02  0.51100000000E-03 0.  1.
         11   -1    0    0    0    0 -0.00000000000E+00 -0.00000000000E+00 -0.45593999997E+02  0.45594000000E+02  0.51100000000E-03 0. -1.
         23    2    1    2    0    0  0.00000000000E+00 -0.71054273576E-14 -0.17763568394E-14  0.91188000000E+02  0.91188000000E+02 0.  0.
    9900012    2    3    3    0    0 -0.79219896451E+01  0.33173059372E+02  0.13876919611E+02  0.54367099876E+02  0.40000035788E+02 0.  0.
         12    1    3    3    0    0  0.79219896451E+01 -0.33173059372E+02 -0.13876919611E+02  0.36820900124E+02  0.00000000000E+00 0. -1.
         11    1    4    4    0    0  0.62556480870E+01  0.24783738535E+02  0.87564916286E+00  0.25576035472E+02  0.51100000000E-03 0. -1.
        -11    1    4    4    0    0  0.23354237884E+01  0.87048337196E+01  0.30812319908E+01  0.95248267806E+01  0.51100000000E-03 0.  1.
        -12    1    4    4    0    0 -0.16513061521E+02 -0.31551288298E+00  0.99200384573E+01  0.19266237623E+02  0.00000000000E+00 0.  1.
</event>
<event>
 8    1  0.1262344E-006  0.9118800E+02  0.7816164E-02  0.1184000E+00
        -11   -1    0    0    0    0  0.00000000000E+00  0.00000000000E+00  0.45593999997E+02  0.45594000000E+02  0.51100000000E-03 0. -1.
         11   -1    0    0    0    0 -0.00000000000E+00 -0.00000000000E+00 -0.45593999997E+02  0.45594000000E+02  0.51100000000E-03 0.  1.
         23    2    1    2    0    0  0.88817841970E-15  0.00000000000E+00 -0.58286708793E-15  0.91188000000E+02  0.91188000000E+02 0.  0.
    9900012    2    3    3    0    0  0.60688250971E+01 -0.36316929732E+02  0.16718101129E+00  0.54367109561E+02  0.40000057867E+02 0.  0.
         12    1    3    3    0    0 -0.60688250971E+01  0.36316929732E+02 -0.16718101129E+00  0.36820890439E+02  0.00000000000E+00 0. -1.
         11    1    4    4    0    0  0.24385508272E+01 -0.41324399635E+01 -0.61608931267E+01  0.78089816601E+01  0.51100000000E-03 0. -1.
        -11    1    4    4    0    0  0.71922063475E+01 -0.27111595462E+02 -0.94561572777E+01  0.29600428229E+02  0.51100000000E-03 0.  1.
         12    1    4    4    0    0 -0.35619320776E+01 -0.50728943063E+01  0.15784231416E+02  0.16957699672E+02  0.00000000000E+00 0. -1.
</event>
<event>
 8    1  0.1262344E-006  0.9118800E+02  0.7816164E-02  0.1184000E+00
        -11   -1    0    0    0    0  0.00000000000E+00  0.00000000000E+00  0.45593999997E+02  0.45594000000E+02  0.51100000000E-03 0.  1.
         11   -1    0    0    0    0 -0.00000000000E+00 -0.00000000000E+00 -0.45593999997E+02  0.45594000000E+02  0.51100000000E-03 0. -1.
         23    2    1    2    0    0  0.35527136788E-14  0.00000000000E+00 -0.35527136788E-14  0.91188000000E+02  0.91188000000E+02 0.  0.
    9900012    2    3    3    0    0 -0.23047655518E+02  0.15027987810E+02  0.24469288929E+02  0.54367069225E+02  0.39999965911E+02 0.  0.
         12    1    3    3    0    0  0.23047655518E+02 -0.15027987810E+02 -0.24469288929E+02  0.36820930775E+02  0.00000000000E+00 0. -1.
         11    1    4    4    0    0 -0.34592158515E+01  0.10713848463E+02  0.17421542308E+01  0.11392445954E+02  0.51100000000E-03 0. -1.
        -11    1    4    4    0    0 -0.94248042680E+01  0.13612084984E+02  0.23982689277E+02  0.29142497805E+02  0.51100000000E-03 0.  1.
         12    1    4    4    0    0 -0.10163635398E+02 -0.92979456373E+01 -0.12555545789E+01  0.13832125465E+02  0.00000000000E+00 0. -1.
</event>
<event>
 8    1  0.1262344E-006  0.9118800E+02  0.7816164E-02  0.1184000E+00
        -11   -1    0    0    0    0  0.00000000000E+00  0.00000000000E+00  0.45593999997E+02  0.45594000000E+02  0.51100000000E-03 0. -1.
         11   -1    0    0    0    0 -0.00000000000E+00 -0.00000000000E+00 -0.45593999997E+02  0.45594000000E+02  0.51100000000E-03 0.  1.
         23    2    1    2    0    0 -0.22204460493E-15  0.10658141036E-13  0.00000000000E+00  0.91188000000E+02  0.91188000000E+02 0.  0.
    9900012    2    3    3    0    0 -0.30314707235E+00 -0.28371180574E+02  0.23468359185E+02  0.54367086538E+02  0.40000005381E+02 0.  0.
        -12    1    3    3    0    0  0.30314707235E+00  0.28371180574E+02 -0.23468359185E+02  0.36820913462E+02  0.00000000000E+00 0.  1.
         11    1    4    4    0    0 -0.60323871172E+01 -0.27186163764E+01  0.39987052417E+01  0.77311197898E+01  0.51100000000E-03 0. -1.
        -11    1    4    4    0    0  0.63768865859E+01  0.71240797832E+01  0.36332214733E+01  0.10228269346E+02  0.51100000000E-03 0.  1.
        -12    1    4    4    0    0 -0.64764654109E+00 -0.32776643981E+02  0.15836432470E+02  0.36407697402E+02  0.00000000000E+00 0.  1.
</event>
<event>
 8    1  0.1262344E-006  0.9118800E+02  0.7816164E-02  0.1184000E+00
        -11   -1    0    0    0    0  0.00000000000E+00  0.00000000000E+00  0.45593999997E+02  0.45594000000E+02  0.51100000000E-03 0.  1.
         11   -1    0    0    0    0 -0.00000000000E+00 -0.00000000000E+00 -0.45593999997E+02  0.45594000000E+02  0.51100000000E-03 0. -1.
         23    2    1    2    0    0  0.00000000000E+00  0.00000000000E+00  0.00000000000E+00  0.91188000000E+02  0.91188000000E+02 0.  0.
    9900012    2    3    3    0    0  0.97135086557E+01 -0.29343503546E+02 -0.20009642046E+02  0.54367092548E+02  0.40000019082E+02 0.  0.
        -12    1    3    3    0    0 -0.97135086557E+01  0.29343503546E+02  0.20009642046E+02  0.36820907452E+02  0.00000000000E+00 0.  1.
         11    1    4    4    0    0  0.83693974232E+01 -0.26385848616E+02 -0.16184236176E+02  0.32065391333E+02  0.51100000000E-03 0. -1.
        -11    1    4    4    0    0 -0.48481361230E+01  0.19317974977E+01 -0.10656298571E+02  0.11865621135E+02  0.51100000000E-03 0.  1.
         12    1    4    4    0    0  0.61922473555E+01 -0.48894524273E+01  0.68308927009E+01  0.10436080080E+02  0.00000000000E+00 0. -1.
</event>
<event>
 8    1  0.1262344E-006  0.9118800E+02  0.7816164E-02  0.1184000E+00
        -11   -1    0    0    0    0  0.00000000000E+00  0.00000000000E+00  0.45593999997E+02  0.45594000000E+02  0.51100000000E-03 0.  1.
         11   -1    0    0    0    0 -0.00000000000E+00 -0.00000000000E+00 -0.45593999997E+02  0.45594000000E+02  0.51100000000E-03 0. -1.
         23    2    1    2    0    0  0.00000000000E+00  0.00000000000E+00  0.00000000000E+00  0.91188000000E+02  0.91188000000E+02 0.  0.
    9900012    2    3    3    0    0 -0.18863096498E+02 -0.17019523593E+02  0.26651428176E+02  0.54367092669E+02  0.40000019359E+02 0.  0.
         12    1    3    3    0    0  0.18863096498E+02  0.17019523593E+02 -0.26651428176E+02  0.36820907331E+02  0.00000000000E+00 0. -1.
         11    1    4    4    0    0 -0.90920485634E+01  0.73126776219E+01  0.22248443212E+02  0.25122377011E+02  0.51100000000E-03 0. -1.
        -11    1    4    4    0    0 -0.96664819640E+01 -0.16366317241E+02  0.78491940040E+01  0.20564704237E+02  0.51100000000E-03 0.  1.
        -12    1    4    4    0    0 -0.10456597019E+00 -0.79658839734E+01 -0.34462090395E+01  0.86800114207E+01  0.00000000000E+00 0.  1.
</event>
<event>
 8    1  0.1262344E-006  0.9118800E+02  0.7816164E-02  0.1184000E+00
        -11   -1    0    0    0    0  0.00000000000E+00  0.00000000000E+00  0.45593999997E+02  0.45594000000E+02  0.51100000000E-03 0.  1.
         11   -1    0    0    0    0 -0.00000000000E+00 -0.00000000000E+00 -0.45593999997E+02  0.45594000000E+02  0.51100000000E-03 0. -1.
         23    2    1    2    0    0  0.00000000000E+00  0.00000000000E+00  0.00000000000E+00  0.91188000000E+02  0.91188000000E+02 0.  0.
    9900012    2    3    3    0    0  0.19006928606E+02  0.18841978587E+02  0.25288282629E+02  0.54367072114E+02  0.39999972498E+02 0.  0.
         12    1    3    3    0    0 -0.19006928606E+02 -0.18841978587E+02 -0.25288282629E+02  0.36820927886E+02  0.00000000000E+00 0. -1.
         11    1    4    4    0    0  0.20730710416E+02  0.15594667948E+02  0.12766680800E+01  0.25972791617E+02  0.51100000000E-03 0. -1.
        -11    1    4    4    0    0  0.16383057544E+01 -0.54694690457E+01  0.75440749190E+01  0.94610889453E+01  0.51100000000E-03 0.  1.
         12    1    4    4    0    0 -0.33620875643E+01  0.87167796848E+01  0.16467539630E+02  0.18933191551E+02  0.00000000000E+00 0. -1.
</event>
<event>
 8    1  0.1262344E-006  0.9118800E+02  0.7816164E-02  0.1184000E+00
        -11   -1    0    0    0    0  0.00000000000E+00  0.00000000000E+00  0.45593999997E+02  0.45594000000E+02  0.51100000000E-03 0.  1.
         11   -1    0    0    0    0 -0.00000000000E+00 -0.00000000000E+00 -0.45593999997E+02  0.45594000000E+02  0.51100000000E-03 0. -1.
         23    2    1    2    0    0  0.00000000000E+00  0.00000000000E+00 -0.88817841970E-15  0.91188000000E+02  0.91188000000E+02 0.  0.
    9900012    2    3    3    0    0  0.36021804839E+02 -0.44357657800E+01 -0.62074088715E+01  0.54367104209E+02  0.40000045666E+02 0.  0.
         12    1    3    3    0    0 -0.36021804839E+02  0.44357657800E+01  0.62074088715E+01  0.36820895791E+02  0.00000000000E+00 0. -1.
         11    1    4    4    0    0  0.19885822276E+01 -0.12151731993E+02 -0.10653963355E+02  0.16282689739E+02  0.51100000000E-03 0. -1.
        -11    1    4    4    0    0  0.24182750341E+02  0.78003056826E+01 -0.32050763886E+01  0.25610987832E+02  0.51100000000E-03 0.  1.
        -12    1    4    4    0    0  0.98504722708E+01 -0.84339469874E-01  0.76516308725E+01  0.12473426639E+02  0.00000000000E+00 0.  1.
</event>
<event>
 8    1  0.1262344E-006  0.9118800E+02  0.7816164E-02  0.1184000E+00
        -11   -1    0    0    0    0  0.00000000000E+00  0.00000000000E+00  0.45593999997E+02  0.45594000000E+02  0.51100000000E-03 0.  1.
         11   -1    0    0    0    0 -0.00000000000E+00 -0.00000000000E+00 -0.45593999997E+02  0.45594000000E+02  0.51100000000E-03 0. -1.
         23    2    1    2    0    0  0.00000000000E+00  0.00000000000E+00  0.17763568394E-14  0.91188000000E+02  0.91188000000E+02 0.  0.
    9900012    2    3    3    0    0  0.26394283709E+02 -0.23532125425E+02  0.10264471571E+02  0.54367102181E+02  0.40000041043E+02 0.  0.
        -12    1    3    3    0    0 -0.26394283709E+02  0.23532125425E+02 -0.10264471571E+02  0.36820897819E+02  0.00000000000E+00 0.  1.
         11    1    4    4    0    0  0.94673884193E+01 -0.17936079695E+02  0.55404594313E+01  0.21024535412E+02  0.51100000000E-03 0. -1.
        -11    1    4    4    0    0  0.14501310196E+02  0.96294642192E+01  0.42458676879E+01  0.17917644132E+02  0.51100000000E-03 0.  1.
        -12    1    4    4    0    0  0.24255850934E+01 -0.15225509949E+02  0.47814445198E+00  0.15424922637E+02  0.00000000000E+00 0.  1.
</event>
<event>
 8    1  0.1262344E-006  0.9118800E+02  0.7816164E-02  0.1184000E+00
        -11   -1    0    0    0    0  0.00000000000E+00  0.00000000000E+00  0.45593999997E+02  0.45594000000E+02  0.51100000000E-03 0. -1.
         11   -1    0    0    0    0 -0.00000000000E+00 -0.00000000000E+00 -0.45593999997E+02  0.45594000000E+02  0.51100000000E-03 0.  1.
         23    2    1    2    0    0 -0.35527136788E-14  0.88817841970E-15  0.35527136788E-14  0.91188000000E+02  0.91188000000E+02 0.  0.
    9900012    2    3    3    0    0  0.20336497899E+02 -0.54083504759E+01 -0.30215161096E+02  0.54367090699E+02  0.40000014867E+02 0.  0.
         12    1    3    3    0    0 -0.20336497899E+02  0.54083504759E+01  0.30215161096E+02  0.36820909301E+02  0.00000000000E+00 0. -1.
         11    1    4    4    0    0  0.24984621094E+00 -0.48629433589E+01 -0.44448018321E+01  0.65929435632E+01  0.51100000000E-03 0. -1.
        -11    1    4    4    0    0  0.12963206925E+02 -0.10710902774E+02 -0.30223562292E+02  0.34586585403E+02  0.51100000000E-03 0.  1.
         12    1    4    4    0    0  0.71234447633E+01  0.10165495657E+02  0.44532030277E+01  0.13187561733E+02  0.00000000000E+00 0. -1.
</event>
<event>
 8    1  0.1262344E-006  0.9118800E+02  0.7816164E-02  0.1184000E+00
        -11   -1    0    0    0    0  0.00000000000E+00  0.00000000000E+00  0.45593999997E+02  0.45594000000E+02  0.51100000000E-03 0.  1.
         11   -1    0    0    0    0 -0.00000000000E+00 -0.00000000000E+00 -0.45593999997E+02  0.45594000000E+02  0.51100000000E-03 0. -1.
         23    2    1    2    0    0 -0.88817841970E-15  0.00000000000E+00  0.00000000000E+00  0.91188000000E+02  0.91188000000E+02 0.  0.
    9900012    2    3    3    0    0  0.53127686339E+01  0.17222441844E+02 -0.32108272405E+02  0.54367093296E+02  0.40000020788E+02 0.  0.
        -12    1    3    3    0    0 -0.53127686339E+01 -0.17222441844E+02  0.32108272405E+02  0.36820906704E+02  0.00000000000E+00 0.  1.
         11    1    4    4    0    0  0.82899857235E+01  0.14603970286E+01 -0.12527179344E+02  0.15092608965E+02  0.51100000000E-03 0.  1.
        -11    1    4    4    0    0 -0.12322997258E+02 -0.16113665613E+01 -0.14108909685E+02  0.18801970546E+02  0.51100000000E-03 0. -1.
        -12    1    4    4    0    0  0.93457801687E+01  0.17373411377E+02 -0.54721833756E+01  0.20472513786E+02  0.00000000000E+00 0.  1.
</event>
<event>
 8    1  0.1262344E-006  0.9118800E+02  0.7816164E-02  0.1184000E+00
        -11   -1    0    0    0    0  0.00000000000E+00  0.00000000000E+00  0.45593999997E+02  0.45594000000E+02  0.51100000000E-03 0. -1.
         11   -1    0    0    0    0 -0.00000000000E+00 -0.00000000000E+00 -0.45593999997E+02  0.45594000000E+02  0.51100000000E-03 0.  1.
         23    2    1    2    0    0  0.00000000000E+00  0.35527136788E-14 -0.44408920985E-15  0.91188000000E+02  0.91188000000E+02 0.  0.
    9900012    2    3    3    0    0  0.28055692909E+02 -0.23729140184E+02 -0.23642504913E+01  0.54367032076E+02  0.39999881224E+02 0.  0.
        -12    1    3    3    0    0 -0.28055692909E+02  0.23729140184E+02  0.23642504913E+01  0.36820967924E+02  0.00000000000E+00 0.  1.
         11    1    4    4    0    0  0.23271750775E+02 -0.21552411757E+02  0.11823745299E+02  0.33850875762E+02  0.51100000000E-03 0. -1.
        -11    1    4    4    0    0 -0.11621734611E+00  0.50239993916E+01 -0.91896883733E+01  0.10473989164E+02  0.51100000000E-03 0.  1.
         12    1    4    4    0    0  0.49001594801E+01 -0.72007278181E+01 -0.49983074170E+01  0.10042167150E+02  0.00000000000E+00 0. -1.
</event>
<event>
 8    1  0.1262344E-006  0.9118800E+02  0.7816164E-02  0.1184000E+00
        -11   -1    0    0    0    0  0.00000000000E+00  0.00000000000E+00  0.45593999997E+02  0.45594000000E+02  0.51100000000E-03 0. -1.
         11   -1    0    0    0    0 -0.00000000000E+00 -0.00000000000E+00 -0.45593999997E+02  0.45594000000E+02  0.51100000000E-03 0.  1.
         23    2    1    2    0    0  0.00000000000E+00  0.00000000000E+00 -0.88817841970E-15  0.91188000000E+02  0.91188000000E+02 0.  0.
    9900012    2    3    3    0    0 -0.31158463023E+02 -0.17981884804E+02  0.78473737005E+01  0.54367091903E+02  0.40000017611E+02 0.  0.
        -12    1    3    3    0    0  0.31158463023E+02  0.17981884804E+02 -0.78473737005E+01  0.36820908097E+02  0.00000000000E+00 0.  1.
         11    1    4    4    0    0 -0.22715137181E+02  0.19438013640E+01  0.88085602678E+01  0.24440674196E+02  0.51100000000E-03 0. -1.
        -11    1    4    4    0    0 -0.12718256949E+01 -0.25409207614E+01  0.84372273601E+01  0.89028436300E+01  0.51100000000E-03 0.  1.
        -12    1    4    4    0    0 -0.71715001471E+01 -0.17384765407E+02 -0.93984139274E+01  0.21023574077E+02  0.00000000000E+00 0.  1.
</event>
<event>
 8    1  0.1262344E-006  0.9118800E+02  0.7816164E-02  0.1184000E+00
        -11   -1    0    0    0    0  0.00000000000E+00  0.00000000000E+00  0.45593999997E+02  0.45594000000E+02  0.51100000000E-03 0.  1.
         11   -1    0    0    0    0 -0.00000000000E+00 -0.00000000000E+00 -0.45593999997E+02  0.45594000000E+02  0.51100000000E-03 0. -1.
         23    2    1    2    0    0  0.17763568394E-14 -0.17763568394E-14  0.00000000000E+00  0.91188000000E+02  0.91188000000E+02 0.  0.
    9900012    2    3    3    0    0  0.10625162842E+02  0.50191595506E+01  0.34895478384E+02  0.54367075790E+02  0.39999980879E+02 0.  0.
         12    1    3    3    0    0 -0.10625162842E+02 -0.50191595506E+01 -0.34895478384E+02  0.36820924210E+02  0.00000000000E+00 0. -1.
         11    1    4    4    0    0  0.37963088755E+01  0.14682497641E+01 -0.30546031706E+01  0.50890391273E+01  0.51100000000E-03 0. -1.
        -11    1    4    4    0    0  0.80650524604E+01  0.16341103985E+02  0.25852565826E+02  0.31629604972E+02  0.51100000000E-03 0.  1.
         12    1    4    4    0    0 -0.12361984937E+01 -0.12790194199E+02  0.12097515729E+02  0.17648431691E+02  0.00000000000E+00 0. -1.
</event>
<event>
 8    1  0.1262344E-006  0.9118800E+02  0.7816164E-02  0.1184000E+00
        -11   -1    0    0    0    0  0.00000000000E+00  0.00000000000E+00  0.45593999997E+02  0.45594000000E+02  0.51100000000E-03 0.  1.
         11   -1    0    0    0    0 -0.00000000000E+00 -0.00000000000E+00 -0.45593999997E+02  0.45594000000E+02  0.51100000000E-03 0. -1.
         23    2    1    2    0    0  0.00000000000E+00  0.00000000000E+00  0.44408920985E-15  0.91188000000E+02  0.91188000000E+02 0.  0.
    9900012    2    3    3    0    0 -0.14702380995E+02  0.33659462806E+02 -0.25808133336E+01  0.54367081479E+02  0.39999993847E+02 0.  0.
        -12    1    3    3    0    0  0.14702380995E+02 -0.33659462806E+02  0.25808133336E+01  0.36820918521E+02  0.00000000000E+00 0.  1.
         11    1    4    4    0    0 -0.15015284300E+02  0.34650483011E+02 -0.18306831160E+01  0.37808281321E+02  0.51100000000E-03 0. -1.
        -11    1    4    4    0    0  0.75334598173E+01 -0.19813307499E+01  0.30183751311E+01  0.83539976689E+01  0.51100000000E-03 0.  1.
        -12    1    4    4    0    0 -0.72205565118E+01  0.99031054440E+00 -0.37685053488E+01  0.82048024887E+01  0.00000000000E+00 0.  1.
</event>
<event>
 8    1  0.1262344E-006  0.9118800E+02  0.7816164E-02  0.1184000E+00
        -11   -1    0    0    0    0  0.00000000000E+00  0.00000000000E+00  0.45593999997E+02  0.45594000000E+02  0.51100000000E-03 0.  1.
         11   -1    0    0    0    0 -0.00000000000E+00 -0.00000000000E+00 -0.45593999997E+02  0.45594000000E+02  0.51100000000E-03 0. -1.
         23    2    1    2    0    0  0.00000000000E+00  0.35527136788E-14  0.00000000000E+00  0.91188000000E+02  0.91188000000E+02 0.  0.
    9900012    2    3    3    0    0  0.21697974142E+02  0.22651889442E+02 -0.19283963308E+02  0.54367062777E+02  0.39999951212E+02 0.  0.
        -12    1    3    3    0    0 -0.21697974142E+02 -0.22651889442E+02  0.19283963308E+02  0.36820937223E+02  0.00000000000E+00 0.  1.
         11    1    4    4    0    0  0.11536292128E+02 -0.11709965807E+01 -0.96779679446E+01  0.15103652964E+02  0.51100000000E-03 0. -1.
        -11    1    4    4    0    0 -0.55599037083E-01  0.10411852161E+02  0.92796383391E+01  0.13947094487E+02  0.51100000000E-03 0.  1.
         12    1    4    4    0    0  0.10217281051E+02  0.13411033862E+02 -0.18885633702E+02  0.25316315325E+02  0.00000000000E+00 0. -1.
</event>
<event>
 8    1  0.1262344E-006  0.9118800E+02  0.7816164E-02  0.1184000E+00
        -11   -1    0    0    0    0  0.00000000000E+00  0.00000000000E+00  0.45593999997E+02  0.45594000000E+02  0.51100000000E-03 0.  1.
         11   -1    0    0    0    0 -0.00000000000E+00 -0.00000000000E+00 -0.45593999997E+02  0.45594000000E+02  0.51100000000E-03 0. -1.
         23    2    1    2    0    0  0.11102230246E-14 -0.71054273576E-14 -0.17763568394E-14  0.91188000000E+02  0.91188000000E+02 0.  0.
    9900012    2    3    3    0    0  0.18225956550E+00  0.34399004441E+02  0.13132218981E+02  0.54367083384E+02  0.39999998190E+02 0.  0.
        -12    1    3    3    0    0 -0.18225956550E+00 -0.34399004441E+02 -0.13132218981E+02  0.36820916616E+02  0.00000000000E+00 0.  1.
         11    1    4    4    0    0 -0.72242291386E+01  0.12971729874E+02 -0.40916560767E+01  0.15401198404E+02  0.51100000000E-03 0. -1.
        -11    1    4    4    0    0 -0.97466789486E+01  0.10362612473E+02  0.96669066802E+01  0.17199725952E+02  0.51100000000E-03 0.  1.
        -12    1    4    4    0    0  0.17153167653E+02  0.11064662095E+02  0.75569683775E+01  0.21766159028E+02  0.00000000000E+00 0.  1.
</event>
<event>
 8    1  0.1262344E-006  0.9118800E+02  0.7816164E-02  0.1184000E+00
        -11   -1    0    0    0    0  0.00000000000E+00  0.00000000000E+00  0.45593999997E+02  0.45594000000E+02  0.51100000000E-03 0.  1.
         11   -1    0    0    0    0 -0.00000000000E+00 -0.00000000000E+00 -0.45593999997E+02  0.45594000000E+02  0.51100000000E-03 0. -1.
         23    2    1    2    0    0  0.00000000000E+00 -0.35527136788E-14  0.22204460493E-15  0.91188000000E+02  0.91188000000E+02 0.  0.
    9900012    2    3    3    0    0 -0.26433981122E+02  0.25583091245E+02  0.15903805565E+01  0.54367092544E+02  0.40000019072E+02 0.  0.
         12    1    3    3    0    0  0.26433981122E+02 -0.25583091245E+02 -0.15903805565E+01  0.36820907456E+02  0.00000000000E+00 0. -1.
         11    1    4    4    0    0 -0.60836360793E+01  0.35217480191E+01 -0.74789553492E+01  0.10263922760E+02  0.51100000000E-03 0. -1.
        -11    1    4    4    0    0 -0.93921509522E+01  0.12012765658E+02 -0.11232667727E+02  0.18939162146E+02  0.51100000000E-03 0.  1.
         12    1    4    4    0    0 -0.10958194090E+02  0.10048577567E+02  0.20302003633E+02  0.25164007637E+02  0.00000000000E+00 0. -1.
</event>
<event>
 8    1  0.1262344E-006  0.9118800E+02  0.7816164E-02  0.1184000E+00
        -11   -1    0    0    0    0  0.00000000000E+00  0.00000000000E+00  0.45593999997E+02  0.45594000000E+02  0.51100000000E-03 0. -1.
         11   -1    0    0    0    0 -0.00000000000E+00 -0.00000000000E+00 -0.45593999997E+02  0.45594000000E+02  0.51100000000E-03 0.  1.
         23    2    1    2    0    0 -0.88817841970E-15  0.00000000000E+00  0.35527136788E-14  0.91188000000E+02  0.91188000000E+02 0.  0.
    9900012    2    3    3    0    0  0.46463498994E+01  0.32509989912E+02  0.16652081883E+02  0.54367084171E+02  0.39999999984E+02 0.  0.
        -12    1    3    3    0    0 -0.46463498994E+01 -0.32509989912E+02 -0.16652081883E+02  0.36820915829E+02  0.00000000000E+00 0.  1.
         11    1    4    4    0    0 -0.20236500672E+01  0.65460475387E+01 -0.84615463428E+01  0.10887775932E+02  0.51100000000E-03 0. -1.
        -11    1    4    4    0    0 -0.82542707980E+01  0.48458724062E+01  0.79464717393E+01  0.12440332759E+02  0.51100000000E-03 0.  1.
         12    1    4    4    0    0  0.14924270765E+02  0.21118069967E+02  0.17167156487E+02  0.31038975480E+02  0.00000000000E+00 0. -1.
</event>
<event>
 8    1  0.1262344E-006  0.9118800E+02  0.7816164E-02  0.1184000E+00
        -11   -1    0    0    0    0  0.00000000000E+00  0.00000000000E+00  0.45593999997E+02  0.45594000000E+02  0.51100000000E-03 0.  1.
         11   -1    0    0    0    0 -0.00000000000E+00 -0.00000000000E+00 -0.45593999997E+02  0.45594000000E+02  0.51100000000E-03 0. -1.
         23    2    1    2    0    0 -0.35527136788E-14 -0.17763568394E-14  0.00000000000E+00  0.91188000000E+02  0.91188000000E+02 0.  0.
    9900012    2    3    3    0    0 -0.25768576633E+02 -0.13192572991E+02  0.22753373764E+02  0.54367088258E+02  0.40000009302E+02 0.  0.
         12    1    3    3    0    0  0.25768576633E+02  0.13192572991E+02 -0.22753373764E+02  0.36820911742E+02  0.00000000000E+00 0. -1.
         11    1    4    4    0    0 -0.37030523346E+01 -0.20065660448E+02  0.98337292931E+01  0.22650508998E+02  0.51100000000E-03 0.  1.
        -11    1    4    4    0    0 -0.16129720349E+01  0.18706074873E+01  0.10189826944E+02  0.10484914142E+02  0.51100000000E-03 0. -1.
         12    1    4    4    0    0 -0.20452552264E+02  0.50024799690E+01  0.27298175270E+01  0.21231665118E+02  0.00000000000E+00 0. -1.
</event>
<event>
 8    1  0.1262344E-006  0.9118800E+02  0.7816164E-02  0.1184000E+00
        -11   -1    0    0    0    0  0.00000000000E+00  0.00000000000E+00  0.45593999997E+02  0.45594000000E+02  0.51100000000E-03 0.  1.
         11   -1    0    0    0    0 -0.00000000000E+00 -0.00000000000E+00 -0.45593999997E+02  0.45594000000E+02  0.51100000000E-03 0. -1.
         23    2    1    2    0    0  0.00000000000E+00 -0.88817841970E-15 -0.17763568394E-14  0.91188000000E+02  0.91188000000E+02 0.  0.
    9900012    2    3    3    0    0 -0.36033699718E+02 -0.32727994201E+01  0.68293946131E+01  0.54367090693E+02  0.40000014853E+02 0.  0.
        -12    1    3    3    0    0  0.36033699718E+02  0.32727994201E+01 -0.68293946131E+01  0.36820909307E+02  0.00000000000E+00 0.  1.
         11    1    4    4    0    0 -0.91707541112E+01  0.76973731076E+00  0.42769681961E+01  0.10148284767E+02  0.51100000000E-03 0. -1.
        -11    1    4    4    0    0 -0.31996148645E+02 -0.10646521885E+02  0.74388824716E+01  0.34531709038E+02  0.51100000000E-03 0.  1.
         12    1    4    4    0    0  0.51332030386E+01  0.66039851543E+01 -0.48864560546E+01  0.96870968885E+01  0.00000000000E+00 0. -1.
</event>
<event>
 8    1  0.1262344E-006  0.9118800E+02  0.7816164E-02  0.1184000E+00
        -11   -1    0    0    0    0  0.00000000000E+00  0.00000000000E+00  0.45593999997E+02  0.45594000000E+02  0.51100000000E-03 0. -1.
         11   -1    0    0    0    0 -0.00000000000E+00 -0.00000000000E+00 -0.45593999997E+02  0.45594000000E+02  0.51100000000E-03 0.  1.
         23    2    1    2    0    0  0.71054273576E-14  0.88817841970E-15  0.00000000000E+00  0.91188000000E+02  0.91188000000E+02 0.  0.
    9900012    2    3    3    0    0  0.22533922383E+02  0.45862931614E+01  0.28757058927E+02  0.54367079574E+02  0.39999989504E+02 0.  0.
        -12    1    3    3    0    0 -0.22533922383E+02 -0.45862931614E+01 -0.28757058927E+02  0.36820920426E+02  0.00000000000E+00 0.  1.
         11    1    4    4    0    0  0.23761101504E+02  0.34503822871E+01  0.27871363235E+02  0.36787334389E+02  0.51100000000E-03 0. -1.
        -11    1    4    4    0    0 -0.11575423039E+01 -0.32052692370E+01  0.83085864625E+01  0.89803265160E+01  0.51100000000E-03 0.  1.
        -12    1    4    4    0    0 -0.69636816810E-01  0.43411801113E+01 -0.74228907711E+01  0.85994186689E+01  0.00000000000E+00 0.  1.
</event>
<event>
 8    1  0.1262344E-006  0.9118800E+02  0.7816164E-02  0.1184000E+00
        -11   -1    0    0    0    0  0.00000000000E+00  0.00000000000E+00  0.45593999997E+02  0.45594000000E+02  0.51100000000E-03 0. -1.
         11   -1    0    0    0    0 -0.00000000000E+00 -0.00000000000E+00 -0.45593999997E+02  0.45594000000E+02  0.51100000000E-03 0.  1.
         23    2    1    2    0    0  0.35527136788E-14  0.00000000000E+00 -0.35527136788E-14  0.91188000000E+02  0.91188000000E+02 0.  0.
    9900012    2    3    3    0    0  0.27335508283E+02  0.18115456190E+01 -0.24602190338E+02  0.54367089093E+02  0.40000011205E+02 0.  0.
         12    1    3    3    0    0 -0.27335508283E+02 -0.18115456190E+01  0.24602190338E+02  0.36820910907E+02  0.00000000000E+00 0. -1.
         11    1    4    4    0    0  0.60035292084E+01 -0.44720897887E+01 -0.17369314421E+02  0.18913884682E+02  0.51100000000E-03 0.  1.
        -11    1    4    4    0    0  0.14163838090E+02  0.12197823374E+02  0.56870782730E+01  0.19538271777E+02  0.51100000000E-03 0. -1.
        -12    1    4    4    0    0  0.71681409843E+01 -0.59141879660E+01 -0.12919954189E+02  0.15914932633E+02  0.00000000000E+00 0.  1.
</event>
<event>
 8    1  0.1262344E-006  0.9118800E+02  0.7816164E-02  0.1184000E+00
        -11   -1    0    0    0    0  0.00000000000E+00  0.00000000000E+00  0.45593999997E+02  0.45594000000E+02  0.51100000000E-03 0. -1.
         11   -1    0    0    0    0 -0.00000000000E+00 -0.00000000000E+00 -0.45593999997E+02  0.45594000000E+02  0.51100000000E-03 0.  1.
         23    2    1    2    0    0  0.00000000000E+00  0.88817841970E-15  0.00000000000E+00  0.91188000000E+02  0.91188000000E+02 0.  0.
    9900012    2    3    3    0    0 -0.30702894158E+02  0.21843298767E+01  0.20207453381E+02  0.54367079604E+02  0.39999989573E+02 0.  0.
        -12    1    3    3    0    0  0.30702894158E+02 -0.21843298767E+01 -0.20207453381E+02  0.36820920396E+02  0.00000000000E+00 0.  1.
         11    1    4    4    0    0 -0.13339106451E+02  0.83997811286E+01  0.13293909049E+02  0.20620768705E+02  0.51100000000E-03 0. -1.
        -11    1    4    4    0    0 -0.22678852545E+02 -0.25648646798E+01  0.11764736842E+02  0.25677186700E+02  0.51100000000E-03 0.  1.
         12    1    4    4    0    0  0.53150648387E+01 -0.36505865721E+01 -0.48511925102E+01  0.80691241985E+01  0.00000000000E+00 0. -1.
</event>
<event>
 8    1  0.1262344E-006  0.9118800E+02  0.7816164E-02  0.1184000E+00
        -11   -1    0    0    0    0  0.00000000000E+00  0.00000000000E+00  0.45593999997E+02  0.45594000000E+02  0.51100000000E-03 0.  1.
         11   -1    0    0    0    0 -0.00000000000E+00 -0.00000000000E+00 -0.45593999997E+02  0.45594000000E+02  0.51100000000E-03 0. -1.
         23    2    1    2    0    0  0.00000000000E+00 -0.35527136788E-14 -0.17763568394E-14  0.91188000000E+02  0.91188000000E+02 0.  0.
    9900012    2    3    3    0    0 -0.19738150392E+02  0.28729677147E+02 -0.11865563970E+02  0.54367074724E+02  0.39999978448E+02 0.  0.
        -12    1    3    3    0    0  0.19738150392E+02 -0.28729677147E+02  0.11865563970E+02  0.36820925276E+02  0.00000000000E+00 0.  1.
         11    1    4    4    0    0  0.14109347615E+01 -0.53500456141E+01  0.14109200966E+01  0.57100280870E+01  0.51100000000E-03 0.  1.
        -11    1    4    4    0    0 -0.20170288531E+02  0.11047425504E+02 -0.22640800023E+01  0.23108704166E+02  0.51100000000E-03 0. -1.
        -12    1    4    4    0    0 -0.97879662242E+00  0.23032297257E+02 -0.11012404065E+02  0.25548342471E+02  0.00000000000E+00 0.  1.
</event>
<event>
 8    1  0.1262344E-006  0.9118800E+02  0.7816164E-02  0.1184000E+00
        -11   -1    0    0    0    0  0.00000000000E+00  0.00000000000E+00  0.45593999997E+02  0.45594000000E+02  0.51100000000E-03 0.  1.
         11   -1    0    0    0    0 -0.00000000000E+00 -0.00000000000E+00 -0.45593999997E+02  0.45594000000E+02  0.51100000000E-03 0. -1.
         23    2    1    2    0    0  0.00000000000E+00  0.00000000000E+00  0.00000000000E+00  0.91188000000E+02  0.91188000000E+02 0.  0.
    9900012    2    3    3    0    0 -0.79409952813E+01 -0.28326075457E+02 -0.22143944332E+02  0.54367078944E+02  0.39999988069E+02 0.  0.
        -12    1    3    3    0    0  0.79409952813E+01  0.28326075457E+02  0.22143944332E+02  0.36820921056E+02  0.00000000000E+00 0.  1.
         11    1    4    4    0    0  0.18053668638E+01 -0.10180509153E+02 -0.19363965475E+02  0.21951429915E+02  0.51100000000E-03 0. -1.
        -11    1    4    4    0    0 -0.98660848686E+01 -0.10276398364E+01 -0.97720465715E+01  0.13924387553E+02  0.51100000000E-03 0.  1.
        -12    1    4    4    0    0  0.11972272352E+00 -0.17117926467E+02  0.69920677150E+01  0.18491261476E+02  0.00000000000E+00 0.  1.
</event>
<event>
 8    1  0.1262344E-006  0.9118800E+02  0.7816164E-02  0.1184000E+00
        -11   -1    0    0    0    0  0.00000000000E+00  0.00000000000E+00  0.45593999997E+02  0.45594000000E+02  0.51100000000E-03 0.  1.
         11   -1    0    0    0    0 -0.00000000000E+00 -0.00000000000E+00 -0.45593999997E+02  0.45594000000E+02  0.51100000000E-03 0. -1.
         23    2    1    2    0    0  0.00000000000E+00 -0.35527136788E-14  0.88817841970E-15  0.91188000000E+02  0.91188000000E+02 0.  0.
    9900012    2    3    3    0    0  0.18262852112E+02 -0.30986421417E+02  0.78796646152E+01  0.54367092978E+02  0.40000020061E+02 0.  0.
         12    1    3    3    0    0 -0.18262852112E+02  0.30986421417E+02 -0.78796646152E+01  0.36820907022E+02  0.00000000000E+00 0. -1.
         11    1    4    4    0    0  0.38155371078E+01 -0.96005438748E+01 -0.80003936260E+01  0.13066562844E+02  0.51100000000E-03 0. -1.
        -11    1    4    4    0    0  0.97531008680E+01  0.50768836190E+01  0.24900395519E+01  0.11273775812E+02  0.51100000000E-03 0.  1.
        -12    1    4    4    0    0  0.46942141362E+01 -0.26462761161E+02  0.13390018689E+02  0.30026754322E+02  0.00000000000E+00 0.  1.
</event>
<event>
 8    1  0.1262344E-006  0.9118800E+02  0.7816164E-02  0.1184000E+00
        -11   -1    0    0    0    0  0.00000000000E+00  0.00000000000E+00  0.45593999997E+02  0.45594000000E+02  0.51100000000E-03 0. -1.
         11   -1    0    0    0    0 -0.00000000000E+00 -0.00000000000E+00 -0.45593999997E+02  0.45594000000E+02  0.51100000000E-03 0.  1.
         23    2    1    2    0    0  0.00000000000E+00  0.00000000000E+00  0.35527136788E-14  0.91188000000E+02  0.91188000000E+02 0.  0.
    9900012    2    3    3    0    0 -0.15969953670E+02  0.11791421197E+02  0.31011332555E+02  0.54367085007E+02  0.40000001891E+02 0.  0.
        -12    1    3    3    0    0  0.15969953670E+02 -0.11791421197E+02 -0.31011332555E+02  0.36820914993E+02  0.00000000000E+00 0.  1.
         11    1    4    4    0    0 -0.22038147736E+01  0.13237813878E+02  0.11060971994E+01  0.13465510280E+02  0.51100000000E-03 0.  1.
        -11    1    4    4    0    0 -0.53529018171E+01  0.82476833999E+01  0.17889336434E+01  0.99939043006E+01  0.51100000000E-03 0. -1.
         12    1    4    4    0    0 -0.84132370798E+01 -0.96940760810E+01  0.28116301712E+02  0.30907670426E+02  0.00000000000E+00 0. -1.
</event>
<event>
 8    1  0.1262344E-006  0.9118800E+02  0.7816164E-02  0.1184000E+00
        -11   -1    0    0    0    0  0.00000000000E+00  0.00000000000E+00  0.45593999997E+02  0.45594000000E+02  0.51100000000E-03 0.  1.
         11   -1    0    0    0    0 -0.00000000000E+00 -0.00000000000E+00 -0.45593999997E+02  0.45594000000E+02  0.51100000000E-03 0. -1.
         23    2    1    2    0    0  0.00000000000E+00 -0.35527136788E-14 -0.35527136788E-14  0.91188000000E+02  0.91188000000E+02 0.  0.
    9900012    2    3    3    0    0  0.12722349134E+02 -0.25645019695E+02 -0.23157165759E+02  0.54367088433E+02  0.40000009701E+02 0.  0.
        -12    1    3    3    0    0 -0.12722349134E+02  0.25645019695E+02  0.23157165759E+02  0.36820911567E+02  0.00000000000E+00 0.  1.
         11    1    4    4    0    0  0.16945154697E+02 -0.17379226011E+02 -0.93176017357E+01  0.25999874361E+02  0.51100000000E-03 0. -1.
        -11    1    4    4    0    0  0.89517377319E-01 -0.30087105847E+01  0.63695120039E+01  0.70449298202E+01  0.51100000000E-03 0.  1.
        -12    1    4    4    0    0 -0.43123229400E+01 -0.52570830990E+01 -0.20209076027E+02  0.21322284252E+02  0.00000000000E+00 0.  1.
</event>
<event>
 8    1  0.1262344E-006  0.9118800E+02  0.7816164E-02  0.1184000E+00
        -11   -1    0    0    0    0  0.00000000000E+00  0.00000000000E+00  0.45593999997E+02  0.45594000000E+02  0.51100000000E-03 0.  1.
         11   -1    0    0    0    0 -0.00000000000E+00 -0.00000000000E+00 -0.45593999997E+02  0.45594000000E+02  0.51100000000E-03 0. -1.
         23    2    1    2    0    0  0.17763568394E-14  0.00000000000E+00  0.35527136788E-14  0.91188000000E+02  0.91188000000E+02 0.  0.
    9900012    2    3    3    0    0 -0.13902062904E+02 -0.18800939709E+02 -0.28443498264E+02  0.54367146121E+02  0.40000141211E+02 0.  0.
        -12    1    3    3    0    0  0.13902062904E+02  0.18800939709E+02  0.28443498264E+02  0.36820853879E+02  0.00000000000E+00 0.  1.
         11    1    4    4    0    0 -0.64338525777E+01 -0.12293469729E+02 -0.13787972382E+02  0.19560982584E+02  0.51100000000E-03 0. -1.
        -11    1    4    4    0    0 -0.15246952745E+02 -0.27084553265E+01 -0.19488243512E+02  0.24891704114E+02  0.51100000000E-03 0.  1.
         12    1    4    4    0    0  0.77787424189E+01 -0.37990146533E+01  0.48327176302E+01  0.99144594229E+01  0.00000000000E+00 0. -1.
</event>
<event>
 8    1  0.1262344E-006  0.9118800E+02  0.7816164E-02  0.1184000E+00
        -11   -1    0    0    0    0  0.00000000000E+00  0.00000000000E+00  0.45593999997E+02  0.45594000000E+02  0.51100000000E-03 0.  1.
         11   -1    0    0    0    0 -0.00000000000E+00 -0.00000000000E+00 -0.45593999997E+02  0.45594000000E+02  0.51100000000E-03 0. -1.
         23    2    1    2    0    0  0.17763568394E-14  0.00000000000E+00 -0.22204460493E-15  0.91188000000E+02  0.91188000000E+02 0.  0.
    9900012    2    3    3    0    0  0.93880930407E+01  0.35561774619E+02  0.17332354439E+01  0.54367079179E+02  0.39999988604E+02 0.  0.
        -12    1    3    3    0    0 -0.93880930407E+01 -0.35561774619E+02 -0.17332354439E+01  0.36820920821E+02  0.00000000000E+00 0.  1.
         11    1    4    4    0    0 -0.81493363354E+01  0.66681147521E+01  0.59684238857E+01  0.12103616030E+02  0.51100000000E-03 0. -1.
        -11    1    4    4    0    0 -0.53503290239E+01  0.29628776302E+01 -0.46356320229E+01  0.76742262820E+01  0.51100000000E-03 0.  1.
        -12    1    4    4    0    0  0.22887758400E+02  0.25930782237E+02  0.40044358101E+00  0.34589236867E+02  0.00000000000E+00 0.  1.
</event>
<event>
 8    1  0.1262344E-006  0.9118800E+02  0.7816164E-02  0.1184000E+00
        -11   -1    0    0    0    0  0.00000000000E+00  0.00000000000E+00  0.45593999997E+02  0.45594000000E+02  0.51100000000E-03 0.  1.
         11   -1    0    0    0    0 -0.00000000000E+00 -0.00000000000E+00 -0.45593999997E+02  0.45594000000E+02  0.51100000000E-03 0. -1.
         23    2    1    2    0    0  0.00000000000E+00  0.17763568394E-14  0.71054273576E-14  0.91188000000E+02  0.91188000000E+02 0.  0.
    9900012    2    3    3    0    0  0.43428552947E+01  0.11775239215E+02 -0.34616009402E+02  0.54367017427E+02  0.39999847829E+02 0.  0.
        -12    1    3    3    0    0 -0.43428552947E+01 -0.11775239215E+02  0.34616009402E+02  0.36820982573E+02  0.00000000000E+00 0.  1.
         11    1    4    4    0    0  0.57439889672E+01 -0.41322250878E+01 -0.87043873542E+01  0.11217622427E+02  0.51100000000E-03 0. -1.
        -11    1    4    4    0    0 -0.12338925162E+01  0.36304434412E+01  0.70224276492E+01  0.80010687205E+01  0.51100000000E-03 0.  1.
        -12    1    4    4    0    0 -0.16724115628E+00  0.12277020862E+02 -0.32934049697E+02  0.35148326280E+02  0.00000000000E+00 0.  1.
</event>
<event>
 8    1  0.1262344E-006  0.9118800E+02  0.7816164E-02  0.1184000E+00
        -11   -1    0    0    0    0  0.00000000000E+00  0.00000000000E+00  0.45593999997E+02  0.45594000000E+02  0.51100000000E-03 0. -1.
         11   -1    0    0    0    0 -0.00000000000E+00 -0.00000000000E+00 -0.45593999997E+02  0.45594000000E+02  0.51100000000E-03 0.  1.
         23    2    1    2    0    0  0.00000000000E+00  0.17763568394E-14  0.00000000000E+00  0.91188000000E+02  0.91188000000E+02 0.  0.
    9900012    2    3    3    0    0 -0.26211688113E+02  0.14979901731E+02  0.21079112627E+02  0.54367095085E+02  0.40000024866E+02 0.  0.
        -12    1    3    3    0    0  0.26211688113E+02 -0.14979901731E+02 -0.21079112627E+02  0.36820904915E+02  0.00000000000E+00 0.  1.
         11    1    4    4    0    0 -0.13725570151E+02  0.11651787910E+02  0.89469300044E+00  0.18026533591E+02  0.51100000000E-03 0. -1.
        -11    1    4    4    0    0 -0.90862129173E-01  0.69184267354E+01 -0.46617678714E+01  0.83429589695E+01  0.51100000000E-03 0.  1.
        -12    1    4    4    0    0 -0.12395255833E+02 -0.35903129145E+01  0.24846187498E+02  0.27997602525E+02  0.00000000000E+00 0.  1.
</event>
<event>
 8    1  0.1262344E-006  0.9118800E+02  0.7816164E-02  0.1184000E+00
        -11   -1    0    0    0    0  0.00000000000E+00  0.00000000000E+00  0.45593999997E+02  0.45594000000E+02  0.51100000000E-03 0. -1.
         11   -1    0    0    0    0 -0.00000000000E+00 -0.00000000000E+00 -0.45593999997E+02  0.45594000000E+02  0.51100000000E-03 0.  1.
         23    2    1    2    0    0  0.00000000000E+00  0.00000000000E+00  0.00000000000E+00  0.91188000000E+02  0.91188000000E+02 0.  0.
    9900012    2    3    3    0    0  0.22309890939E+02  0.28613970185E+02  0.62681174416E+01  0.54367084479E+02  0.40000000688E+02 0.  0.
        -12    1    3    3    0    0 -0.22309890939E+02 -0.28613970185E+02 -0.62681174416E+01  0.36820915521E+02  0.00000000000E+00 0.  1.
         11    1    4    4    0    0  0.15776715746E+02  0.14735578597E+02  0.10595647597E+02  0.24048072368E+02  0.51100000000E-03 0. -1.
        -11    1    4    4    0    0  0.33192731397E+00 -0.43073021412E+01  0.68439859255E+01  0.80934029361E+01  0.51100000000E-03 0.  1.
         12    1    4    4    0    0  0.62012478791E+01  0.18185693729E+02 -0.11171516081E+02  0.22225609176E+02  0.00000000000E+00 0. -1.
</event>
<event>
 8    1  0.1262344E-006  0.9118800E+02  0.7816164E-02  0.1184000E+00
        -11   -1    0    0    0    0  0.00000000000E+00  0.00000000000E+00  0.45593999997E+02  0.45594000000E+02  0.51100000000E-03 0. -1.
         11   -1    0    0    0    0 -0.00000000000E+00 -0.00000000000E+00 -0.45593999997E+02  0.45594000000E+02  0.51100000000E-03 0.  1.
         23    2    1    2    0    0  0.88817841970E-15  0.00000000000E+00  0.00000000000E+00  0.91188000000E+02  0.91188000000E+02 0.  0.
    9900012    2    3    3    0    0  0.41525294332E+01 -0.12031798338E+02  0.34551003161E+02  0.54367088938E+02  0.40000010853E+02 0.  0.
        -12    1    3    3    0    0 -0.41525294332E+01  0.12031798338E+02 -0.34551003161E+02  0.36820911062E+02  0.00000000000E+00 0.  1.
         11    1    4    4    0    0 -0.28642766454E+01 -0.40668973754E+01  0.94748872804E+01  0.10701272083E+02  0.51100000000E-03 0. -1.
        -11    1    4    4    0    0 -0.94877738554E+01 -0.14521100006E+02  0.82748057092E+01  0.19218548538E+02  0.51100000000E-03 0.  1.
         12    1    4    4    0    0  0.16504579934E+02  0.65561990431E+01  0.16801310172E+02  0.24447268317E+02  0.00000000000E+00 0. -1.
</event>
<event>
 8    1  0.1262344E-006  0.9118800E+02  0.7816164E-02  0.1184000E+00
        -11   -1    0    0    0    0  0.00000000000E+00  0.00000000000E+00  0.45593999997E+02  0.45594000000E+02  0.51100000000E-03 0. -1.
         11   -1    0    0    0    0 -0.00000000000E+00 -0.00000000000E+00 -0.45593999997E+02  0.45594000000E+02  0.51100000000E-03 0.  1.
         23    2    1    2    0    0  0.00000000000E+00  0.71054273576E-14  0.35527136788E-14  0.91188000000E+02  0.91188000000E+02 0.  0.
    9900012    2    3    3    0    0 -0.14337503709E+02  0.21098955671E+02  0.26552801350E+02  0.54367065703E+02  0.39999957883E+02 0.  0.
        -12    1    3    3    0    0  0.14337503709E+02 -0.21098955671E+02 -0.26552801350E+02  0.36820934297E+02  0.00000000000E+00 0.  1.
         11    1    4    4    0    0 -0.16241085725E+02  0.20223197501E+02  0.28604794670E+02  0.38613273120E+02  0.51100000000E-03 0. -1.
        -11    1    4    4    0    0 -0.49859053629E+01  0.50669188817E+01  0.90190975133E+00  0.71656374945E+01  0.51100000000E-03 0.  1.
        -12    1    4    4    0    0  0.68894873787E+01 -0.41911607117E+01 -0.29539030721E+01  0.85881550878E+01  0.00000000000E+00 0.  1.
</event>
<event>
 8    1  0.1262344E-006  0.9118800E+02  0.7816164E-02  0.1184000E+00
        -11   -1    0    0    0    0  0.00000000000E+00  0.00000000000E+00  0.45593999997E+02  0.45594000000E+02  0.51100000000E-03 0. -1.
         11   -1    0    0    0    0 -0.00000000000E+00 -0.00000000000E+00 -0.45593999997E+02  0.45594000000E+02  0.51100000000E-03 0.  1.
         23    2    1    2    0    0  0.00000000000E+00  0.00000000000E+00  0.00000000000E+00  0.91188000000E+02  0.91188000000E+02 0.  0.
    9900012    2    3    3    0    0  0.29789213840E+02 -0.17114804581E+02 -0.13246333352E+02  0.54367093651E+02  0.40000021597E+02 0.  0.
         12    1    3    3    0    0 -0.29789213840E+02  0.17114804581E+02  0.13246333352E+02  0.36820906349E+02  0.00000000000E+00 0. -1.
         11    1    4    4    0    0 -0.23881122080E+01  0.17822925371E+01 -0.18644682468E+00  0.29857008031E+01  0.51100000000E-03 0. -1.
        -11    1    4    4    0    0  0.13333790242E+02 -0.23653501006E+01  0.10379773750E+02  0.17062372246E+02  0.51100000000E-03 0.  1.
        -12    1    4    4    0    0  0.18843535807E+02 -0.16531747017E+02 -0.23439660278E+02  0.34319020602E+02  0.00000000000E+00 0.  1.
</event>
<event>
 8    1  0.1262344E-006  0.9118800E+02  0.7816164E-02  0.1184000E+00
        -11   -1    0    0    0    0  0.00000000000E+00  0.00000000000E+00  0.45593999997E+02  0.45594000000E+02  0.51100000000E-03 0.  1.
         11   -1    0    0    0    0 -0.00000000000E+00 -0.00000000000E+00 -0.45593999997E+02  0.45594000000E+02  0.51100000000E-03 0. -1.
         23    2    1    2    0    0 -0.35527136788E-14 -0.22204460493E-15  0.00000000000E+00  0.91188000000E+02  0.91188000000E+02 0.  0.
    9900012    2    3    3    0    0 -0.23231392551E+02 -0.10346103116E+01 -0.28548413119E+02  0.54367083254E+02  0.39999997894E+02 0.  0.
        -12    1    3    3    0    0  0.23231392551E+02  0.10346103116E+01  0.28548413119E+02  0.36820916746E+02  0.00000000000E+00 0.  1.
         11    1    4    4    0    0 -0.63398772991E+01 -0.10585656399E+02 -0.83202478918E+01  0.14882092958E+02  0.51100000000E-03 0. -1.
        -11    1    4    4    0    0 -0.38555187955E+00 -0.24091820714E+00  0.65355435050E+01  0.65513373445E+01  0.51100000000E-03 0.  1.
        -12    1    4    4    0    0 -0.16505963373E+02  0.97919642947E+01 -0.26763708733E+02  0.32933652952E+02  0.00000000000E+00 0.  1.
</event>
<event>
 8    1  0.1262344E-006  0.9118800E+02  0.7816164E-02  0.1184000E+00
        -11   -1    0    0    0    0  0.00000000000E+00  0.00000000000E+00  0.45593999997E+02  0.45594000000E+02  0.51100000000E-03 0. -1.
         11   -1    0    0    0    0 -0.00000000000E+00 -0.00000000000E+00 -0.45593999997E+02  0.45594000000E+02  0.51100000000E-03 0.  1.
         23    2    1    2    0    0 -0.71054273576E-14 -0.35527136788E-14  0.00000000000E+00  0.91188000000E+02  0.91188000000E+02 0.  0.
    9900012    2    3    3    0    0 -0.35193925184E+02 -0.99760317238E+01 -0.42007531995E+01  0.54367083305E+02  0.39999998011E+02 0.  0.
         12    1    3    3    0    0  0.35193925184E+02  0.99760317238E+01  0.42007531995E+01  0.36820916695E+02  0.00000000000E+00 0. -1.
         11    1    4    4    0    0 -0.16384628207E+02  0.85660849388E+01 -0.51850663883E+01  0.19202051098E+02  0.51100000000E-03 0. -1.
        -11    1    4    4    0    0 -0.12384233183E+02  0.13275899660E+01 -0.50315325413E+01  0.13433095199E+02  0.51100000000E-03 0.  1.
        -12    1    4    4    0    0 -0.64250637936E+01 -0.19869706629E+02  0.60158457302E+01  0.21731937008E+02  0.00000000000E+00 0.  1.
</event>
<event>
 8    1  0.1262344E-006  0.9118800E+02  0.7816164E-02  0.1184000E+00
        -11   -1    0    0    0    0  0.00000000000E+00  0.00000000000E+00  0.45593999997E+02  0.45594000000E+02  0.51100000000E-03 0.  1.
         11   -1    0    0    0    0 -0.00000000000E+00 -0.00000000000E+00 -0.45593999997E+02  0.45594000000E+02  0.51100000000E-03 0. -1.
         23    2    1    2    0    0 -0.88817841970E-15  0.00000000000E+00  0.00000000000E+00  0.91188000000E+02  0.91188000000E+02 0.  0.
    9900012    2    3    3    0    0  0.65854315499E+01 -0.24105869470E+02 -0.27042967245E+02  0.54367042258E+02  0.39999904435E+02 0.  0.
        -12    1    3    3    0    0 -0.65854315499E+01  0.24105869470E+02  0.27042967245E+02  0.36820957742E+02  0.00000000000E+00 0.  1.
         11    1    4    4    0    0 -0.60171499515E+01 -0.99124460727E+01 -0.31081238596E+02  0.33173876373E+02  0.51100000000E-03 0. -1.
        -11    1    4    4    0    0 -0.25999358028E+00 -0.48258755731E+01  0.16267303476E+01  0.50993061875E+01  0.51100000000E-03 0.  1.
         12    1    4    4    0    0  0.12862575082E+02 -0.93675478243E+01  0.24115410026E+01  0.16093859698E+02  0.00000000000E+00 0. -1.
</event>
<event>
 8    1  0.1262344E-006  0.9118800E+02  0.7816164E-02  0.1184000E+00
        -11   -1    0    0    0    0  0.00000000000E+00  0.00000000000E+00  0.45593999997E+02  0.45594000000E+02  0.51100000000E-03 0.  1.
         11   -1    0    0    0    0 -0.00000000000E+00 -0.00000000000E+00 -0.45593999997E+02  0.45594000000E+02  0.51100000000E-03 0. -1.
         23    2    1    2    0    0  0.00000000000E+00  0.22204460493E-15  0.88817841970E-15  0.91188000000E+02  0.91188000000E+02 0.  0.
    9900012    2    3    3    0    0 -0.35959747251E+02  0.10010965383E+01 -0.78533499397E+01  0.54367072229E+02  0.39999972761E+02 0.  0.
         12    1    3    3    0    0  0.35959747251E+02 -0.10010965383E+01  0.78533499397E+01  0.36820927771E+02  0.00000000000E+00 0. -1.
         11    1    4    4    0    0  0.28505777273E+01  0.22060524025E+01  0.46625685589E+01  0.58933866672E+01  0.51100000000E-03 0. -1.
        -11    1    4    4    0    0  0.33994555322E+01  0.26644392026E+01 -0.22111553983E+01  0.48522925134E+01  0.51100000000E-03 0.  1.
         12    1    4    4    0    0 -0.42209780510E+02 -0.38693950668E+01 -0.10304763100E+02  0.43621393048E+02  0.00000000000E+00 0. -1.
</event>
<event>
 8    1  0.1262344E-006  0.9118800E+02  0.7816164E-02  0.1184000E+00
        -11   -1    0    0    0    0  0.00000000000E+00  0.00000000000E+00  0.45593999997E+02  0.45594000000E+02  0.51100000000E-03 0.  1.
         11   -1    0    0    0    0 -0.00000000000E+00 -0.00000000000E+00 -0.45593999997E+02  0.45594000000E+02  0.51100000000E-03 0. -1.
         23    2    1    2    0    0  0.00000000000E+00 -0.26645352591E-14 -0.35527136788E-14  0.91188000000E+02  0.91188000000E+02 0.  0.
    9900012    2    3    3    0    0  0.32843678801E+02 -0.68048064299E+01 -0.15191004552E+02  0.54367092257E+02  0.40000018418E+02 0.  0.
        -12    1    3    3    0    0 -0.32843678801E+02  0.68048064299E+01  0.15191004552E+02  0.36820907743E+02  0.00000000000E+00 0.  1.
         11    1    4    4    0    0 -0.39196982073E+01 -0.17471135090E+01  0.45984497474E+00  0.43160047858E+01  0.51100000000E-03 0. -1.
        -11    1    4    4    0    0  0.99207236691E+01  0.12064943637E+02 -0.37765026387E+01  0.16070021640E+02  0.51100000000E-03 0.  1.
         12    1    4    4    0    0  0.26842653339E+02 -0.17122636558E+02 -0.11874346888E+02  0.33981065831E+02  0.00000000000E+00 0. -1.
</event>
<event>
 8    1  0.1262344E-006  0.9118800E+02  0.7816164E-02  0.1184000E+00
        -11   -1    0    0    0    0  0.00000000000E+00  0.00000000000E+00  0.45593999997E+02  0.45594000000E+02  0.51100000000E-03 0.  1.
         11   -1    0    0    0    0 -0.00000000000E+00 -0.00000000000E+00 -0.45593999997E+02  0.45594000000E+02  0.51100000000E-03 0. -1.
         23    2    1    2    0    0  0.00000000000E+00 -0.35527136788E-14 -0.17763568394E-14  0.91188000000E+02  0.91188000000E+02 0.  0.
    9900012    2    3    3    0    0 -0.22764957366E+02 -0.24542491087E+02  0.15336307089E+02  0.54367089259E+02  0.40000011584E+02 0.  0.
         12    1    3    3    0    0  0.22764957366E+02  0.24542491087E+02 -0.15336307089E+02  0.36820910741E+02  0.00000000000E+00 0. -1.
         11    1    4    4    0    0 -0.56056832948E+01 -0.17649535329E+01  0.11066001789E+01  0.59802433389E+01  0.51100000000E-03 0.  1.
        -11    1    4    4    0    0  0.25812585963E+01  0.27097803599E+01 -0.82674775495E+01  0.90750752522E+01  0.51100000000E-03 0. -1.
        -12    1    4    4    0    0 -0.19740532667E+02 -0.25487317914E+02  0.22497184460E+02  0.39311770668E+02  0.00000000000E+00 0.  1.
</event>
<event>
 8    1  0.1262344E-006  0.9118800E+02  0.7816164E-02  0.1184000E+00
        -11   -1    0    0    0    0  0.00000000000E+00  0.00000000000E+00  0.45593999997E+02  0.45594000000E+02  0.51100000000E-03 0.  1.
         11   -1    0    0    0    0 -0.00000000000E+00 -0.00000000000E+00 -0.45593999997E+02  0.45594000000E+02  0.51100000000E-03 0. -1.
         23    2    1    2    0    0  0.44408920985E-15  0.35527136788E-14  0.35527136788E-14  0.91188000000E+02  0.91188000000E+02 0.  0.
    9900012    2    3    3    0    0 -0.62983197340E+00 -0.31777767138E+02  0.18589087050E+02  0.54367118289E+02  0.40000077764E+02 0.  0.
         12    1    3    3    0    0  0.62983197340E+00  0.31777767138E+02 -0.18589087050E+02  0.36820881711E+02  0.00000000000E+00 0. -1.
         11    1    4    4    0    0 -0.17920909801E+02 -0.11523555605E+02  0.95460376347E+01  0.23346909360E+02  0.51100000000E-03 0. -1.
        -11    1    4    4    0    0 -0.89065450733E+00 -0.55410022962E+01 -0.75303964051E+00  0.56624235853E+01  0.51100000000E-03 0.  1.
         12    1    4    4    0    0  0.18181732335E+02 -0.14713209237E+02  0.97960890558E+01  0.25357785344E+02  0.00000000000E+00 0. -1.
</event>
<event>
 8    1  0.1262344E-006  0.9118800E+02  0.7816164E-02  0.1184000E+00
        -11   -1    0    0    0    0  0.00000000000E+00  0.00000000000E+00  0.45593999997E+02  0.45594000000E+02  0.51100000000E-03 0. -1.
         11   -1    0    0    0    0 -0.00000000000E+00 -0.00000000000E+00 -0.45593999997E+02  0.45594000000E+02  0.51100000000E-03 0.  1.
         23    2    1    2    0    0  0.00000000000E+00  0.17763568394E-14  0.00000000000E+00  0.91188000000E+02  0.91188000000E+02 0.  0.
    9900012    2    3    3    0    0  0.24602869429E+02 -0.10008208908E+02  0.25501265966E+02  0.54367082092E+02  0.39999995246E+02 0.  0.
        -12    1    3    3    0    0 -0.24602869429E+02  0.10008208908E+02 -0.25501265966E+02  0.36820917908E+02  0.00000000000E+00 0.  1.
         11    1    4    4    0    0  0.13016164298E+02  0.77799012875E+01  0.85089308621E+01  0.17388194321E+02  0.51100000000E-03 0. -1.
        -11    1    4    4    0    0  0.14820004679E+02 -0.18045518527E+02  0.41295114892E+01  0.23713416940E+02  0.51100000000E-03 0.  1.
        -12    1    4    4    0    0 -0.32332995476E+01  0.25740833169E+00  0.12862823615E+02  0.13265470831E+02  0.00000000000E+00 0.  1.
</event>
<event>
 8    1  0.1262344E-006  0.9118800E+02  0.7816164E-02  0.1184000E+00
        -11   -1    0    0    0    0  0.00000000000E+00  0.00000000000E+00  0.45593999997E+02  0.45594000000E+02  0.51100000000E-03 0. -1.
         11   -1    0    0    0    0 -0.00000000000E+00 -0.00000000000E+00 -0.45593999997E+02  0.45594000000E+02  0.51100000000E-03 0.  1.
         23    2    1    2    0    0 -0.35527136788E-14  0.17763568394E-14  0.00000000000E+00  0.91188000000E+02  0.91188000000E+02 0.  0.
    9900012    2    3    3    0    0  0.25569713628E+02  0.13668080220E+02 -0.22697001796E+02  0.54367074394E+02  0.39999977696E+02 0.  0.
         12    1    3    3    0    0 -0.25569713628E+02 -0.13668080220E+02  0.22697001796E+02  0.36820925606E+02  0.00000000000E+00 0. -1.
         11    1    4    4    0    0  0.61295340043E+01  0.58861612838E+01 -0.31130983714E+01  0.90503847156E+01  0.51100000000E-03 0. -1.
        -11    1    4    4    0    0  0.17796423108E+02 -0.17090730826E+01 -0.27532727429E+02  0.32828108172E+02  0.51100000000E-03 0.  1.
        -12    1    4    4    0    0  0.16437565157E+01  0.94909920192E+01  0.79488240036E+01  0.12488581506E+02  0.00000000000E+00 0.  1.
</event>
<event>
 8    1  0.1262344E-006  0.9118800E+02  0.7816164E-02  0.1184000E+00
        -11   -1    0    0    0    0  0.00000000000E+00  0.00000000000E+00  0.45593999997E+02  0.45594000000E+02  0.51100000000E-03 0. -1.
         11   -1    0    0    0    0 -0.00000000000E+00 -0.00000000000E+00 -0.45593999997E+02  0.45594000000E+02  0.51100000000E-03 0.  1.
         23    2    1    2    0    0 -0.17763568394E-14  0.35527136788E-14 -0.71054273576E-14  0.91188000000E+02  0.91188000000E+02 0.  0.
    9900012    2    3    3    0    0 -0.13778684627E+02  0.24334514611E+02 -0.23953299555E+02  0.54367064230E+02  0.39999954525E+02 0.  0.
         12    1    3    3    0    0  0.13778684627E+02 -0.24334514611E+02  0.23953299555E+02  0.36820935770E+02  0.00000000000E+00 0. -1.
         11    1    4    4    0    0 -0.18720514089E+02  0.10629017923E+02 -0.56633291002E+01  0.22259985771E+02  0.51100000000E-03 0. -1.
        -11    1    4    4    0    0 -0.52397263222E+01  0.56837331227E+01  0.20412923262E+01  0.79954004755E+01  0.51100000000E-03 0.  1.
         12    1    4    4    0    0  0.10181555785E+02  0.80217635648E+01 -0.20331262781E+02  0.24111677983E+02  0.00000000000E+00 0. -1.
</event>
<event>
 8    1  0.1262344E-006  0.9118800E+02  0.7816164E-02  0.1184000E+00
        -11   -1    0    0    0    0  0.00000000000E+00  0.00000000000E+00  0.45593999997E+02  0.45594000000E+02  0.51100000000E-03 0.  1.
         11   -1    0    0    0    0 -0.00000000000E+00 -0.00000000000E+00 -0.45593999997E+02  0.45594000000E+02  0.51100000000E-03 0. -1.
         23    2    1    2    0    0 -0.55511151231E-15  0.00000000000E+00 -0.35527136788E-14  0.91188000000E+02  0.91188000000E+02 0.  0.
    9900012    2    3    3    0    0  0.80009589653E+00 -0.25197314153E+02  0.26837157016E+02  0.54367112033E+02  0.40000063502E+02 0.  0.
         12    1    3    3    0    0 -0.80009589653E+00  0.25197314153E+02 -0.26837157016E+02  0.36820887967E+02  0.00000000000E+00 0. -1.
         11    1    4    4    0    0 -0.29745136129E+01 -0.12871506951E+02 -0.69116402041E+01  0.14909533628E+02  0.51100000000E-03 0. -1.
        -11    1    4    4    0    0 -0.99233087715E+00 -0.66545610184E+00  0.22611644797E+02  0.22643189552E+02  0.51100000000E-03 0.  1.
         12    1    4    4    0    0  0.47669403866E+01 -0.11660351100E+02  0.11137152423E+02  0.16814388854E+02  0.00000000000E+00 0. -1.
</event>
<event>
 8    1  0.1262344E-006  0.9118800E+02  0.7816164E-02  0.1184000E+00
        -11   -1    0    0    0    0  0.00000000000E+00  0.00000000000E+00  0.45593999997E+02  0.45594000000E+02  0.51100000000E-03 0. -1.
         11   -1    0    0    0    0 -0.00000000000E+00 -0.00000000000E+00 -0.45593999997E+02  0.45594000000E+02  0.51100000000E-03 0.  1.
         23    2    1    2    0    0  0.00000000000E+00 -0.88817841970E-15  0.00000000000E+00  0.91188000000E+02  0.91188000000E+02 0.  0.
    9900012    2    3    3    0    0  0.35316841816E+02 -0.47785657785E+01  0.92555969988E+01  0.54367080911E+02  0.39999992552E+02 0.  0.
         12    1    3    3    0    0 -0.35316841816E+02  0.47785657785E+01 -0.92555969988E+01  0.36820919089E+02  0.00000000000E+00 0. -1.
         11    1    4    4    0    0  0.23127531943E+02  0.14201718688E+01 -0.77088918883E+01  0.24419800087E+02  0.51100000000E-03 0. -1.
        -11    1    4    4    0    0 -0.29510674563E+01 -0.82547225291E+01  0.30506213653E+01  0.92820005462E+01  0.51100000000E-03 0.  1.
         12    1    4    4    0    0  0.15140377330E+02  0.20559848818E+01  0.13913867522E+02  0.20665280277E+02  0.00000000000E+00 0. -1.
</event>
<event>
 8    1  0.1262344E-006  0.9118800E+02  0.7816164E-02  0.1184000E+00
        -11   -1    0    0    0    0  0.00000000000E+00  0.00000000000E+00  0.45593999997E+02  0.45594000000E+02  0.51100000000E-03 0. -1.
         11   -1    0    0    0    0 -0.00000000000E+00 -0.00000000000E+00 -0.45593999997E+02  0.45594000000E+02  0.51100000000E-03 0.  1.
         23    2    1    2    0    0 -0.17763568394E-14  0.71054273576E-14  0.00000000000E+00  0.91188000000E+02  0.91188000000E+02 0.  0.
    9900012    2    3    3    0    0  0.10927725663E+02 -0.32240243279E+02 -0.14033242124E+02  0.54367077152E+02  0.39999983983E+02 0.  0.
        -12    1    3    3    0    0 -0.10927725663E+02  0.32240243279E+02  0.14033242124E+02  0.36820922848E+02  0.00000000000E+00 0.  1.
         11    1    4    4    0    0 -0.91485826058E+00 -0.17725607836E+02 -0.14322069947E+02  0.22806924971E+02  0.51100000000E-03 0. -1.
        -11    1    4    4    0    0  0.17888121309E+02 -0.72313011422E+01 -0.59883556514E+01  0.20202400943E+02  0.51100000000E-03 0.  1.
         12    1    4    4    0    0 -0.60455373850E+01 -0.72833343015E+01  0.62771834749E+01  0.11357751239E+02  0.00000000000E+00 0. -1.
</event>
<event>
 8    1  0.1262344E-006  0.9118800E+02  0.7816164E-02  0.1184000E+00
        -11   -1    0    0    0    0  0.00000000000E+00  0.00000000000E+00  0.45593999997E+02  0.45594000000E+02  0.51100000000E-03 0.  1.
         11   -1    0    0    0    0 -0.00000000000E+00 -0.00000000000E+00 -0.45593999997E+02  0.45594000000E+02  0.51100000000E-03 0. -1.
         23    2    1    2    0    0  0.00000000000E+00  0.00000000000E+00 -0.44408920985E-15  0.91188000000E+02  0.91188000000E+02 0.  0.
    9900012    2    3    3    0    0 -0.19156158964E+02  0.31378784459E+02 -0.20475487438E+01  0.54367095663E+02  0.40000026182E+02 0.  0.
        -12    1    3    3    0    0  0.19156158964E+02 -0.31378784459E+02  0.20475487438E+01  0.36820904337E+02  0.00000000000E+00 0.  1.
         11    1    4    4    0    0 -0.44918724399E+01 -0.15475137094E+01  0.22788463174E+01  0.52692368989E+01  0.51100000000E-03 0. -1.
        -11    1    4    4    0    0 -0.10102386956E+02  0.18830897786E+01  0.10237882860E+02  0.14505809010E+02  0.51100000000E-03 0.  1.
         12    1    4    4    0    0 -0.45618995679E+01  0.31043208389E+02 -0.14564277921E+02  0.34592049753E+02  0.00000000000E+00 0. -1.
</event>
<event>
 8    1  0.1262344E-006  0.9118800E+02  0.7816164E-02  0.1184000E+00
        -11   -1    0    0    0    0  0.00000000000E+00  0.00000000000E+00  0.45593999997E+02  0.45594000000E+02  0.51100000000E-03 0.  1.
         11   -1    0    0    0    0 -0.00000000000E+00 -0.00000000000E+00 -0.45593999997E+02  0.45594000000E+02  0.51100000000E-03 0. -1.
         23    2    1    2    0    0  0.00000000000E+00 -0.13322676296E-14  0.00000000000E+00  0.91188000000E+02  0.91188000000E+02 0.  0.
    9900012    2    3    3    0    0  0.20799887521E+02 -0.38945702567E+01 -0.30132403012E+02  0.54367289664E+02  0.40000468443E+02 0.  0.
        -12    1    3    3    0    0 -0.20799887521E+02  0.38945702567E+01  0.30132403012E+02  0.36820710336E+02  0.00000000000E+00 0.  1.
         11    1    4    4    0    0  0.12385599529E+01  0.81385022041E+01 -0.13265032542E+02  0.15611865279E+02  0.51100000000E-03 0. -1.
        -11    1    4    4    0    0 -0.24030336874E+01  0.55053531893E+01 -0.62261051365E-01  0.60072757005E+01  0.51100000000E-03 0.  1.
         12    1    4    4    0    0  0.21964361256E+02 -0.17538425650E+02 -0.16805109419E+02  0.32748148684E+02  0.00000000000E+00 0. -1.
</event>
<event>
 8    1  0.1262344E-006  0.9118800E+02  0.7816164E-02  0.1184000E+00
        -11   -1    0    0    0    0  0.00000000000E+00  0.00000000000E+00  0.45593999997E+02  0.45594000000E+02  0.51100000000E-03 0. -1.
         11   -1    0    0    0    0 -0.00000000000E+00 -0.00000000000E+00 -0.45593999997E+02  0.45594000000E+02  0.51100000000E-03 0.  1.
         23    2    1    2    0    0  0.35527136788E-14  0.00000000000E+00  0.00000000000E+00  0.91188000000E+02  0.91188000000E+02 0.  0.
    9900012    2    3    3    0    0  0.18682978057E+02 -0.16483152898E+02 -0.27111466463E+02  0.54367087296E+02  0.40000007110E+02 0.  0.
         12    1    3    3    0    0 -0.18682978057E+02  0.16483152898E+02  0.27111466463E+02  0.36820912704E+02  0.00000000000E+00 0. -1.
         11    1    4    4    0    0 -0.48261415868E+01  0.36018275754E+01  0.52274285846E+01  0.79743848896E+01  0.51100000000E-03 0. -1.
        -11    1    4    4    0    0  0.20998575817E+02 -0.11192064120E+02 -0.25635187947E+02  0.34976640018E+02  0.51100000000E-03 0.  1.
        -12    1    4    4    0    0  0.25105438269E+01 -0.88929163528E+01 -0.67037071006E+01  0.11416062388E+02  0.00000000000E+00 0.  1.
</event>
<event>
 8    1  0.1262344E-006  0.9118800E+02  0.7816164E-02  0.1184000E+00
        -11   -1    0    0    0    0  0.00000000000E+00  0.00000000000E+00  0.45593999997E+02  0.45594000000E+02  0.51100000000E-03 0.  1.
         11   -1    0    0    0    0 -0.00000000000E+00 -0.00000000000E+00 -0.45593999997E+02  0.45594000000E+02  0.51100000000E-03 0. -1.
         23    2    1    2    0    0 -0.35527136788E-14 -0.35527136788E-14  0.00000000000E+00  0.91188000000E+02  0.91188000000E+02 0.  0.
    9900012    2    3    3    0    0  0.12300086401E+02 -0.30101647758E+02  0.17273633229E+02  0.54367085724E+02  0.40000003525E+02 0.  0.
         12    1    3    3    0    0 -0.12300086401E+02  0.30101647758E+02 -0.17273633229E+02  0.36820914276E+02  0.00000000000E+00 0. -1.
         11    1    4    4    0    0  0.57667536448E+01 -0.96491105070E+00  0.51548468714E+00  0.58696018314E+01  0.51100000000E-03 0. -1.
        -11    1    4    4    0    0 -0.99934511225E+01 -0.24444564003E+02  0.31792224570E+01  0.26599120857E+02  0.51100000000E-03 0.  1.
        -12    1    4    4    0    0  0.16526783878E+02 -0.46921727036E+01  0.13578926085E+02  0.21898363036E+02  0.00000000000E+00 0.  1.
</event>
<event>
 8    1  0.1262344E-006  0.9118800E+02  0.7816164E-02  0.1184000E+00
        -11   -1    0    0    0    0  0.00000000000E+00  0.00000000000E+00  0.45593999997E+02  0.45594000000E+02  0.51100000000E-03 0. -1.
         11   -1    0    0    0    0 -0.00000000000E+00 -0.00000000000E+00 -0.45593999997E+02  0.45594000000E+02  0.51100000000E-03 0.  1.
         23    2    1    2    0    0  0.17763568394E-14  0.00000000000E+00  0.00000000000E+00  0.91188000000E+02  0.91188000000E+02 0.  0.
    9900012    2    3    3    0    0 -0.14463133705E+02 -0.22349763500E+02  0.25437888535E+02  0.54367077439E+02  0.39999984638E+02 0.  0.
        -12    1    3    3    0    0  0.14463133705E+02  0.22349763500E+02 -0.25437888535E+02  0.36820922561E+02  0.00000000000E+00 0.  1.
         11    1    4    4    0    0 -0.25165717983E+02 -0.42247034927E+01  0.20185732606E+02  0.32536522284E+02  0.51100000000E-03 0. -1.
        -11    1    4    4    0    0  0.70117691840E+01 -0.11013677184E+02  0.21164653068E+01  0.13226693383E+02  0.51100000000E-03 0.  1.
         12    1    4    4    0    0  0.36908150939E+01 -0.71113828234E+01  0.31356906222E+01  0.86038617723E+01  0.00000000000E+00 0. -1.
</event>
<event>
 8    1  0.1262344E-006  0.9118800E+02  0.7816164E-02  0.1184000E+00
        -11   -1    0    0    0    0  0.00000000000E+00  0.00000000000E+00  0.45593999997E+02  0.45594000000E+02  0.51100000000E-03 0. -1.
         11   -1    0    0    0    0 -0.00000000000E+00 -0.00000000000E+00 -0.45593999997E+02  0.45594000000E+02  0.51100000000E-03 0.  1.
         23    2    1    2    0    0  0.00000000000E+00  0.00000000000E+00  0.00000000000E+00  0.91188000000E+02  0.91188000000E+02 0.  0.
    9900012    2    3    3    0    0  0.30845201231E+02 -0.19912457826E+02 -0.28012634153E+01  0.54367088925E+02  0.40000010822E+02 0.  0.
        -12    1    3    3    0    0 -0.30845201231E+02  0.19912457826E+02  0.28012634153E+01  0.36820911075E+02  0.00000000000E+00 0.  1.
         11    1    4    4    0    0  0.29542060193E+02 -0.32268057258E+01 -0.41042523390E+01  0.29999841386E+02  0.51100000000E-03 0. -1.
        -11    1    4    4    0    0  0.92055486231E+00 -0.17821077932E+02  0.65319646128E+01  0.19002757744E+02  0.51100000000E-03 0.  1.
        -12    1    4    4    0    0  0.38258617581E+00  0.11354258315E+01 -0.52289756891E+01  0.53644897948E+01  0.00000000000E+00 0.  1.
</event>
<event>
 8    1  0.1262344E-006  0.9118800E+02  0.7816164E-02  0.1184000E+00
        -11   -1    0    0    0    0  0.00000000000E+00  0.00000000000E+00  0.45593999997E+02  0.45594000000E+02  0.51100000000E-03 0.  1.
         11   -1    0    0    0    0 -0.00000000000E+00 -0.00000000000E+00 -0.45593999997E+02  0.45594000000E+02  0.51100000000E-03 0. -1.
         23    2    1    2    0    0  0.00000000000E+00 -0.88817841970E-15  0.00000000000E+00  0.91188000000E+02  0.91188000000E+02 0.  0.
    9900012    2    3    3    0    0 -0.31041441097E+02  0.77592594034E+01  0.18220936818E+02  0.54367085965E+02  0.40000004074E+02 0.  0.
         12    1    3    3    0    0  0.31041441097E+02 -0.77592594034E+01 -0.18220936818E+02  0.36820914035E+02  0.00000000000E+00 0. -1.
         11    1    4    4    0    0 -0.89137345862E+01  0.50427844440E+01 -0.52069265862E+01  0.11488969665E+02  0.51100000000E-03 0. -1.
        -11    1    4    4    0    0 -0.15261903702E+02  0.10408560354E+02  0.26332535208E+02  0.32166228315E+02  0.51100000000E-03 0.  1.
         12    1    4    4    0    0 -0.68658028087E+01 -0.76920853945E+01 -0.29046718036E+01  0.10711887985E+02  0.00000000000E+00 0. -1.
</event>
<event>
 8    1  0.1262344E-006  0.9118800E+02  0.7816164E-02  0.1184000E+00
        -11   -1    0    0    0    0  0.00000000000E+00  0.00000000000E+00  0.45593999997E+02  0.45594000000E+02  0.51100000000E-03 0. -1.
         11   -1    0    0    0    0 -0.00000000000E+00 -0.00000000000E+00 -0.45593999997E+02  0.45594000000E+02  0.51100000000E-03 0.  1.
         23    2    1    2    0    0 -0.17763568394E-14  0.00000000000E+00  0.00000000000E+00  0.91188000000E+02  0.91188000000E+02 0.  0.
    9900012    2    3    3    0    0  0.14245480844E+02 -0.29390521081E+02  0.17001369187E+02  0.54367041184E+02  0.39999901988E+02 0.  0.
        -12    1    3    3    0    0 -0.14245480844E+02  0.29390521081E+02 -0.17001369187E+02  0.36820958816E+02  0.00000000000E+00 0.  1.
         11    1    4    4    0    0  0.17865669790E+02 -0.10798621054E+02  0.14887275822E+02  0.25640268239E+02  0.51100000000E-03 0. -1.
        -11    1    4    4    0    0 -0.10417380886E+02 -0.47067135472E+01  0.58222737569E+01  0.12828633945E+02  0.51100000000E-03 0.  1.
         12    1    4    4    0    0  0.67971919399E+01 -0.13885186479E+02 -0.37081803918E+01  0.15898139000E+02  0.00000000000E+00 0. -1.
</event>
<event>
 8    1  0.1262344E-006  0.9118800E+02  0.7816164E-02  0.1184000E+00
        -11   -1    0    0    0    0  0.00000000000E+00  0.00000000000E+00  0.45593999997E+02  0.45594000000E+02  0.51100000000E-03 0.  1.
         11   -1    0    0    0    0 -0.00000000000E+00 -0.00000000000E+00 -0.45593999997E+02  0.45594000000E+02  0.51100000000E-03 0. -1.
         23    2    1    2    0    0  0.22204460493E-15  0.00000000000E+00  0.71054273576E-14  0.91188000000E+02  0.91188000000E+02 0.  0.
    9900012    2    3    3    0    0  0.12314187516E+01 -0.53239126276E+01 -0.36413205374E+02  0.54367055370E+02  0.39999934327E+02 0.  0.
        -12    1    3    3    0    0 -0.12314187516E+01  0.53239126276E+01  0.36413205374E+02  0.36820944630E+02  0.00000000000E+00 0.  1.
         11    1    4    4    0    0 -0.34803782451E+01  0.16222744939E+01  0.92693528071E+00  0.39501919622E+01  0.51100000000E-03 0. -1.
        -11    1    4    4    0    0  0.18996234233E+01 -0.27967339894E+00  0.60913533350E+01  0.63868123562E+01  0.51100000000E-03 0.  1.
         12    1    4    4    0    0  0.28121735734E+01 -0.66665137225E+01 -0.43431493990E+02  0.44030051052E+02  0.00000000000E+00 0. -1.
</event>
<event>
 8    1  0.1262344E-006  0.9118800E+02  0.7816164E-02  0.1184000E+00
        -11   -1    0    0    0    0  0.00000000000E+00  0.00000000000E+00  0.45593999997E+02  0.45594000000E+02  0.51100000000E-03 0. -1.
         11   -1    0    0    0    0 -0.00000000000E+00 -0.00000000000E+00 -0.45593999997E+02  0.45594000000E+02  0.51100000000E-03 0.  1.
         23    2    1    2    0    0  0.00000000000E+00  0.44408920985E-15  0.71054273576E-14  0.91188000000E+02  0.91188000000E+02 0.  0.
    9900012    2    3    3    0    0  0.52121578643E+01  0.51632129287E+00 -0.36446488415E+02  0.54367086173E+02  0.40000004549E+02 0.  0.
         12    1    3    3    0    0 -0.52121578643E+01 -0.51632129287E+00  0.36446488415E+02  0.36820913827E+02  0.00000000000E+00 0. -1.
         11    1    4    4    0    0 -0.71603605249E+01 -0.30941754698E+01 -0.16284741749E+02  0.18056508488E+02  0.51100000000E-03 0. -1.
        -11    1    4    4    0    0 -0.65636645679E+01 -0.35179715705E+01 -0.12743826062E+02  0.14760180198E+02  0.51100000000E-03 0.  1.
         12    1    4    4    0    0  0.18936182957E+02  0.71284683331E+01 -0.74179206040E+01  0.21550397487E+02  0.00000000000E+00 0. -1.
</event>
<event>
 8    1  0.1262344E-006  0.9118800E+02  0.7816164E-02  0.1184000E+00
        -11   -1    0    0    0    0  0.00000000000E+00  0.00000000000E+00  0.45593999997E+02  0.45594000000E+02  0.51100000000E-03 0.  1.
         11   -1    0    0    0    0 -0.00000000000E+00 -0.00000000000E+00 -0.45593999997E+02  0.45594000000E+02  0.51100000000E-03 0. -1.
         23    2    1    2    0    0 -0.88817841970E-15  0.00000000000E+00  0.00000000000E+00  0.91188000000E+02  0.91188000000E+02 0.  0.
    9900012    2    3    3    0    0 -0.50505010542E+01 -0.36354041973E+01 -0.36291258598E+02  0.54367093232E+02  0.40000020641E+02 0.  0.
        -12    1    3    3    0    0  0.50505010542E+01  0.36354041973E+01  0.36291258598E+02  0.36820906768E+02  0.00000000000E+00 0.  1.
         11    1    4    4    0    0  0.27297167097E+01  0.98714949094E+01 -0.99577127561E+01  0.14284740413E+02  0.51100000000E-03 0. -1.
        -11    1    4    4    0    0 -0.78767489231E+01 -0.68765110294E+01 -0.30505715288E+02  0.32247918430E+02  0.51100000000E-03 0.  1.
        -12    1    4    4    0    0  0.96531159226E-01 -0.66303880773E+01  0.41721694462E+01  0.78344343898E+01  0.00000000000E+00 0.  1.
</event>
<event>
 8    1  0.1262344E-006  0.9118800E+02  0.7816164E-02  0.1184000E+00
        -11   -1    0    0    0    0  0.00000000000E+00  0.00000000000E+00  0.45593999997E+02  0.45594000000E+02  0.51100000000E-03 0.  1.
         11   -1    0    0    0    0 -0.00000000000E+00 -0.00000000000E+00 -0.45593999997E+02  0.45594000000E+02  0.51100000000E-03 0. -1.
         23    2    1    2    0    0  0.00000000000E+00  0.17763568394E-14  0.00000000000E+00  0.91188000000E+02  0.91188000000E+02 0.  0.
    9900012    2    3    3    0    0 -0.31206195892E+02 -0.14670714192E+02  0.12912098946E+02  0.54367098108E+02  0.40000031756E+02 0.  0.
         12    1    3    3    0    0  0.31206195892E+02  0.14670714192E+02 -0.12912098946E+02  0.36820901892E+02  0.00000000000E+00 0. -1.
         11    1    4    4    0    0  0.51531639145E+01 -0.80898200438E+01  0.32693993521E+01  0.10133570894E+02  0.51100000000E-03 0. -1.
        -11    1    4    4    0    0 -0.33943410816E+02 -0.82705372007E+01  0.83601418949E+00  0.34946471115E+02  0.51100000000E-03 0.  1.
        -12    1    4    4    0    0 -0.24159489908E+01  0.16896430530E+01  0.88066854046E+01  0.92870560991E+01  0.00000000000E+00 0.  1.
</event>
<event>
 8    1  0.1262344E-006  0.9118800E+02  0.7816164E-02  0.1184000E+00
        -11   -1    0    0    0    0  0.00000000000E+00  0.00000000000E+00  0.45593999997E+02  0.45594000000E+02  0.51100000000E-03 0. -1.
         11   -1    0    0    0    0 -0.00000000000E+00 -0.00000000000E+00 -0.45593999997E+02  0.45594000000E+02  0.51100000000E-03 0.  1.
         23    2    1    2    0    0 -0.35527136788E-14 -0.13322676296E-14  0.71054273576E-14  0.91188000000E+02  0.91188000000E+02 0.  0.
    9900012    2    3    3    0    0  0.15396370562E+02 -0.13987968905E+01 -0.33418194227E+02  0.54367074365E+02  0.39999977629E+02 0.  0.
         12    1    3    3    0    0 -0.15396370562E+02  0.13987968905E+01  0.33418194227E+02  0.36820925635E+02  0.00000000000E+00 0. -1.
         11    1    4    4    0    0  0.32421971536E+01  0.11674684519E+02  0.33247595134E+01  0.12564399193E+02  0.51100000000E-03 0. -1.
        -11    1    4    4    0    0  0.52141362367E+00 -0.53203571658E+01 -0.15282403340E+02  0.16190426944E+02  0.51100000000E-03 0.  1.
         12    1    4    4    0    0  0.11632759785E+02 -0.77531242437E+01 -0.21460550401E+02  0.25612248227E+02  0.00000000000E+00 0. -1.
</event>
<event>
 8    1  0.1262344E-006  0.9118800E+02  0.7816164E-02  0.1184000E+00
        -11   -1    0    0    0    0  0.00000000000E+00  0.00000000000E+00  0.45593999997E+02  0.45594000000E+02  0.51100000000E-03 0.  1.
         11   -1    0    0    0    0 -0.00000000000E+00 -0.00000000000E+00 -0.45593999997E+02  0.45594000000E+02  0.51100000000E-03 0. -1.
         23    2    1    2    0    0  0.00000000000E+00 -0.17763568394E-14  0.35527136788E-14  0.91188000000E+02  0.91188000000E+02 0.  0.
    9900012    2    3    3    0    0 -0.16254592906E+02  0.12242981912E+02 -0.30686757702E+02  0.54367088891E+02  0.40000010744E+02 0.  0.
        -12    1    3    3    0    0  0.16254592906E+02 -0.12242981912E+02  0.30686757702E+02  0.36820911109E+02  0.00000000000E+00 0.  1.
         11    1    4    4    0    0 -0.53746526964E+01  0.84727428464E+00 -0.19106030291E+02  0.19865677916E+02  0.51100000000E-03 0. -1.
        -11    1    4    4    0    0 -0.91653141835E-01  0.54657359799E+00 -0.17928337050E+02  0.17936900865E+02  0.51100000000E-03 0.  1.
         12    1    4    4    0    0 -0.10788287068E+02  0.10849134030E+02  0.63476096388E+01  0.16564510110E+02  0.00000000000E+00 0. -1.
</event>
<event>
 8    1  0.1262344E-006  0.9118800E+02  0.7816164E-02  0.1184000E+00
        -11   -1    0    0    0    0  0.00000000000E+00  0.00000000000E+00  0.45593999997E+02  0.45594000000E+02  0.51100000000E-03 0. -1.
         11   -1    0    0    0    0 -0.00000000000E+00 -0.00000000000E+00 -0.45593999997E+02  0.45594000000E+02  0.51100000000E-03 0.  1.
         23    2    1    2    0    0  0.00000000000E+00  0.00000000000E+00  0.17763568394E-14  0.91188000000E+02  0.91188000000E+02 0.  0.
    9900012    2    3    3    0    0  0.30156883032E+02  0.14080804031E+02  0.15750337878E+02  0.54367085025E+02  0.40000001930E+02 0.  0.
        -12    1    3    3    0    0 -0.30156883032E+02 -0.14080804031E+02 -0.15750337878E+02  0.36820914975E+02  0.00000000000E+00 0.  1.
         11    1    4    4    0    0  0.11946367295E+02  0.70895755553E+01 -0.38056838311E+01  0.14403506614E+02  0.51100000000E-03 0. -1.
        -11    1    4    4    0    0 -0.55065182321E+01  0.27298213596E+01 -0.31044419313E+01  0.68855811419E+01  0.51100000000E-03 0.  1.
         12    1    4    4    0    0  0.23717033969E+02  0.42614071161E+01  0.22660463640E+02  0.33077997269E+02  0.00000000000E+00 0. -1.
</event>
<event>
 8    1  0.1262344E-006  0.9118800E+02  0.7816164E-02  0.1184000E+00
        -11   -1    0    0    0    0  0.00000000000E+00  0.00000000000E+00  0.45593999997E+02  0.45594000000E+02  0.51100000000E-03 0. -1.
         11   -1    0    0    0    0 -0.00000000000E+00 -0.00000000000E+00 -0.45593999997E+02  0.45594000000E+02  0.51100000000E-03 0.  1.
         23    2    1    2    0    0 -0.88817841970E-15  0.00000000000E+00  0.00000000000E+00  0.91188000000E+02  0.91188000000E+02 0.  0.
    9900012    2    3    3    0    0 -0.65278840046E+01  0.26666346611E+02  0.24537257457E+02  0.54367023442E+02  0.39999861540E+02 0.  0.
        -12    1    3    3    0    0  0.65278840046E+01 -0.26666346611E+02 -0.24537257457E+02  0.36820976558E+02  0.00000000000E+00 0.  1.
         11    1    4    4    0    0  0.50231328524E+01  0.12772410223E+02  0.12960302850E+02  0.18876858234E+02  0.51100000000E-03 0. -1.
        -11    1    4    4    0    0  0.26677210003E+01  0.18295653000E+02  0.82081428154E+01  0.20229218046E+02  0.51100000000E-03 0.  1.
        -12    1    4    4    0    0 -0.14218737857E+02 -0.44017166113E+01  0.33688117920E+01  0.15260947162E+02  0.00000000000E+00 0.  1.
</event>
<event>
 8    1  0.1262344E-006  0.9118800E+02  0.7816164E-02  0.1184000E+00
        -11   -1    0    0    0    0  0.00000000000E+00  0.00000000000E+00  0.45593999997E+02  0.45594000000E+02  0.51100000000E-03 0. -1.
         11   -1    0    0    0    0 -0.00000000000E+00 -0.00000000000E+00 -0.45593999997E+02  0.45594000000E+02  0.51100000000E-03 0.  1.
         23    2    1    2    0    0  0.00000000000E+00  0.00000000000E+00  0.00000000000E+00  0.91188000000E+02  0.91188000000E+02 0.  0.
    9900012    2    3    3    0    0 -0.89002530654E+01 -0.10620583588E+02  0.34114053878E+02  0.54367082408E+02  0.39999995965E+02 0.  0.
        -12    1    3    3    0    0  0.89002530654E+01  0.10620583588E+02 -0.34114053878E+02  0.36820917592E+02  0.00000000000E+00 0.  1.
         11    1    4    4    0    0  0.20216225009E+01 -0.15913585080E+01  0.12028385702E+02  0.12300465125E+02  0.51100000000E-03 0. -1.
        -11    1    4    4    0    0 -0.75349114348E+00  0.11702806960E+02  0.29896649697E+01  0.12102129422E+02  0.51100000000E-03 0.  1.
         12    1    4    4    0    0 -0.10168384423E+02 -0.20732032041E+02  0.19096003206E+02  0.29964487861E+02  0.00000000000E+00 0. -1.
</event>
<event>
 8    1  0.1262344E-006  0.9118800E+02  0.7816164E-02  0.1184000E+00
        -11   -1    0    0    0    0  0.00000000000E+00  0.00000000000E+00  0.45593999997E+02  0.45594000000E+02  0.51100000000E-03 0.  1.
         11   -1    0    0    0    0 -0.00000000000E+00 -0.00000000000E+00 -0.45593999997E+02  0.45594000000E+02  0.51100000000E-03 0. -1.
         23    2    1    2    0    0  0.00000000000E+00  0.00000000000E+00  0.17763568394E-14  0.91188000000E+02  0.91188000000E+02 0.  0.
    9900012    2    3    3    0    0 -0.33028097491E+02 -0.13555841947E+02  0.90101675015E+01  0.54366821404E+02  0.39999400950E+02 0.  0.
         12    1    3    3    0    0  0.33028097491E+02  0.13555841947E+02 -0.90101675015E+01  0.36821178596E+02  0.00000000000E+00 0. -1.
         11    1    4    4    0    0 -0.24878690463E+01 -0.79528399222E+00 -0.40993236758E+01  0.48607019946E+01  0.51100000000E-03 0. -1.
        -11    1    4    4    0    0 -0.31155845635E+02 -0.57386509282E+01 -0.30990809941E+01  0.31831166096E+02  0.51100000000E-03 0.  1.
        -12    1    4    4    0    0  0.61561719030E+00 -0.70219070264E+01  0.16208572171E+02  0.17674953314E+02  0.00000000000E+00 0.  1.
</event>
<event>
 8    1  0.1262344E-006  0.9118800E+02  0.7816164E-02  0.1184000E+00
        -11   -1    0    0    0    0  0.00000000000E+00  0.00000000000E+00  0.45593999997E+02  0.45594000000E+02  0.51100000000E-03 0.  1.
         11   -1    0    0    0    0 -0.00000000000E+00 -0.00000000000E+00 -0.45593999997E+02  0.45594000000E+02  0.51100000000E-03 0. -1.
         23    2    1    2    0    0 -0.44408920985E-15 -0.17763568394E-14  0.00000000000E+00  0.91188000000E+02  0.91188000000E+02 0.  0.
    9900012    2    3    3    0    0 -0.33157464241E+01  0.84643576453E+01 -0.35681093036E+02  0.54367083051E+02  0.39999997432E+02 0.  0.
        -12    1    3    3    0    0  0.33157464241E+01 -0.84643576453E+01  0.35681093036E+02  0.36820916949E+02  0.00000000000E+00 0.  1.
         11    1    4    4    0    0 -0.97368627282E+00 -0.57733513173E+01 -0.10727221642E+02  0.12221003838E+02  0.51100000000E-03 0. -1.
        -11    1    4    4    0    0  0.36762924997E+01  0.59553225069E+01  0.62019459980E+01  0.93512099285E+01  0.51100000000E-03 0.  1.
         12    1    4    4    0    0 -0.60183526510E+01  0.82823864557E+01 -0.31155817392E+02  0.32794869285E+02  0.00000000000E+00 0. -1.
</event>
<event>
 8    1  0.1262344E-006  0.9118800E+02  0.7816164E-02  0.1184000E+00
        -11   -1    0    0    0    0  0.00000000000E+00  0.00000000000E+00  0.45593999997E+02  0.45594000000E+02  0.51100000000E-03 0.  1.
         11   -1    0    0    0    0 -0.00000000000E+00 -0.00000000000E+00 -0.45593999997E+02  0.45594000000E+02  0.51100000000E-03 0. -1.
         23    2    1    2    0    0  0.00000000000E+00 -0.88817841970E-15  0.71054273576E-14  0.91188000000E+02  0.91188000000E+02 0.  0.
    9900012    2    3    3    0    0 -0.17274821872E+02  0.55735328268E+01 -0.32035915456E+02  0.54367032903E+02  0.39999883108E+02 0.  0.
        -12    1    3    3    0    0  0.17274821872E+02 -0.55735328268E+01  0.32035915456E+02  0.36820967097E+02  0.00000000000E+00 0.  1.
         11    1    4    4    0    0  0.23680957816E+01 -0.72278457085E+01 -0.85537756945E+01  0.11446253104E+02  0.51100000000E-03 0. -1.
        -11    1    4    4    0    0  0.59863906381E+01  0.77178779894E+01 -0.55997245910E+01  0.11258749011E+02  0.51100000000E-03 0.  1.
         12    1    4    4    0    0 -0.25629308291E+02  0.50835005458E+01 -0.17882415171E+02  0.31662030788E+02  0.00000000000E+00 0. -1.
</event>
<event>
 8    1  0.1262344E-006  0.9118800E+02  0.7816164E-02  0.1184000E+00
        -11   -1    0    0    0    0  0.00000000000E+00  0.00000000000E+00  0.45593999997E+02  0.45594000000E+02  0.51100000000E-03 0.  1.
         11   -1    0    0    0    0 -0.00000000000E+00 -0.00000000000E+00 -0.45593999997E+02  0.45594000000E+02  0.51100000000E-03 0. -1.
         23    2    1    2    0    0 -0.17763568394E-14  0.00000000000E+00  0.35527136788E-14  0.91188000000E+02  0.91188000000E+02 0.  0.
    9900012    2    3    3    0    0 -0.12454577094E+02 -0.20708764881E+02 -0.27781515268E+02  0.54367054546E+02  0.39999932449E+02 0.  0.
        -12    1    3    3    0    0  0.12454577094E+02  0.20708764881E+02  0.27781515268E+02  0.36820945454E+02  0.00000000000E+00 0.  1.
         11    1    4    4    0    0  0.77626316239E+01 -0.18668962329E+02 -0.14746226658E+02  0.25024783817E+02  0.51100000000E-03 0. -1.
        -11    1    4    4    0    0 -0.22791905918E+02 -0.38324637487E+01 -0.11979745322E+02  0.26032154195E+02  0.51100000000E-03 0.  1.
         12    1    4    4    0    0  0.25746972001E+01  0.17926611968E+01 -0.10555432876E+01  0.33101165343E+01  0.00000000000E+00 0. -1.
</event>
<event>
 8    1  0.1262344E-006  0.9118800E+02  0.7816164E-02  0.1184000E+00
        -11   -1    0    0    0    0  0.00000000000E+00  0.00000000000E+00  0.45593999997E+02  0.45594000000E+02  0.51100000000E-03 0. -1.
         11   -1    0    0    0    0 -0.00000000000E+00 -0.00000000000E+00 -0.45593999997E+02  0.45594000000E+02  0.51100000000E-03 0.  1.
         23    2    1    2    0    0  0.00000000000E+00  0.00000000000E+00  0.00000000000E+00  0.91188000000E+02  0.91188000000E+02 0.  0.
    9900012    2    3    3    0    0  0.12797776204E+02  0.26452816980E+02  0.22186582649E+02  0.54367094911E+02  0.40000024468E+02 0.  0.
        -12    1    3    3    0    0 -0.12797776204E+02 -0.26452816980E+02 -0.22186582649E+02  0.36820905089E+02  0.00000000000E+00 0.  1.
         11    1    4    4    0    0  0.10083843541E+02  0.30667882984E+01  0.17627286342E+02  0.20538021206E+02  0.51100000000E-03 0. -1.
        -11    1    4    4    0    0 -0.57379796865E+01 -0.18381820827E+01 -0.21434111582E+01  0.63951181307E+01  0.51100000000E-03 0.  1.
         12    1    4    4    0    0  0.84519123500E+01  0.25224210765E+02  0.67027074652E+01  0.27433955574E+02  0.00000000000E+00 0. -1.
</event>
<event>
 8    1  0.1262344E-006  0.9118800E+02  0.7816164E-02  0.1184000E+00
        -11   -1    0    0    0    0  0.00000000000E+00  0.00000000000E+00  0.45593999997E+02  0.45594000000E+02  0.51100000000E-03 0.  1.
         11   -1    0    0    0    0 -0.00000000000E+00 -0.00000000000E+00 -0.45593999997E+02  0.45594000000E+02  0.51100000000E-03 0. -1.
         23    2    1    2    0    0  0.35527136788E-14  0.00000000000E+00  0.35527136788E-14  0.91188000000E+02  0.91188000000E+02 0.  0.
    9900012    2    3    3    0    0  0.26186544663E+02 -0.17040399803E+02  0.19485096404E+02  0.54367091148E+02  0.40000015889E+02 0.  0.
         12    1    3    3    0    0 -0.26186544663E+02  0.17040399803E+02 -0.19485096404E+02  0.36820908852E+02  0.00000000000E+00 0. -1.
         11    1    4    4    0    0 -0.12120353503E+00  0.49075751644E+01 -0.10249340118E+01  0.50149251521E+01  0.51100000000E-03 0. -1.
        -11    1    4    4    0    0  0.18214435662E+02 -0.21304469761E+02  0.80593049265E+00  0.28040963295E+02  0.51100000000E-03 0.  1.
         12    1    4    4    0    0  0.80933125365E+01 -0.64350520579E+00  0.19704099923E+02  0.21311202701E+02  0.00000000000E+00 0. -1.
</event>
<event>
 8    1  0.1262344E-006  0.9118800E+02  0.7816164E-02  0.1184000E+00
        -11   -1    0    0    0    0  0.00000000000E+00  0.00000000000E+00  0.45593999997E+02  0.45594000000E+02  0.51100000000E-03 0.  1.
         11   -1    0    0    0    0 -0.00000000000E+00 -0.00000000000E+00 -0.45593999997E+02  0.45594000000E+02  0.51100000000E-03 0. -1.
         23    2    1    2    0    0 -0.71054273576E-14 -0.44408920985E-15  0.00000000000E+00  0.91188000000E+02  0.91188000000E+02 0.  0.
    9900012    2    3    3    0    0  0.34989944745E+02 -0.35636797973E+01 -0.10898817987E+02  0.54367078224E+02  0.39999986427E+02 0.  0.
        -12    1    3    3    0    0 -0.34989944745E+02  0.35636797973E+01  0.10898817987E+02  0.36820921776E+02  0.00000000000E+00 0.  1.
         11    1    4    4    0    0  0.38289607404E+01 -0.66698316914E+01 -0.68627556275E+01  0.10307522021E+02  0.51100000000E-03 0. -1.
        -11    1    4    4    0    0  0.60517606300E+01 -0.98620241086E+01  0.72216125033E+01  0.13639465299E+02  0.51100000000E-03 0.  1.
         12    1    4    4    0    0  0.25109223374E+02  0.12968176003E+02 -0.11257674863E+02  0.30420090904E+02  0.00000000000E+00 0. -1.
</event>
<event>
 8    1  0.1262344E-006  0.9118800E+02  0.7816164E-02  0.1184000E+00
        -11   -1    0    0    0    0  0.00000000000E+00  0.00000000000E+00  0.45593999997E+02  0.45594000000E+02  0.51100000000E-03 0. -1.
         11   -1    0    0    0    0 -0.00000000000E+00 -0.00000000000E+00 -0.45593999997E+02  0.45594000000E+02  0.51100000000E-03 0.  1.
         23    2    1    2    0    0  0.00000000000E+00  0.00000000000E+00  0.00000000000E+00  0.91188000000E+02  0.91188000000E+02 0.  0.
    9900012    2    3    3    0    0 -0.19222098055E+02  0.12052248942E+02  0.29000593771E+02  0.54367079353E+02  0.39999989001E+02 0.  0.
        -12    1    3    3    0    0  0.19222098055E+02 -0.12052248942E+02 -0.29000593771E+02  0.36820920647E+02  0.00000000000E+00 0.  1.
         11    1    4    4    0    0 -0.24451566263E+01  0.53097443250E+00  0.22097698704E+02  0.22238907640E+02  0.51100000000E-03 0. -1.
        -11    1    4    4    0    0 -0.10862313694E+02  0.14400052704E+02 -0.48336508474E+01  0.18673927210E+02  0.51100000000E-03 0.  1.
        -12    1    4    4    0    0 -0.59146277353E+01 -0.28787781943E+01  0.11736545915E+02  0.13454244503E+02  0.00000000000E+00 0.  1.
</event>
<event>
 8    1  0.1262344E-006  0.9118800E+02  0.7816164E-02  0.1184000E+00
        -11   -1    0    0    0    0  0.00000000000E+00  0.00000000000E+00  0.45593999997E+02  0.45594000000E+02  0.51100000000E-03 0. -1.
         11   -1    0    0    0    0 -0.00000000000E+00 -0.00000000000E+00 -0.45593999997E+02  0.45594000000E+02  0.51100000000E-03 0.  1.
         23    2    1    2    0    0  0.11102230246E-15  0.00000000000E+00  0.00000000000E+00  0.91188000000E+02  0.91188000000E+02 0.  0.
    9900012    2    3    3    0    0 -0.74847717840E+00 -0.29275338891E+02  0.22319835798E+02  0.54367071776E+02  0.39999971728E+02 0.  0.
        -12    1    3    3    0    0  0.74847717840E+00  0.29275338891E+02 -0.22319835798E+02  0.36820928224E+02  0.00000000000E+00 0.  1.
         11    1    4    4    0    0  0.39335700451E+01 -0.14615147517E+01  0.15425856109E+02  0.15986432861E+02  0.51100000000E-03 0. -1.
        -11    1    4    4    0    0  0.50475840509E+01 -0.90881633377E+01 -0.75153670675E+01  0.12827843156E+02  0.51100000000E-03 0.  1.
         12    1    4    4    0    0 -0.97296312744E+01 -0.18725660801E+02  0.14409346756E+02  0.25552795759E+02  0.00000000000E+00 0. -1.
</event>
<event>
 8    1  0.1262344E-006  0.9118800E+02  0.7816164E-02  0.1184000E+00
        -11   -1    0    0    0    0  0.00000000000E+00  0.00000000000E+00  0.45593999997E+02  0.45594000000E+02  0.51100000000E-03 0.  1.
         11   -1    0    0    0    0 -0.00000000000E+00 -0.00000000000E+00 -0.45593999997E+02  0.45594000000E+02  0.51100000000E-03 0. -1.
         23    2    1    2    0    0  0.00000000000E+00 -0.17763568394E-14  0.00000000000E+00  0.91188000000E+02  0.91188000000E+02 0.  0.
    9900012    2    3    3    0    0  0.22682884196E+02 -0.10523288078E+02 -0.27028087368E+02  0.54367213286E+02  0.40000294327E+02 0.  0.
        -12    1    3    3    0    0 -0.22682884196E+02  0.10523288078E+02  0.27028087368E+02  0.36820786714E+02  0.00000000000E+00 0.  1.
         11    1    4    4    0    0  0.91617159163E+00  0.77365371213E+01 -0.76462039149E+01  0.10915943000E+02  0.51100000000E-03 0. -1.
        -11    1    4    4    0    0 -0.37298631390E+01 -0.58057710153E+01  0.27872169111E+01  0.74422734759E+01  0.51100000000E-03 0.  1.
         12    1    4    4    0    0  0.25496575744E+02 -0.12454054184E+02 -0.22169100365E+02  0.36008996810E+02  0.00000000000E+00 0. -1.
</event>
<event>
 8    1  0.1262344E-006  0.9118800E+02  0.7816164E-02  0.1184000E+00
        -11   -1    0    0    0    0  0.00000000000E+00  0.00000000000E+00  0.45593999997E+02  0.45594000000E+02  0.51100000000E-03 0.  1.
         11   -1    0    0    0    0 -0.00000000000E+00 -0.00000000000E+00 -0.45593999997E+02  0.45594000000E+02  0.51100000000E-03 0. -1.
         23    2    1    2    0    0  0.00000000000E+00 -0.17763568394E-14  0.00000000000E+00  0.91188000000E+02  0.91188000000E+02 0.  0.
    9900012    2    3    3    0    0  0.20857949149E+02  0.14290145054E+02  0.26767850123E+02  0.54367080829E+02  0.39999992367E+02 0.  0.
         12    1    3    3    0    0 -0.20857949149E+02 -0.14290145054E+02 -0.26767850123E+02  0.36820919171E+02  0.00000000000E+00 0. -1.
         11    1    4    4    0    0  0.26350685362E+01  0.12109560939E+02  0.94124050778E+01  0.15562082827E+02  0.51100000000E-03 0.  1.
        -11    1    4    4    0    0  0.18450529019E+02  0.46910362506E+01 -0.21307760301E+01  0.19156410126E+02  0.51100000000E-03 0. -1.
        -12    1    4    4    0    0 -0.22764840619E+00 -0.25104521349E+01  0.19486221075E+02  0.19648587876E+02  0.00000000000E+00 0.  1.
</event>
<event>
 8    1  0.1262344E-006  0.9118800E+02  0.7816164E-02  0.1184000E+00
        -11   -1    0    0    0    0  0.00000000000E+00  0.00000000000E+00  0.45593999997E+02  0.45594000000E+02  0.51100000000E-03 0.  1.
         11   -1    0    0    0    0 -0.00000000000E+00 -0.00000000000E+00 -0.45593999997E+02  0.45594000000E+02  0.51100000000E-03 0. -1.
         23    2    1    2    0    0  0.00000000000E+00  0.00000000000E+00  0.00000000000E+00  0.91188000000E+02  0.91188000000E+02 0.  0.
    9900012    2    3    3    0    0  0.27213780539E+02 -0.86892420455E+01 -0.23231161378E+02  0.54367086954E+02  0.40000006329E+02 0.  0.
        -12    1    3    3    0    0 -0.27213780539E+02  0.86892420455E+01  0.23231161378E+02  0.36820913046E+02  0.00000000000E+00 0.  1.
         11    1    4    4    0    0  0.53414635726E+01 -0.82475683309E+01 -0.19102434968E+02  0.21481541807E+02  0.51100000000E-03 0. -1.
        -11    1    4    4    0    0  0.18560000060E+02 -0.10964631752E+02 -0.19930324869E+01  0.21648762792E+02  0.51100000000E-03 0.  1.
        -12    1    4    4    0    0  0.33123169068E+01  0.10522958037E+02 -0.21356939235E+01  0.11236782354E+02  0.00000000000E+00 0.  1.
</event>
<event>
 8    1  0.1262344E-006  0.9118800E+02  0.7816164E-02  0.1184000E+00
        -11   -1    0    0    0    0  0.00000000000E+00  0.00000000000E+00  0.45593999997E+02  0.45594000000E+02  0.51100000000E-03 0. -1.
         11   -1    0    0    0    0 -0.00000000000E+00 -0.00000000000E+00 -0.45593999997E+02  0.45594000000E+02  0.51100000000E-03 0.  1.
         23    2    1    2    0    0  0.35527136788E-14  0.00000000000E+00  0.00000000000E+00  0.91188000000E+02  0.91188000000E+02 0.  0.
    9900012    2    3    3    0    0  0.19521261675E+02  0.28602757121E+02  0.12513324994E+02  0.54367072870E+02  0.39999974222E+02 0.  0.
        -12    1    3    3    0    0 -0.19521261675E+02 -0.28602757121E+02 -0.12513324994E+02  0.36820927130E+02  0.00000000000E+00 0.  1.
         11    1    4    4    0    0  0.17435053792E+02  0.34535637029E+01 -0.46821383712E+01  0.18380169286E+02  0.51100000000E-03 0. -1.
        -11    1    4    4    0    0 -0.84557571233E+01  0.12320027759E+02  0.69915962105E+01  0.16497434054E+02  0.51100000000E-03 0.  1.
         12    1    4    4    0    0  0.10541965006E+02  0.12829165658E+02  0.10203867155E+02  0.19489469531E+02  0.00000000000E+00 0. -1.
</event>
<event>
 8    1  0.1262344E-006  0.9118800E+02  0.7816164E-02  0.1184000E+00
        -11   -1    0    0    0    0  0.00000000000E+00  0.00000000000E+00  0.45593999997E+02  0.45594000000E+02  0.51100000000E-03 0. -1.
         11   -1    0    0    0    0 -0.00000000000E+00 -0.00000000000E+00 -0.45593999997E+02  0.45594000000E+02  0.51100000000E-03 0.  1.
         23    2    1    2    0    0  0.17763568394E-14 -0.35527136788E-14  0.00000000000E+00  0.91188000000E+02  0.91188000000E+02 0.  0.
    9900012    2    3    3    0    0  0.96861175583E+01  0.29159895180E+02  0.20289392800E+02  0.54367084470E+02  0.40000000666E+02 0.  0.
        -12    1    3    3    0    0 -0.96861175583E+01 -0.29159895180E+02 -0.20289392800E+02  0.36820915530E+02  0.00000000000E+00 0.  1.
         11    1    4    4    0    0  0.16147922589E+02  0.31217905157E+02  0.17326794916E+02  0.39185849853E+02  0.51100000000E-03 0. -1.
        -11    1    4    4    0    0 -0.21325820226E+01  0.24089124381E+01 -0.44583375787E+01  0.54979577522E+01  0.51100000000E-03 0.  1.
        -12    1    4    4    0    0 -0.43292230083E+01 -0.44669224149E+01  0.74209354620E+01  0.96832768651E+01  0.00000000000E+00 0.  1.
</event>
<event>
 8    1  0.1262344E-006  0.9118800E+02  0.7816164E-02  0.1184000E+00
        -11   -1    0    0    0    0  0.00000000000E+00  0.00000000000E+00  0.45593999997E+02  0.45594000000E+02  0.51100000000E-03 0.  1.
         11   -1    0    0    0    0 -0.00000000000E+00 -0.00000000000E+00 -0.45593999997E+02  0.45594000000E+02  0.51100000000E-03 0. -1.
         23    2    1    2    0    0  0.00000000000E+00 -0.35527136788E-14  0.00000000000E+00  0.91188000000E+02  0.91188000000E+02 0.  0.
    9900012    2    3    3    0    0 -0.17454727204E+02 -0.23139391904E+02 -0.22708607163E+02  0.54367084765E+02  0.40000001339E+02 0.  0.
        -12    1    3    3    0    0  0.17454727204E+02  0.23139391904E+02  0.22708607163E+02  0.36820915235E+02  0.00000000000E+00 0.  1.
         11    1    4    4    0    0 -0.20940768445E+02 -0.18661406438E+02 -0.13877255738E+02  0.31294442005E+02  0.51100000000E-03 0. -1.
        -11    1    4    4    0    0  0.84816269374E+01  0.52754591922E+01 -0.20837102319E+01  0.10203446172E+02  0.51100000000E-03 0.  1.
        -12    1    4    4    0    0 -0.49955856964E+01 -0.97534446585E+01 -0.67476411926E+01  0.12869196588E+02  0.00000000000E+00 0.  1.
</event>
<event>
 8    1  0.1262344E-006  0.9118800E+02  0.7816164E-02  0.1184000E+00
        -11   -1    0    0    0    0  0.00000000000E+00  0.00000000000E+00  0.45593999997E+02  0.45594000000E+02  0.51100000000E-03 0. -1.
         11   -1    0    0    0    0 -0.00000000000E+00 -0.00000000000E+00 -0.45593999997E+02  0.45594000000E+02  0.51100000000E-03 0.  1.
         23    2    1    2    0    0  0.00000000000E+00 -0.88817841970E-15  0.00000000000E+00  0.91188000000E+02  0.91188000000E+02 0.  0.
    9900012    2    3    3    0    0  0.18165378699E+02  0.28091781705E+01  0.31904660986E+02  0.54367083962E+02  0.39999999508E+02 0.  0.
        -12    1    3    3    0    0 -0.18165378699E+02 -0.28091781705E+01 -0.31904660986E+02  0.36820916038E+02  0.00000000000E+00 0.  1.
         11    1    4    4    0    0  0.10588468288E+02 -0.88454003177E+01  0.18093505999E+02  0.22753718972E+02  0.51100000000E-03 0. -1.
        -11    1    4    4    0    0  0.14221220297E+02  0.16458846049E+00  0.11160830493E+02  0.18078560055E+02  0.51100000000E-03 0.  1.
        -12    1    4    4    0    0 -0.66443098859E+01  0.11489990028E+02  0.26503244936E+01  0.13534804935E+02  0.00000000000E+00 0.  1.
</event>
<event>
 8    1  0.1262344E-006  0.9118800E+02  0.7816164E-02  0.1184000E+00
        -11   -1    0    0    0    0  0.00000000000E+00  0.00000000000E+00  0.45593999997E+02  0.45594000000E+02  0.51100000000E-03 0.  1.
         11   -1    0    0    0    0 -0.00000000000E+00 -0.00000000000E+00 -0.45593999997E+02  0.45594000000E+02  0.51100000000E-03 0. -1.
         23    2    1    2    0    0  0.88817841970E-15  0.17763568394E-14  0.00000000000E+00  0.91188000000E+02  0.91188000000E+02 0.  0.
    9900012    2    3    3    0    0 -0.52983177841E+01  0.70733263552E+01  0.35744586102E+02  0.54367088106E+02  0.40000008955E+02 0.  0.
         12    1    3    3    0    0  0.52983177841E+01 -0.70733263552E+01 -0.35744586102E+02  0.36820911894E+02  0.00000000000E+00 0. -1.
         11    1    4    4    0    0 -0.11966187709E+02  0.72141565346E+01  0.59927307534E+01  0.15203503706E+02  0.51100000000E-03 0. -1.
        -11    1    4    4    0    0  0.15249021873E+02  0.23298905137E+01  0.24038828587E+02  0.28562673859E+02  0.51100000000E-03 0.  1.
        -12    1    4    4    0    0 -0.85811519481E+01 -0.24707206930E+01  0.57130267621E+01  0.10600910540E+02  0.00000000000E+00 0.  1.
</event>
<event>
 8    1  0.1262344E-006  0.9118800E+02  0.7816164E-02  0.1184000E+00
        -11   -1    0    0    0    0  0.00000000000E+00  0.00000000000E+00  0.45593999997E+02  0.45594000000E+02  0.51100000000E-03 0. -1.
         11   -1    0    0    0    0 -0.00000000000E+00 -0.00000000000E+00 -0.45593999997E+02  0.45594000000E+02  0.51100000000E-03 0.  1.
         23    2    1    2    0    0  0.17763568394E-14  0.00000000000E+00  0.00000000000E+00  0.91188000000E+02  0.91188000000E+02 0.  0.
    9900012    2    3    3    0    0 -0.10478795643E+02  0.21897378959E+02 -0.27685295282E+02  0.54367137187E+02  0.40000120846E+02 0.  0.
         12    1    3    3    0    0  0.10478795643E+02 -0.21897378959E+02  0.27685295282E+02  0.36820862813E+02  0.00000000000E+00 0. -1.
         11    1    4    4    0    0 -0.31737809418E+01  0.75274237991E+01 -0.95521965528E+00  0.82248063423E+01  0.51100000000E-03 0. -1.
        -11    1    4    4    0    0 -0.79751669654E+01  0.21968533604E+02 -0.29841339882E+02  0.37904159707E+02  0.51100000000E-03 0.  1.
        -12    1    4    4    0    0  0.67015226429E+00 -0.75985784442E+01  0.31112642558E+01  0.82381711380E+01  0.00000000000E+00 0.  1.
</event>
<event>
 8    1  0.1262344E-006  0.9118800E+02  0.7816164E-02  0.1184000E+00
        -11   -1    0    0    0    0  0.00000000000E+00  0.00000000000E+00  0.45593999997E+02  0.45594000000E+02  0.51100000000E-03 0.  1.
         11   -1    0    0    0    0 -0.00000000000E+00 -0.00000000000E+00 -0.45593999997E+02  0.45594000000E+02  0.51100000000E-03 0. -1.
         23    2    1    2    0    0  0.00000000000E+00 -0.88817841970E-15  0.00000000000E+00  0.91188000000E+02  0.91188000000E+02 0.  0.
    9900012    2    3    3    0    0 -0.34121780894E+02 -0.46800898733E+01 -0.13022394376E+02  0.54367055853E+02  0.39999935428E+02 0.  0.
         12    1    3    3    0    0  0.34121780894E+02  0.46800898733E+01  0.13022394376E+02  0.36820944147E+02  0.00000000000E+00 0. -1.
         11    1    4    4    0    0 -0.16069124618E+02  0.15529026089E+02 -0.13928621399E+02  0.26331994068E+02  0.51100000000E-03 0. -1.
        -11    1    4    4    0    0 -0.10297338561E+02 -0.85396507209E+01 -0.25149242421E+01  0.13611967531E+02  0.51100000000E-03 0.  1.
         12    1    4    4    0    0 -0.77553177152E+01 -0.11669465241E+02  0.34211512646E+01  0.14423094254E+02  0.00000000000E+00 0. -1.
</event>
<event>
 8    1  0.1262344E-006  0.9118800E+02  0.7816164E-02  0.1184000E+00
        -11   -1    0    0    0    0  0.00000000000E+00  0.00000000000E+00  0.45593999997E+02  0.45594000000E+02  0.51100000000E-03 0.  1.
         11   -1    0    0    0    0 -0.00000000000E+00 -0.00000000000E+00 -0.45593999997E+02  0.45594000000E+02  0.51100000000E-03 0. -1.
         23    2    1    2    0    0 -0.35527136788E-14  0.35527136788E-14 -0.35527136788E-14  0.91188000000E+02  0.91188000000E+02 0.  0.
    9900012    2    3    3    0    0 -0.21339992632E+02  0.20580344997E+02 -0.21836503154E+02  0.54367098928E+02  0.40000033626E+02 0.  0.
        -12    1    3    3    0    0  0.21339992632E+02 -0.20580344997E+02  0.21836503154E+02  0.36820901072E+02  0.00000000000E+00 0.  1.
         11    1    4    4    0    0  0.25517350294E+01  0.29943946005E+01 -0.59140088179E+01  0.71030452091E+01  0.51100000000E-03 0. -1.
        -11    1    4    4    0    0 -0.15264191541E+01 -0.96086202024E+00  0.88807509344E+01  0.90620609508E+01  0.51100000000E-03 0.  1.
         12    1    4    4    0    0 -0.22365308508E+02  0.18546812417E+02 -0.24803245271E+02  0.38201992768E+02  0.00000000000E+00 0. -1.
</event>
<event>
 8    1  0.1262344E-006  0.9118800E+02  0.7816164E-02  0.1184000E+00
        -11   -1    0    0    0    0  0.00000000000E+00  0.00000000000E+00  0.45593999997E+02  0.45594000000E+02  0.51100000000E-03 0.  1.
         11   -1    0    0    0    0 -0.00000000000E+00 -0.00000000000E+00 -0.45593999997E+02  0.45594000000E+02  0.51100000000E-03 0. -1.
         23    2    1    2    0    0  0.00000000000E+00  0.17763568394E-14  0.71054273576E-14  0.91188000000E+02  0.91188000000E+02 0.  0.
    9900012    2    3    3    0    0 -0.17794688679E+02 -0.10082842605E+02 -0.30618053985E+02  0.54367083525E+02  0.39999998512E+02 0.  0.
        -12    1    3    3    0    0  0.17794688679E+02  0.10082842605E+02  0.30618053985E+02  0.36820916475E+02  0.00000000000E+00 0.  1.
         11    1    4    4    0    0 -0.10477183741E+02 -0.11523627120E+02  0.18832452721E+01  0.15687956342E+02  0.51100000000E-03 0.  1.
        -11    1    4    4    0    0 -0.88898884683E+01  0.27685099734E+01 -0.40503124784E+01  0.10153806965E+02  0.51100000000E-03 0. -1.
         12    1    4    4    0    0  0.15723835304E+01 -0.13277254584E+01 -0.28450986779E+02  0.28525320219E+02  0.00000000000E+00 0. -1.
</event>
<event>
 8    1  0.1262344E-006  0.9118800E+02  0.7816164E-02  0.1184000E+00
        -11   -1    0    0    0    0  0.00000000000E+00  0.00000000000E+00  0.45593999997E+02  0.45594000000E+02  0.51100000000E-03 0.  1.
         11   -1    0    0    0    0 -0.00000000000E+00 -0.00000000000E+00 -0.45593999997E+02  0.45594000000E+02  0.51100000000E-03 0. -1.
         23    2    1    2    0    0  0.00000000000E+00  0.88817841970E-15  0.00000000000E+00  0.91188000000E+02  0.91188000000E+02 0.  0.
    9900012    2    3    3    0    0  0.31135397334E+02 -0.61131121347E+01  0.18681507887E+02  0.54367056992E+02  0.39999938024E+02 0.  0.
         12    1    3    3    0    0 -0.31135397334E+02  0.61131121347E+01 -0.18681507887E+02  0.36820943008E+02  0.00000000000E+00 0. -1.
         11    1    4    4    0    0 -0.23366813258E+01 -0.40850971067E+01 -0.51942265174E+01  0.70091431263E+01  0.51100000000E-03 0. -1.
        -11    1    4    4    0    0  0.41927584818E+01 -0.25604221288E+01  0.16420512672E+02  0.17139668078E+02  0.51100000000E-03 0.  1.
        -12    1    4    4    0    0  0.29279320177E+02  0.53240710080E+00  0.74552217331E+01  0.30218245787E+02  0.00000000000E+00 0.  1.
</event>
<event>
 8    1  0.1262344E-006  0.9118800E+02  0.7816164E-02  0.1184000E+00
        -11   -1    0    0    0    0  0.00000000000E+00  0.00000000000E+00  0.45593999997E+02  0.45594000000E+02  0.51100000000E-03 0. -1.
         11   -1    0    0    0    0 -0.00000000000E+00 -0.00000000000E+00 -0.45593999997E+02  0.45594000000E+02  0.51100000000E-03 0.  1.
         23    2    1    2    0    0  0.00000000000E+00 -0.17763568394E-14  0.00000000000E+00  0.91188000000E+02  0.91188000000E+02 0.  0.
    9900012    2    3    3    0    0  0.32590642912E+02  0.15704933617E+02  0.68545295857E+01  0.54367088535E+02  0.40000009933E+02 0.  0.
         12    1    3    3    0    0 -0.32590642912E+02 -0.15704933617E+02 -0.68545295857E+01  0.36820911465E+02  0.00000000000E+00 0. -1.
         11    1    4    4    0    0  0.50665066937E+00 -0.91031614711E+01 -0.36653764281E+01  0.98264555304E+01  0.51100000000E-03 0. -1.
        -11    1    4    4    0    0  0.12721046502E+02  0.19322778435E+02  0.49289329902E+01  0.23653523442E+02  0.51100000000E-03 0.  1.
         12    1    4    4    0    0  0.19362945740E+02  0.54853166532E+01  0.55909730236E+01  0.20887109562E+02  0.00000000000E+00 0. -1.
</event>
<event>
 8    1  0.1262344E-006  0.9118800E+02  0.7816164E-02  0.1184000E+00
        -11   -1    0    0    0    0  0.00000000000E+00  0.00000000000E+00  0.45593999997E+02  0.45594000000E+02  0.51100000000E-03 0. -1.
         11   -1    0    0    0    0 -0.00000000000E+00 -0.00000000000E+00 -0.45593999997E+02  0.45594000000E+02  0.51100000000E-03 0.  1.
         23    2    1    2    0    0  0.00000000000E+00 -0.35527136788E-14  0.35527136788E-14  0.91188000000E+02  0.91188000000E+02 0.  0.
    9900012    2    3    3    0    0 -0.21949171445E+02  0.17081217348E+02  0.24129877251E+02  0.54367012923E+02  0.39999837560E+02 0.  0.
        -12    1    3    3    0    0  0.21949171445E+02 -0.17081217348E+02 -0.24129877251E+02  0.36820987077E+02  0.00000000000E+00 0.  1.
         11    1    4    4    0    0 -0.19472779798E+02  0.88982414664E+01  0.97153850314E+01  0.23510775419E+02  0.51100000000E-03 0. -1.
        -11    1    4    4    0    0 -0.84691722580E+01  0.11251925036E+02 -0.91557647264E+00  0.14112794773E+02  0.51100000000E-03 0.  1.
        -12    1    4    4    0    0  0.59927806108E+01 -0.30689491551E+01  0.15330068692E+02  0.16743442731E+02  0.00000000000E+00 0.  1.
</event>
<event>
 8    1  0.1262344E-006  0.9118800E+02  0.7816164E-02  0.1184000E+00
        -11   -1    0    0    0    0  0.00000000000E+00  0.00000000000E+00  0.45593999997E+02  0.45594000000E+02  0.51100000000E-03 0. -1.
         11   -1    0    0    0    0 -0.00000000000E+00 -0.00000000000E+00 -0.45593999997E+02  0.45594000000E+02  0.51100000000E-03 0.  1.
         23    2    1    2    0    0 -0.44408920985E-15 -0.44408920985E-15 -0.71054273576E-14  0.91188000000E+02  0.91188000000E+02 0.  0.
    9900012    2    3    3    0    0 -0.37207132048E+01  0.20552167959E+01 -0.36574742175E+02  0.54367090343E+02  0.40000014054E+02 0.  0.
         12    1    3    3    0    0  0.37207132048E+01 -0.20552167959E+01  0.36574742175E+02  0.36820909657E+02  0.00000000000E+00 0. -1.
         11    1    4    4    0    0 -0.31532259336E+01 -0.12160622776E+01  0.71175488271E+01  0.78791587634E+01  0.51100000000E-03 0. -1.
        -11    1    4    4    0    0 -0.26057572296E+00  0.88800283369E+01 -0.16685182821E+02  0.18902860339E+02  0.51100000000E-03 0.  1.
         12    1    4    4    0    0 -0.30691154821E+00 -0.56087492634E+01 -0.27007108182E+02  0.27585071240E+02  0.00000000000E+00 0. -1.
</event>
<event>
 8    1  0.1262344E-006  0.9118800E+02  0.7816164E-02  0.1184000E+00
        -11   -1    0    0    0    0  0.00000000000E+00  0.00000000000E+00  0.45593999997E+02  0.45594000000E+02  0.51100000000E-03 0. -1.
         11   -1    0    0    0    0 -0.00000000000E+00 -0.00000000000E+00 -0.45593999997E+02  0.45594000000E+02  0.51100000000E-03 0.  1.
         23    2    1    2    0    0  0.00000000000E+00  0.00000000000E+00  0.00000000000E+00  0.91188000000E+02  0.91188000000E+02 0.  0.
    9900012    2    3    3    0    0  0.34094282737E+02  0.48189575963E+01 -0.13043649475E+02  0.54367092091E+02  0.40000018039E+02 0.  0.
        -12    1    3    3    0    0 -0.34094282737E+02 -0.48189575963E+01  0.13043649475E+02  0.36820907909E+02  0.00000000000E+00 0.  1.
         11    1    4    4    0    0  0.21622538600E+02 -0.10397053587E+01  0.95924016706E+01  0.23677612482E+02  0.51100000000E-03 0. -1.
        -11    1    4    4    0    0  0.13848797931E+02  0.93834607547E+01 -0.16611414500E+02  0.23574936518E+02  0.51100000000E-03 0.  1.
         12    1    4    4    0    0 -0.13770537948E+01 -0.35247977997E+01 -0.60246366458E+01  0.71145430912E+01  0.00000000000E+00 0. -1.
</event>
<event>
 8    1  0.1262344E-006  0.9118800E+02  0.7816164E-02  0.1184000E+00
        -11   -1    0    0    0    0  0.00000000000E+00  0.00000000000E+00  0.45593999997E+02  0.45594000000E+02  0.51100000000E-03 0.  1.
         11   -1    0    0    0    0 -0.00000000000E+00 -0.00000000000E+00 -0.45593999997E+02  0.45594000000E+02  0.51100000000E-03 0. -1.
         23    2    1    2    0    0  0.00000000000E+00 -0.66613381478E-15 -0.71054273576E-14  0.91188000000E+02  0.91188000000E+02 0.  0.
    9900012    2    3    3    0    0 -0.46183374049E+01 -0.18171067344E+01 -0.36484921414E+02  0.54367076493E+02  0.39999982482E+02 0.  0.
        -12    1    3    3    0    0  0.46183374049E+01  0.18171067344E+01  0.36484921414E+02  0.36820923507E+02  0.00000000000E+00 0.  1.
         11    1    4    4    0    0 -0.11627934040E+01 -0.49475096735E-01  0.59137389102E+01  0.60271754948E+01  0.51100000000E-03 0.  1.
        -11    1    4    4    0    0 -0.33905328915E+01 -0.85646916670E+01 -0.53075258210E+01  0.10631062376E+02  0.51100000000E-03 0. -1.
         12    1    4    4    0    0 -0.65011109323E-01  0.67970600293E+01 -0.37091134504E+02  0.37708838622E+02  0.00000000000E+00 0. -1.
</event>
<event>
 8    1  0.1262344E-006  0.9118800E+02  0.7816164E-02  0.1184000E+00
        -11   -1    0    0    0    0  0.00000000000E+00  0.00000000000E+00  0.45593999997E+02  0.45594000000E+02  0.51100000000E-03 0. -1.
         11   -1    0    0    0    0 -0.00000000000E+00 -0.00000000000E+00 -0.45593999997E+02  0.45594000000E+02  0.51100000000E-03 0.  1.
         23    2    1    2    0    0 -0.35527136788E-14  0.35527136788E-14  0.00000000000E+00  0.91188000000E+02  0.91188000000E+02 0.  0.
    9900012    2    3    3    0    0 -0.17657797672E+02  0.25383136992E+02 -0.19991945591E+02  0.54367090850E+02  0.40000015210E+02 0.  0.
         12    1    3    3    0    0  0.17657797672E+02 -0.25383136992E+02  0.19991945591E+02  0.36820909150E+02  0.00000000000E+00 0. -1.
         11    1    4    4    0    0  0.39677282605E+01 -0.41918613846E+01 -0.11677566235E+02  0.13026132306E+02  0.51100000000E-03 0. -1.
        -11    1    4    4    0    0 -0.14977509388E+01  0.10137940969E+02  0.36923095936E+01  0.10892853408E+02  0.51100000000E-03 0.  1.
        -12    1    4    4    0    0 -0.20127774993E+02  0.19437057407E+02 -0.12006688949E+02  0.30448105136E+02  0.00000000000E+00 0.  1.
</event>
<event>
 8    1  0.1262344E-006  0.9118800E+02  0.7816164E-02  0.1184000E+00
        -11   -1    0    0    0    0  0.00000000000E+00  0.00000000000E+00  0.45593999997E+02  0.45594000000E+02  0.51100000000E-03 0.  1.
         11   -1    0    0    0    0 -0.00000000000E+00 -0.00000000000E+00 -0.45593999997E+02  0.45594000000E+02  0.51100000000E-03 0. -1.
         23    2    1    2    0    0  0.35527136788E-14  0.00000000000E+00 -0.17763568394E-14  0.91188000000E+02  0.91188000000E+02 0.  0.
    9900012    2    3    3    0    0 -0.16661121323E+02 -0.30406247287E+02 -0.12395466778E+02  0.54367076132E+02  0.39999981659E+02 0.  0.
         12    1    3    3    0    0  0.16661121323E+02  0.30406247287E+02  0.12395466778E+02  0.36820923868E+02  0.00000000000E+00 0. -1.
         11    1    4    4    0    0  0.33678249383E+01 -0.17701763565E+02 -0.11871071988E+02  0.21578160916E+02  0.51100000000E-03 0. -1.
        -11    1    4    4    0    0 -0.15639551582E+02 -0.11419978477E+02 -0.10345284989E+02  0.21955327460E+02  0.51100000000E-03 0.  1.
         12    1    4    4    0    0 -0.43893946799E+01 -0.12845052446E+01  0.98208901989E+01  0.10833587756E+02  0.00000000000E+00 0. -1.
</event>
<event>
 8    1  0.1262344E-006  0.9118800E+02  0.7816164E-02  0.1184000E+00
        -11   -1    0    0    0    0  0.00000000000E+00  0.00000000000E+00  0.45593999997E+02  0.45594000000E+02  0.51100000000E-03 0.  1.
         11   -1    0    0    0    0 -0.00000000000E+00 -0.00000000000E+00 -0.45593999997E+02  0.45594000000E+02  0.51100000000E-03 0. -1.
         23    2    1    2    0    0  0.11102230246E-14  0.00000000000E+00 -0.35527136788E-14  0.91188000000E+02  0.91188000000E+02 0.  0.
    9900012    2    3    3    0    0  0.42947821575E+00  0.20567920853E+02 -0.30537808316E+02  0.54367060896E+02  0.39999946925E+02 0.  0.
        -12    1    3    3    0    0 -0.42947821575E+00 -0.20567920853E+02  0.30537808316E+02  0.36820939104E+02  0.00000000000E+00 0.  1.
         11    1    4    4    0    0  0.76704441937E+01  0.14366864182E+02 -0.26777380254E+02  0.31341196437E+02  0.51100000000E-03 0. -1.
        -11    1    4    4    0    0 -0.10841708406E+02  0.80259998897E+01 -0.91444001005E+01  0.16296606053E+02  0.51100000000E-03 0.  1.
        -12    1    4    4    0    0  0.36007424277E+01 -0.18249432184E+01  0.53839720390E+01  0.67292584062E+01  0.00000000000E+00 0.  1.
</event>
<event>
 8    1  0.1262344E-006  0.9118800E+02  0.7816164E-02  0.1184000E+00
        -11   -1    0    0    0    0  0.00000000000E+00  0.00000000000E+00  0.45593999997E+02  0.45594000000E+02  0.51100000000E-03 0.  1.
         11   -1    0    0    0    0 -0.00000000000E+00 -0.00000000000E+00 -0.45593999997E+02  0.45594000000E+02  0.51100000000E-03 0. -1.
         23    2    1    2    0    0  0.00000000000E+00  0.00000000000E+00  0.00000000000E+00  0.91188000000E+02  0.91188000000E+02 0.  0.
    9900012    2    3    3    0    0  0.28635002277E+02  0.56335372144E+01 -0.22451748255E+02  0.54367067141E+02  0.39999961161E+02 0.  0.
        -12    1    3    3    0    0 -0.28635002277E+02 -0.56335372144E+01  0.22451748255E+02  0.36820932859E+02  0.00000000000E+00 0.  1.
         11    1    4    4    0    0  0.12450360488E+02  0.30177486031E+01 -0.23654332852E+02  0.26900664413E+02  0.51100000000E-03 0. -1.
        -11    1    4    4    0    0 -0.55364094921E+01  0.50413656099E+00 -0.46875762832E+00  0.55790427236E+01  0.51100000000E-03 0.  1.
         12    1    4    4    0    0  0.21721051280E+02  0.21116520503E+01  0.16713422260E+01  0.21887360004E+02  0.00000000000E+00 0. -1.
</event>
<event>
 8    1  0.1262344E-006  0.9118800E+02  0.7816164E-02  0.1184000E+00
        -11   -1    0    0    0    0  0.00000000000E+00  0.00000000000E+00  0.45593999997E+02  0.45594000000E+02  0.51100000000E-03 0.  1.
         11   -1    0    0    0    0 -0.00000000000E+00 -0.00000000000E+00 -0.45593999997E+02  0.45594000000E+02  0.51100000000E-03 0. -1.
         23    2    1    2    0    0  0.00000000000E+00 -0.17763568394E-14 -0.31086244690E-14  0.91188000000E+02  0.91188000000E+02 0.  0.
    9900012    2    3    3    0    0  0.35134815624E+02  0.10790138518E+02  0.22136436133E+01  0.54367047049E+02  0.39999915357E+02 0.  0.
        -12    1    3    3    0    0 -0.35134815624E+02 -0.10790138518E+02 -0.22136436133E+01  0.36820952951E+02  0.00000000000E+00 0.  1.
         11    1    4    4    0    0  0.30931958639E+02  0.70405196094E+01 -0.13269407414E+02  0.34386511236E+02  0.51100000000E-03 0. -1.
        -11    1    4    4    0    0 -0.21927546616E+01  0.16027368337E+01 -0.38000921316E+00  0.27425071791E+01  0.51100000000E-03 0.  1.
         12    1    4    4    0    0  0.63956116474E+01  0.21468820749E+01  0.15863060240E+02  0.17238028634E+02  0.00000000000E+00 0. -1.
</event>
<event>
 8    1  0.1262344E-006  0.9118800E+02  0.7816164E-02  0.1184000E+00
        -11   -1    0    0    0    0  0.00000000000E+00  0.00000000000E+00  0.45593999997E+02  0.45594000000E+02  0.51100000000E-03 0.  1.
         11   -1    0    0    0    0 -0.00000000000E+00 -0.00000000000E+00 -0.45593999997E+02  0.45594000000E+02  0.51100000000E-03 0. -1.
         23    2    1    2    0    0 -0.14988010832E-14 -0.71054273576E-14 -0.35527136788E-14  0.91188000000E+02  0.91188000000E+02 0.  0.
    9900012    2    3    3    0    0  0.23886500785E+00  0.30585856574E+02  0.20499441748E+02  0.54367098452E+02  0.40000032540E+02 0.  0.
         12    1    3    3    0    0 -0.23886500785E+00 -0.30585856574E+02 -0.20499441748E+02  0.36820901548E+02  0.00000000000E+00 0. -1.
         11    1    4    4    0    0 -0.90646194771E+01  0.17769487823E+02 -0.60038656077E+01  0.20831908848E+02  0.51100000000E-03 0. -1.
        -11    1    4    4    0    0  0.17347298101E+01  0.49148118537E+01  0.39512954812E+00  0.52269293751E+01  0.51100000000E-03 0.  1.
         12    1    4    4    0    0  0.75687546748E+01  0.79015568972E+01  0.26108177807E+02  0.28308260228E+02  0.00000000000E+00 0. -1.
</event>
<event>
 8    1  0.1262344E-006  0.9118800E+02  0.7816164E-02  0.1184000E+00
        -11   -1    0    0    0    0  0.00000000000E+00  0.00000000000E+00  0.45593999997E+02  0.45594000000E+02  0.51100000000E-03 0.  1.
         11   -1    0    0    0    0 -0.00000000000E+00 -0.00000000000E+00 -0.45593999997E+02  0.45594000000E+02  0.51100000000E-03 0. -1.
         23    2    1    2    0    0  0.00000000000E+00  0.00000000000E+00  0.00000000000E+00  0.91188000000E+02  0.91188000000E+02 0.  0.
    9900012    2    3    3    0    0  0.30752862894E+02 -0.32872815598E+01 -0.19980882347E+02  0.54367075846E+02  0.39999981005E+02 0.  0.
        -12    1    3    3    0    0 -0.30752862894E+02  0.32872815598E+01  0.19980882347E+02  0.36820924154E+02  0.00000000000E+00 0.  1.
         11    1    4    4    0    0  0.72761010718E+00  0.81162277764E+01 -0.77865638067E+01  0.11270898188E+02  0.51100000000E-03 0. -1.
        -11    1    4    4    0    0  0.26313825128E+02 -0.71806984358E+01 -0.19752032345E+02  0.33676736850E+02  0.51100000000E-03 0.  1.
        -12    1    4    4    0    0  0.37114276588E+01 -0.42228109005E+01  0.75577138046E+01  0.94194408072E+01  0.00000000000E+00 0.  1.
</event>
<event>
 8    1  0.1262344E-006  0.9118800E+02  0.7816164E-02  0.1184000E+00
        -11   -1    0    0    0    0  0.00000000000E+00  0.00000000000E+00  0.45593999997E+02  0.45594000000E+02  0.51100000000E-03 0.  1.
         11   -1    0    0    0    0 -0.00000000000E+00 -0.00000000000E+00 -0.45593999997E+02  0.45594000000E+02  0.51100000000E-03 0. -1.
         23    2    1    2    0    0 -0.17763568394E-14  0.00000000000E+00  0.00000000000E+00  0.91188000000E+02  0.91188000000E+02 0.  0.
    9900012    2    3    3    0    0 -0.12066532367E+02  0.34418561297E+02 -0.50537627794E+01  0.54367094480E+02  0.40000023485E+02 0.  0.
        -12    1    3    3    0    0  0.12066532367E+02 -0.34418561297E+02  0.50537627794E+01  0.36820905520E+02  0.00000000000E+00 0.  1.
         11    1    4    4    0    0 -0.95622614560E+01  0.73457179516E+01 -0.17617916531E-02  0.12058043778E+02  0.51100000000E-03 0.  1.
        -11    1    4    4    0    0 -0.61677895614E+01  0.24034021559E+02  0.98264874552E+01  0.26687743935E+02  0.51100000000E-03 0. -1.
        -12    1    4    4    0    0  0.36635186507E+01  0.30388217859E+01 -0.14878488443E+02  0.15621306767E+02  0.00000000000E+00 0.  1.
</event>
<event>
 8    1  0.1262344E-006  0.9118800E+02  0.7816164E-02  0.1184000E+00
        -11   -1    0    0    0    0  0.00000000000E+00  0.00000000000E+00  0.45593999997E+02  0.45594000000E+02  0.51100000000E-03 0. -1.
         11   -1    0    0    0    0 -0.00000000000E+00 -0.00000000000E+00 -0.45593999997E+02  0.45594000000E+02  0.51100000000E-03 0.  1.
         23    2    1    2    0    0  0.17763568394E-14  0.00000000000E+00  0.00000000000E+00  0.91188000000E+02  0.91188000000E+02 0.  0.
    9900012    2    3    3    0    0  0.46919670426E+01 -0.36511555873E+02  0.82106033043E+00  0.54367049346E+02  0.39999920595E+02 0.  0.
         12    1    3    3    0    0 -0.46919670426E+01  0.36511555873E+02 -0.82106033043E+00  0.36820950654E+02  0.00000000000E+00 0. -1.
         11    1    4    4    0    0  0.41554338703E+01 -0.93016948970E+01  0.34469243130E+01  0.10755019576E+02  0.51100000000E-03 0. -1.
        -11    1    4    4    0    0  0.15246444057E+02 -0.24058907853E+02 -0.20692848637E+01  0.28558134456E+02  0.51100000000E-03 0.  1.
        -12    1    4    4    0    0 -0.14709910885E+02 -0.31509531226E+01 -0.55657911894E+00  0.15053895315E+02  0.00000000000E+00 0.  1.
</event>
<event>
 8    1  0.1262344E-006  0.9118800E+02  0.7816164E-02  0.1184000E+00
        -11   -1    0    0    0    0  0.00000000000E+00  0.00000000000E+00  0.45593999997E+02  0.45594000000E+02  0.51100000000E-03 0.  1.
         11   -1    0    0    0    0 -0.00000000000E+00 -0.00000000000E+00 -0.45593999997E+02  0.45594000000E+02  0.51100000000E-03 0. -1.
         23    2    1    2    0    0  0.00000000000E+00 -0.88817841970E-15 -0.17763568394E-14  0.91188000000E+02  0.91188000000E+02 0.  0.
    9900012    2    3    3    0    0 -0.34494253540E+02  0.26577295742E+01  0.12604202834E+02  0.54367041528E+02  0.39999902770E+02 0.  0.
         12    1    3    3    0    0  0.34494253540E+02 -0.26577295742E+01 -0.12604202834E+02  0.36820958472E+02  0.00000000000E+00 0. -1.
         11    1    4    4    0    0  0.70714067730E+01 -0.23281475007E+01  0.53250172831E+01  0.91531892726E+01  0.51100000000E-03 0. -1.
        -11    1    4    4    0    0 -0.10086694748E+02 -0.10785016854E+01  0.83491326643E+01  0.13138211193E+02  0.51100000000E-03 0.  1.
         12    1    4    4    0    0 -0.31478965564E+02  0.60643787603E+01 -0.10699471135E+01  0.32075641062E+02  0.00000000000E+00 0. -1.
</event>
<event>
 8    1  0.1262344E-006  0.9118800E+02  0.7816164E-02  0.1184000E+00
        -11   -1    0    0    0    0  0.00000000000E+00  0.00000000000E+00  0.45593999997E+02  0.45594000000E+02  0.51100000000E-03 0.  1.
         11   -1    0    0    0    0 -0.00000000000E+00 -0.00000000000E+00 -0.45593999997E+02  0.45594000000E+02  0.51100000000E-03 0. -1.
         23    2    1    2    0    0  0.00000000000E+00  0.35527136788E-14  0.00000000000E+00  0.91188000000E+02  0.91188000000E+02 0.  0.
    9900012    2    3    3    0    0 -0.21359041643E+02 -0.27067195344E+02 -0.12920433008E+02  0.54367091363E+02  0.40000016381E+02 0.  0.
        -12    1    3    3    0    0  0.21359041643E+02  0.27067195344E+02  0.12920433008E+02  0.36820908637E+02  0.00000000000E+00 0.  1.
         11    1    4    4    0    0 -0.18961302106E+01 -0.10852034361E+01 -0.35527534554E+00  0.22134129993E+01  0.51100000000E-03 0. -1.
        -11    1    4    4    0    0 -0.48991124322E+01  0.10113864233E+02 -0.58018596342E+01  0.12647257720E+02  0.51100000000E-03 0.  1.
        -12    1    4    4    0    0 -0.14563799000E+02 -0.36095856142E+02 -0.67632980282E+01  0.39506420644E+02  0.00000000000E+00 0.  1.
</event>
<event>
 8    1  0.1262344E-006  0.9118800E+02  0.7816164E-02  0.1184000E+00
        -11   -1    0    0    0    0  0.00000000000E+00  0.00000000000E+00  0.45593999997E+02  0.45594000000E+02  0.51100000000E-03 0. -1.
         11   -1    0    0    0    0 -0.00000000000E+00 -0.00000000000E+00 -0.45593999997E+02  0.45594000000E+02  0.51100000000E-03 0.  1.
         23    2    1    2    0    0  0.35527136788E-14  0.00000000000E+00 -0.44408920985E-15  0.91188000000E+02  0.91188000000E+02 0.  0.
    9900012    2    3    3    0    0  0.28160573032E+02  0.23407405011E+02 -0.38542168222E+01  0.54367089226E+02  0.40000011509E+02 0.  0.
         12    1    3    3    0    0 -0.28160573032E+02 -0.23407405011E+02  0.38542168222E+01  0.36820910774E+02  0.00000000000E+00 0. -1.
         11    1    4    4    0    0 -0.57437662471E+01  0.10557951599E+02 -0.36439464284E-01  0.12019256248E+02  0.51100000000E-03 0. -1.
        -11    1    4    4    0    0  0.19898333901E+02  0.15580013053E+02 -0.94857174188E+01  0.26993690633E+02  0.51100000000E-03 0.  1.
         12    1    4    4    0    0  0.14006005378E+02 -0.27305596410E+01  0.56679400609E+01  0.15354142345E+02  0.00000000000E+00 0. -1.
</event>
<event>
 8    1  0.1262344E-006  0.9118800E+02  0.7816164E-02  0.1184000E+00
        -11   -1    0    0    0    0  0.00000000000E+00  0.00000000000E+00  0.45593999997E+02  0.45594000000E+02  0.51100000000E-03 0. -1.
         11   -1    0    0    0    0 -0.00000000000E+00 -0.00000000000E+00 -0.45593999997E+02  0.45594000000E+02  0.51100000000E-03 0.  1.
         23    2    1    2    0    0  0.88817841970E-15  0.26645352591E-14  0.00000000000E+00  0.91188000000E+02  0.91188000000E+02 0.  0.
    9900012    2    3    3    0    0 -0.39658048050E+01 -0.73479658637E+01  0.35861673759E+02  0.54367084003E+02  0.39999999601E+02 0.  0.
        -12    1    3    3    0    0  0.39658048050E+01  0.73479658637E+01 -0.35861673759E+02  0.36820915997E+02  0.00000000000E+00 0.  1.
         11    1    4    4    0    0  0.88234580805E-01  0.11702409745E+02  0.21406475538E+02  0.24396544312E+02  0.51100000000E-03 0. -1.
        -11    1    4    4    0    0  0.36920260026E+01 -0.16796489508E+02  0.13467014368E+02  0.21842930024E+02  0.51100000000E-03 0.  1.
         12    1    4    4    0    0 -0.77460653884E+01 -0.22538861004E+01  0.98818385303E+00  0.81276096659E+01  0.00000000000E+00 0. -1.
</event>
<event>
 8    1  0.1262344E-006  0.9118800E+02  0.7816164E-02  0.1184000E+00
        -11   -1    0    0    0    0  0.00000000000E+00  0.00000000000E+00  0.45593999997E+02  0.45594000000E+02  0.51100000000E-03 0.  1.
         11   -1    0    0    0    0 -0.00000000000E+00 -0.00000000000E+00 -0.45593999997E+02  0.45594000000E+02  0.51100000000E-03 0. -1.
         23    2    1    2    0    0 -0.22204460493E-15  0.35527136788E-14  0.00000000000E+00  0.91188000000E+02  0.91188000000E+02 0.  0.
    9900012    2    3    3    0    0 -0.18694469268E+01  0.17967123943E+02 -0.32085300502E+02  0.54367097202E+02  0.40000029690E+02 0.  0.
        -12    1    3    3    0    0  0.18694469268E+01 -0.17967123943E+02  0.32085300502E+02  0.36820902798E+02  0.00000000000E+00 0.  1.
         11    1    4    4    0    0  0.79149613182E+01 -0.26155830257E+01 -0.72658780262E+01  0.11058068140E+02  0.51100000000E-03 0. -1.
        -11    1    4    4    0    0  0.16283982521E+01  0.27443846025E+01  0.54807271060E+01  0.63420578352E+01  0.51100000000E-03 0.  1.
         12    1    4    4    0    0 -0.11412806497E+02  0.17838322366E+02 -0.30300149582E+02  0.36966971226E+02  0.00000000000E+00 0. -1.
</event>
<event>
 8    1  0.1262344E-006  0.9118800E+02  0.7816164E-02  0.1184000E+00
        -11   -1    0    0    0    0  0.00000000000E+00  0.00000000000E+00  0.45593999997E+02  0.45594000000E+02  0.51100000000E-03 0. -1.
         11   -1    0    0    0    0 -0.00000000000E+00 -0.00000000000E+00 -0.45593999997E+02  0.45594000000E+02  0.51100000000E-03 0.  1.
         23    2    1    2    0    0 -0.17763568394E-14 -0.16653345369E-15  0.00000000000E+00  0.91188000000E+02  0.91188000000E+02 0.  0.
    9900012    2    3    3    0    0  0.11806983904E+02 -0.16302521898E+00 -0.34876176372E+02  0.54367093921E+02  0.40000022212E+02 0.  0.
         12    1    3    3    0    0 -0.11806983904E+02  0.16302521898E+00  0.34876176372E+02  0.36820906079E+02  0.00000000000E+00 0. -1.
         11    1    4    4    0    0  0.13178747997E+02 -0.83966090088E+01 -0.37821124057E+01  0.16077525186E+02  0.51100000000E-03 0. -1.
        -11    1    4    4    0    0 -0.76074282796E+01 -0.36749702209E+01 -0.84043914421E+01  0.11916885790E+02  0.51100000000E-03 0.  1.
         12    1    4    4    0    0  0.62356641869E+01  0.11908554011E+02 -0.22689672524E+02  0.26372682945E+02  0.00000000000E+00 0. -1.
</event>
<event>
 8    1  0.1262344E-006  0.9118800E+02  0.7816164E-02  0.1184000E+00
        -11   -1    0    0    0    0  0.00000000000E+00  0.00000000000E+00  0.45593999997E+02  0.45594000000E+02  0.51100000000E-03 0. -1.
         11   -1    0    0    0    0 -0.00000000000E+00 -0.00000000000E+00 -0.45593999997E+02  0.45594000000E+02  0.51100000000E-03 0.  1.
         23    2    1    2    0    0  0.00000000000E+00  0.00000000000E+00  0.17763568394E-14  0.91188000000E+02  0.91188000000E+02 0.  0.
    9900012    2    3    3    0    0  0.32158017604E+02  0.94720323119E+01 -0.15228842500E+02  0.54367148078E+02  0.40000145674E+02 0.  0.
         12    1    3    3    0    0 -0.32158017604E+02 -0.94720323119E+01  0.15228842500E+02  0.36820851922E+02  0.00000000000E+00 0. -1.
         11    1    4    4    0    0  0.70587202769E+01  0.14095694865E+01  0.98786828118E+01  0.12222961689E+02  0.51100000000E-03 0. -1.
        -11    1    4    4    0    0  0.27874489219E+02  0.10403980845E+02 -0.24322321719E+02  0.38429224565E+02  0.51100000000E-03 0.  1.
        -12    1    4    4    0    0 -0.27751918916E+01 -0.23415180201E+01 -0.78520359313E+00  0.37149618244E+01  0.00000000000E+00 0.  1.
</event>
<event>
 8    1  0.1262344E-006  0.9118800E+02  0.7816164E-02  0.1184000E+00
        -11   -1    0    0    0    0  0.00000000000E+00  0.00000000000E+00  0.45593999997E+02  0.45594000000E+02  0.51100000000E-03 0.  1.
         11   -1    0    0    0    0 -0.00000000000E+00 -0.00000000000E+00 -0.45593999997E+02  0.45594000000E+02  0.51100000000E-03 0. -1.
         23    2    1    2    0    0 -0.44408920985E-15  0.00000000000E+00  0.00000000000E+00  0.91188000000E+02  0.91188000000E+02 0.  0.
    9900012    2    3    3    0    0 -0.28237573521E+01 -0.36388605633E+02 -0.48658361083E+01  0.54367074068E+02  0.39999976952E+02 0.  0.
        -12    1    3    3    0    0  0.28237573521E+01  0.36388605633E+02  0.48658361083E+01  0.36820925932E+02  0.00000000000E+00 0.  1.
         11    1    4    4    0    0 -0.54219052959E+01  0.52718009792E+01 -0.23659402499E+01  0.79238006114E+01  0.51100000000E-03 0. -1.
        -11    1    4    4    0    0  0.74782078908E+01 -0.92131140923E+01  0.48481790212E+01  0.12818342507E+02  0.51100000000E-03 0.  1.
         12    1    4    4    0    0 -0.48800599469E+01 -0.32447292520E+02 -0.73480748795E+01  0.33624930950E+02  0.00000000000E+00 0. -1.
</event>
<event>
 8    1  0.1262344E-006  0.9118800E+02  0.7816164E-02  0.1184000E+00
        -11   -1    0    0    0    0  0.00000000000E+00  0.00000000000E+00  0.45593999997E+02  0.45594000000E+02  0.51100000000E-03 0. -1.
         11   -1    0    0    0    0 -0.00000000000E+00 -0.00000000000E+00 -0.45593999997E+02  0.45594000000E+02  0.51100000000E-03 0.  1.
         23    2    1    2    0    0  0.00000000000E+00  0.00000000000E+00  0.35527136788E-14  0.91188000000E+02  0.91188000000E+02 0.  0.
    9900012    2    3    3    0    0  0.11218399602E+02 -0.19882251154E+02 -0.28889854018E+02  0.54367081140E+02  0.39999993074E+02 0.  0.
         12    1    3    3    0    0 -0.11218399602E+02  0.19882251154E+02  0.28889854018E+02  0.36820918860E+02  0.00000000000E+00 0. -1.
         11    1    4    4    0    0  0.92641393254E+01 -0.12146798096E+02 -0.42363256988E+01  0.15852931499E+02  0.51100000000E-03 0. -1.
        -11    1    4    4    0    0  0.11543109715E+02  0.45465115551E+01 -0.17288915445E+02  0.21279585211E+02  0.51100000000E-03 0.  1.
        -12    1    4    4    0    0 -0.95888494387E+01 -0.12281964613E+02 -0.73646128737E+01  0.17234564430E+02  0.00000000000E+00 0.  1.
</event>
<event>
 8    1  0.1262344E-006  0.9118800E+02  0.7816164E-02  0.1184000E+00
        -11   -1    0    0    0    0  0.00000000000E+00  0.00000000000E+00  0.45593999997E+02  0.45594000000E+02  0.51100000000E-03 0.  1.
         11   -1    0    0    0    0 -0.00000000000E+00 -0.00000000000E+00 -0.45593999997E+02  0.45594000000E+02  0.51100000000E-03 0. -1.
         23    2    1    2    0    0  0.00000000000E+00  0.17763568394E-14  0.00000000000E+00  0.91188000000E+02  0.91188000000E+02 0.  0.
    9900012    2    3    3    0    0  0.47733605119E+01 -0.14105121006E+02  0.33675580288E+02  0.54367026128E+02  0.39999867664E+02 0.  0.
         12    1    3    3    0    0 -0.47733605119E+01  0.14105121006E+02 -0.33675580288E+02  0.36820973872E+02  0.00000000000E+00 0. -1.
         11    1    4    4    0    0  0.43422007334E+01  0.64499300508E+01 -0.47174162344E+01  0.90945214860E+01  0.51100000000E-03 0. -1.
        -11    1    4    4    0    0  0.45317828793E+01 -0.19068762367E+02  0.30505113539E+02  0.36259022416E+02  0.51100000000E-03 0.  1.
        -12    1    4    4    0    0 -0.41006231008E+01 -0.14862886894E+01  0.78878829827E+01  0.90134822257E+01  0.00000000000E+00 0.  1.
</event>
