<LesHouchesEvents version="3.0">
  <header>
  <MG5ProcCard>
#************************************************************           
#*                     MadGraph5_aMC@NLO                    *           
#*                                                          *           
#*                *                       *                 *           
#*                  *        * *        *                   *           
#*                    * * * * 5 * * * *                     *           
#*                  *        * *        *                   *           
#*                *                       *                 *           
#*                                                          *           
#*                                                          *           
#*         VERSION 2.2.2                 2014-11-06         *           
#*                                                          *           
#*    The MadGraph5_aMC@NLO Development Team - Find us at   *           
#*    https://server06.fynu.ucl.ac.be/projects/madgraph     *           
#*                                                          *           
#************************************************************           
#*                                                          *           
#*               Command File for MadGraph5_aMC@NLO         *           
#*                                                          *           
#*     run as ./bin/mg5_aMC  filename                       *           
#*                                                          *           
#************************************************************           
set group_subprocesses Auto                                             
set ignore_six_quark_processes False                                    
set loop_optimized_output True                                          
set complex_mass_scheme False                                           
import model sm                                                         
define p = g u c d s u~ c~ d~ s~                                        
define j = g u c d s u~ c~ d~ s~                                        
define l+ = e+ mu+                                                      
define l- = e- mu-                                                      
define vl = ve vm vt                                                    
define vl~ = ve~ vm~ vt~                                                
import model loop_sm                                                    
generate p p > b b~ [QCD]                                               
output pp_bb_py8                                                        
  </MG5ProcCard>
  <slha>
######################################################################  
## PARAM_CARD AUTOMATICALY GENERATED BY MG5 FOLLOWING UFO MODEL   ####  
######################################################################  
##                                                                  ##  
##  Width set on Auto will be computed following the information    ##  
##        present in the decay.py files of the model.               ##  
##        See  arXiv:1402.1178 for more details.                    ##  
##                                                                  ##  
######################################################################  
                                                                        
###################################                                     
## INFORMATION FOR LOOP                                                 
###################################                                     
Block loop                                                              
    1 9.118800e+01 # MU_R                                               
                                                                        
###################################                                     
## INFORMATION FOR MASS                                                 
###################################                                     
Block mass                                                              
    5 4.700000e+00 # MB                                                 
    6 1.730000e+02 # MT                                                 
   15 1.777000e+00 # MTA                                                
   23 9.118800e+01 # MZ                                                 
   25 1.250000e+02 # MH                                                 
## Dependent parameters, given by model restrictions.                   
## Those values should be edited following the                          
## analytical expression. MG5 ignores those values                      
## but they are important for interfacing the output of MG5             
## to external program such as Pythia.                                  
  1 0.000000 # d : 0.0                                                  
  2 0.000000 # u : 0.0                                                  
  3 0.000000 # s : 0.0                                                  
  4 0.000000 # c : 0.0                                                  
  11 0.000000 # e- : 0.0                                                
  12 0.000000 # ve : 0.0                                                
  13 0.000000 # mu- : 0.0                                               
  14 0.000000 # vm : 0.0                                                
  16 0.000000 # vt : 0.0                                                
  21 0.000000 # g : 0.0                                                 
  22 0.000000 # a : 0.0                                                 
  24 80.419002 # w+ : cmath.sqrt(MZ__exp__2/2. + cmath.sqrt(MZ__exp__4/4
                                                                        
###################################                                     
## INFORMATION FOR SMINPUTS                                             
###################################                                     
Block sminputs                                                          
    1 1.325070e+02 # aEWM1                                              
    2 1.166390e-05 # Gf                                                 
    3 1.180000e-01 # aS                                                 
                                                                        
###################################                                     
## INFORMATION FOR YUKAWA                                               
###################################                                     
Block yukawa                                                            
    5 4.700000e+00 # ymb                                                
    6 1.730000e+02 # ymt                                                
   15 1.777000e+00 # ymtau                                              
                                                                        
###################################                                     
## INFORMATION FOR DECAY                                                
###################################                                     
DECAY   6 1.491500e+00 # WT                                             
DECAY  23 2.441404e+00 # WZ                                             
DECAY  24 2.047600e+00 # WW                                             
DECAY  25 6.382339e-03 # WH                                             
## Dependent parameters, given by model restrictions.                   
## Those values should be edited following the                          
## analytical expression. MG5 ignores those values                      
## but they are important for interfacing the output of MG5             
## to external program such as Pythia.                                  
DECAY  1 0.000000 # d : 0.0                                             
DECAY  2 0.000000 # u : 0.0                                             
DECAY  3 0.000000 # s : 0.0                                             
DECAY  4 0.000000 # c : 0.0                                             
DECAY  5 0.000000 # b : 0.0                                             
DECAY  11 0.000000 # e- : 0.0                                           
DECAY  12 0.000000 # ve : 0.0                                           
DECAY  13 0.000000 # mu- : 0.0                                          
DECAY  14 0.000000 # vm : 0.0                                           
DECAY  15 0.000000 # ta- : 0.0                                          
DECAY  16 0.000000 # vt : 0.0                                           
DECAY  21 0.000000 # g : 0.0                                            
DECAY  22 0.000000 # a : 0.0                                            
  </slha>
  <MGRunCard>
#***********************************************************************
#                        MadGraph5_aMC@NLO                             *
#                                                                      *
#                      run_card.dat aMC@NLO                            *
#                                                                      *
#  This file is used to set the parameters of the run.                 *
#                                                                      *
#  Some notation/conventions:                                          *
#                                                                      *
#   Lines starting with a hash (#) are info or comments                *
#                                                                      *
#   mind the format:   value    = variable     ! comment               *
#***********************************************************************
#                                                                       
#*******************                                                    
# Running parameters                                                    
#*******************                                                    
#                                                                       
#***********************************************************************
# Tag name for the run (one word)                                      *
#***********************************************************************
  tag_1     = run_tag ! name of the run                                 
#***********************************************************************
# Number of LHE events (and their normalization) and the required      *
# (relative) accuracy on the Xsec.                                     *
# These values are ignored for fixed order runs                        *
#***********************************************************************
        100 = nevents                                                   
    -1 = req_acc ! Required accuracy (-1=auto determined from nevents)  
    -1 = nevt_job! Max number of events per job in event generation.    
                 !  (-1= no split).                                     
#***********************************************************************
# Normalize the weights of LHE events such that they sum or average to *
# the total cross section                                              *
#***********************************************************************
 average = event_norm      ! average or sum                             
#***********************************************************************
# Number of points per itegration channel (ignored for aMC@NLO runs)   *
#***********************************************************************
 0.01   = req_acc_FO       ! Required accuracy (-1=ignored, and use the 
 	                   ! number of points and iter. below)                
# These numbers are ignored except if req_acc_FO is equal to -1         
 5000   = npoints_FO_grid  ! number of points to setup grids            
 4      = niters_FO_grid   ! number of iter. to setup grids             
 10000  = npoints_FO       ! number of points to compute Xsec           
 6      = niters_FO        ! number of iter. to compute Xsec            
#***********************************************************************
# Random number seed                                                   *
#***********************************************************************
         33 =  iseed                                                    
#***********************************************************************
# Collider type and energy                                             *
#***********************************************************************
    1   = lpp1    ! beam 1 type (0 = no PDF)                            
    1   = lpp2    ! beam 2 type (0 = no PDF)                            
 6500   = ebeam1  ! beam 1 energy in GeV                                
 6500   = ebeam2  ! beam 2 energy in GeV                                
#***********************************************************************
# PDF choice: this automatically fixes also alpha_s(MZ) and its evol.  *
#***********************************************************************
 nn23nlo   = pdlabel   ! PDF set                                        
 244600    = lhaid     ! if pdlabel=lhapdf, this is the lhapdf number   
#***********************************************************************
# Include the NLO Monte Carlo subtr. terms for the following parton    *
# shower (HERWIG6 | HERWIGPP | PYTHIA6Q | PYTHIA6PT | PYTHIA8)         *
# WARNING: PYTHIA6PT works only for processes without FSR!!!!          *
#***********************************************************************
  PYTHIA8   = parton_shower                                             
#***********************************************************************
# Renormalization and factorization scales                             *
# (Default functional form for the non-fixed scales is the sum of      *
# the transverse masses of all final state particles and partons. This *
# can be changed in SubProcesses/set_scales.f)                         *
#***********************************************************************
 F        = fixed_ren_scale  ! if .true. use fixed ren scale            
 F        = fixed_fac_scale  ! if .true. use fixed fac scale            
 91.188   = muR_ref_fixed    ! fixed ren reference scale                
 91.188   = muF1_ref_fixed   ! fixed fact reference scale for pdf1      
 91.188   = muF2_ref_fixed   ! fixed fact reference scale for pdf2      
#***********************************************************************
# Renormalization and factorization scales (advanced and NLO options)  *
#***********************************************************************
 F        = fixed_QES_scale  ! if .true. use fixed Ellis-Sexton scale   
 91.188   = QES_ref_fixed    ! fixed Ellis-Sexton reference scale       
 1        = muR_over_ref     ! ratio of current muR over reference muR  
 1        = muF1_over_ref    ! ratio of current muF1 over reference muF1
 1        = muF2_over_ref    ! ratio of current muF2 over reference muF2
 1        = QES_over_ref     ! ratio of current QES over reference QES  
#***********************************************************************
# Reweight flags to get scale dependence and PDF uncertainty           *
# For scale dependence: factor rw_scale_up/down around central scale   *
# For PDF uncertainty: use LHAPDF with supported set                   *
#***********************************************************************
 .true.   = reweight_scale   ! reweight to get scale dependence         
  0.5     = rw_Rscale_down   ! lower bound for ren scale variations     
  2.0     = rw_Rscale_up     ! upper bound for ren scale variations     
  0.5     = rw_Fscale_down   ! lower bound for fact scale variations    
  2.0     = rw_Fscale_up     ! upper bound for fact scale variations    
 .false.  = reweight_PDF     ! reweight to get PDF uncertainty          
 244601   = PDF_set_min      ! First of the error PDF sets              
 244700   = PDF_set_max      ! Last of the error PDF sets               
#***********************************************************************
# Merging - WARNING! Applies merging only at the hard-event level.     *
# After showering an MLM-type merging should be applied as well.       *
# See http://amcatnlo.cern.ch/FxFx_merging.htm for more details.       *
#***********************************************************************
 0        = ickkw            ! 0 no merging, 3 FxFx merging, 4 UNLOPS   
#***********************************************************************
#                                                                       
#***********************************************************************
# BW cutoff (M+/-bwcutoff*Gamma)                                       *
#***********************************************************************
 15  = bwcutoff                                                         
#***********************************************************************
# Cuts on the jets                                                     *
# Jet clustering is performed by FastJet.                               
# When matching to a parton shower, these generation cuts should be    *
# considerably softer than the analysis cuts.                          *
# (more specific cuts can be specified in SubProcesses/cuts.f)         *
#***********************************************************************
   1  = jetalgo   ! FastJet jet algorithm (1=kT, 0=C/A, -1=anti-kT)     
 0.7  = jetradius ! The radius parameter for the jet algorithm          
  10  = ptj       ! Min jet transverse momentum                         
  -1  = etaj      ! Max jet abs(pseudo-rap) (a value .lt.0 means no cut)
#***********************************************************************
# Cuts on the charged leptons (e+, e-, mu+, mu-, tau+ and tau-)        *
# (more specific gen cuts can be specified in SubProcesses/cuts.f)     *
#***********************************************************************
   0  = ptl     ! Min lepton transverse momentum                        
  -1  = etal    ! Max lepton abs(pseudo-rap) (a value .lt.0 means no cut
   0  = drll    ! Min distance between opposite sign lepton pairs       
   0  = drll_sf ! Min distance between opp. sign same-flavor lepton pair
   0  = mll     ! Min inv. mass of all opposite sign lepton pairs       
  30  = mll_sf  ! Min inv. mass of all opp. sign same-flavor lepton pair
#***********************************************************************
# Photon-isolation cuts, according to hep-ph/9801442                   *
# When ptgmin=0, all the other parameters are ignored                  *
#***********************************************************************
  20  = ptgmin    ! Min photon transverse momentum                      
  -1  = etagamma  ! Max photon abs(pseudo-rap)                          
 0.4  = R0gamma   ! Radius of isolation code                            
 1.0  = xn        ! n parameter of eq.(3.4) in hep-ph/9801442           
 1.0  = epsgamma  ! epsilon_gamma parameter of eq.(3.4) in hep-ph/980144
 .true.  = isoEM  ! isolate photons from EM energy (photons and leptons)
#***********************************************************************
# Maximal PDG code for quark to be considered a jet when applying cuts.*
# At least all massless quarks of the model should be included here.   *
#***********************************************************************
 4 = maxjetflavor                                                       
#***********************************************************************
# For aMCfast+APPLGRID use in PDF fitting (http://amcfast.hepforge.org)*
#***********************************************************************
 0 = iappl   ! aMCfast switch (0=OFF, 1=prepare APPLgrids, 2=fill grids)
#***********************************************************************
  </MGRunCard>
  <scalesfunctionalform>
    muR  H_T/2 := sum_i mT(i)/2, i=final state
    muF1 H_T/2 := sum_i mT(i)/2, i=final state
    muF2 H_T/2 := sum_i mT(i)/2, i=final state
    QES  H_T/2 := sum_i mT(i)/2, i=final state
  </scalesfunctionalform>
  <MonteCarloMasses>
       1   0.330000E+00
       2   0.330000E+00
       3   0.500000E+00
       4   0.150000E+01
       5   0.480000E+01
      11   0.510999E-03
      13   0.105658E+00
      15   0.177682E+01
      21   0.000000E+00
  </MonteCarloMasses>
  <initrwgt>
    <weightgroup type='scale_variation' combine='envelope'>
      <weight id='1001'> muR=0.10000E+01 muF=0.10000E+01 </weight>
      <weight id='1002'> muR=0.10000E+01 muF=0.20000E+01 </weight>
      <weight id='1003'> muR=0.10000E+01 muF=0.50000E+00 </weight>
      <weight id='1004'> muR=0.20000E+01 muF=0.10000E+01 </weight>
      <weight id='1005'> muR=0.20000E+01 muF=0.20000E+01 </weight>
      <weight id='1006'> muR=0.20000E+01 muF=0.50000E+00 </weight>
      <weight id='1007'> muR=0.50000E+00 muF=0.10000E+01 </weight>
      <weight id='1008'> muR=0.50000E+00 muF=0.20000E+01 </weight>
      <weight id='1009'> muR=0.50000E+00 muF=0.50000E+00 </weight>
    </weightgroup>
  </initrwgt>
  </header>
  <init>
   2212   2212 0.65000000E+04 0.65000000E+04 -1 -1 244600 244600 -4   1
 0.15466170E+09 0.59355081E+06 0.15466170E+09      0
  </init>
  <event>
  4      0 0.15466170E+09 0.14408522E+02 0.75467716E-02 0.11800000E+00
       21 -1    0    0  501  502 0.00000000E+00 0.00000000E+00 0.24151420E+04 0.24151420E+04 0.00000000E+00 0.0000E+00 0.9000E+01
       21 -1    0    0  502  503 0.00000000E+00 0.00000000E+00 -.21489991E-01 0.21489991E-01 0.00000000E+00 0.0000E+00 0.9000E+01
        5  1    1    2  501    0 -.28982975E+01 -.17071976E+01 0.48666107E+03 0.48669539E+03 0.47000000E+01 0.0000E+00 0.9000E+01
       -5  1    1    2    0  503 0.28982975E+01 0.17071976E+01 0.19284594E+04 0.19284681E+04 0.47000000E+01 0.0000E+00 0.9000E+01
#aMCatNLO 1  5  2  0  0 0.00000000E+00 0.00000000E+00 9  0  0 0.10000000E+01 0.62832192E+00 0.18001862E+01 0.00000000E+00 0.00000000E+00
  <rwgt>
   <wgt id='1001'> 0.15466E+09 </wgt>
   <wgt id='1002'> 0.17554E+09 </wgt>
   <wgt id='1003'> 0.13727E+09 </wgt>
   <wgt id='1004'> 0.10949E+09 </wgt>
   <wgt id='1005'> 0.12427E+09 </wgt>
   <wgt id='1006'> 0.97177E+08 </wgt>
   <wgt id='1007'> 0.24532E+09 </wgt>
   <wgt id='1008'> 0.27842E+09 </wgt>
   <wgt id='1009'> 0.21772E+09 </wgt>
  </rwgt>
  </event>
  <event>
  4      0 0.15466170E+09 0.96903197E+01 0.75467716E-02 0.21949032E+00
       21 -1    0    0  501  502 0.00000000E+00 0.00000000E+00 0.44463081E+00 0.44463081E+00 0.00000000E+00 0.0000E+00 0.9000E+01
       21 -1    0    0  502  503 0.00000000E+00 0.00000000E+00 -.52797901E+02 0.52797901E+02 0.00000000E+00 0.0000E+00 0.9000E+01
        5  1    1    2  501    0 0.11988829E+00 0.19865088E+00 -.19836039E+02 0.20386571E+02 0.47000000E+01 0.0000E+00 0.9000E+01
       -5  1    1    2    0  503 -.11988829E+00 -.19865088E+00 -.32517231E+02 0.32855961E+02 0.47000000E+01 0.0000E+00 0.9000E+01
#aMCatNLO 1  5  2  0  0 0.00000000E+00 0.00000000E+00 9  0  0 0.99999998E+00 0.14907467E+00 0.37140696E+01 0.00000000E+00 0.00000000E+00
  <rwgt>
   <wgt id='1001'> 0.15466E+09 </wgt>
   <wgt id='1002'> 0.34382E+09 </wgt>
   <wgt id='1003'> 0.33230E+08 </wgt>
   <wgt id='1004'> 0.10731E+09 </wgt>
   <wgt id='1005'> 0.23855E+09 </wgt>
   <wgt id='1006'> 0.23056E+08 </wgt>
   <wgt id='1007'> 0.25840E+09 </wgt>
   <wgt id='1008'> 0.57442E+09 </wgt>
   <wgt id='1009'> 0.55519E+08 </wgt>
  </rwgt>
  </event>
  <event>
  4      0 0.15466170E+09 0.10290814E+02 0.75467716E-02 0.11800000E+00
       21 -1    0    0  503  502 0.00000000E+00 0.00000000E+00 0.10568362E+00 0.10568362E+00 0.00000000E+00 0.0000E+00 0.9000E+01
       21 -1    0    0  501  503 0.00000000E+00 0.00000000E+00 -.25051387E+03 0.25051387E+03 0.00000000E+00 0.0000E+00 0.9000E+01
        5  1    1    2  501    0 -.20557413E+01 0.49099799E-01 -.13484551E+03 0.13494306E+03 0.47000000E+01 0.0000E+00 0.9000E+01
       -5  1    1    2    0  502 0.20557413E+01 -.49099799E-01 -.11556267E+03 0.11567649E+03 0.47000000E+01 0.0000E+00 0.9000E+01
#aMCatNLO 1  5  2  0  0 0.00000000E+00 0.00000000E+00 9  0  0 0.99999995E+00 0.30430704E+00 0.28242757E+01 0.00000000E+00 0.00000000E+00
  <rwgt>
   <wgt id='1001'> 0.15466E+09 </wgt>
   <wgt id='1002'> 0.26750E+09 </wgt>
   <wgt id='1003'> 0.67243E+08 </wgt>
   <wgt id='1004'> 0.10825E+09 </wgt>
   <wgt id='1005'> 0.18722E+09 </wgt>
   <wgt id='1006'> 0.47065E+08 </wgt>
   <wgt id='1007'> 0.25255E+09 </wgt>
   <wgt id='1008'> 0.43681E+09 </wgt>
   <wgt id='1009'> 0.10980E+09 </wgt>
  </rwgt>
  </event>
  <event>
  4      0 0.15466170E+09 0.32484602E+02 0.75467716E-02 0.19292153E+00
       21 -1    0    0  503  502 0.00000000E+00 0.00000000E+00 0.76388852E+02 0.76388852E+02 0.00000000E+00 0.0000E+00 0.9000E+01
       21 -1    0    0  501  503 0.00000000E+00 0.00000000E+00 -.34535451E+01 0.34535451E+01 0.00000000E+00 0.0000E+00 0.9000E+01
        5  1    1    2  501    0 0.52034312E+01 0.28450245E+01 0.11435436E+01 0.76529441E+01 0.47000000E+01 0.0000E+00 0.9000E+01
       -5  1    1    2    0  502 -.52034312E+01 -.28450245E+01 0.71791763E+02 0.72189453E+02 0.47000000E+01 0.0000E+00 0.9000E+01
#aMCatNLO 1  5  2  0  0 0.00000000E+00 0.00000000E+00 9  0  0 0.10000000E+01 0.33724070E+00 0.23632640E+01 0.00000000E+00 0.00000000E+00
  <rwgt>
   <wgt id='1001'> 0.15466E+09 </wgt>
   <wgt id='1002'> 0.24394E+09 </wgt>
   <wgt id='1003'> 0.71988E+08 </wgt>
   <wgt id='1004'> 0.11206E+09 </wgt>
   <wgt id='1005'> 0.17674E+09 </wgt>
   <wgt id='1006'> 0.52158E+08 </wgt>
   <wgt id='1007'> 0.23173E+09 </wgt>
   <wgt id='1008'> 0.36551E+09 </wgt>
   <wgt id='1009'> 0.10786E+09 </wgt>
  </rwgt>
  </event>
  <event>
  4      0 0.15466170E+09 0.14231002E+02 0.75467716E-02 0.19853591E+00
       21 -1    0    0  503  502 0.00000000E+00 0.00000000E+00 0.54653855E+02 0.54653855E+02 0.00000000E+00 0.0000E+00 0.9000E+01
       21 -1    0    0  501  503 0.00000000E+00 0.00000000E+00 -.92638213E+00 0.92638213E+00 0.00000000E+00 0.0000E+00 0.9000E+01
        5  1    1    2  501    0 -.46334006E+01 0.15055953E+01 0.35424998E+02 0.36065991E+02 0.47000000E+01 0.0000E+00 0.9000E+01
       -5  1    1    2    0  502 0.46334006E+01 -.15055953E+01 0.18302475E+02 0.19514246E+02 0.47000000E+01 0.0000E+00 0.9000E+01
#aMCatNLO 1  5  3  0  0 0.00000000E+00 0.00000000E+00 9  0  0 0.99999998E+00 0.25281406E+00 0.28031328E+01 0.00000000E+00 0.00000000E+00
  <rwgt>
   <wgt id='1001'> 0.15466E+09 </wgt>
   <wgt id='1002'> 0.28299E+09 </wgt>
   <wgt id='1003'> 0.54464E+08 </wgt>
   <wgt id='1004'> 0.11103E+09 </wgt>
   <wgt id='1005'> 0.20317E+09 </wgt>
   <wgt id='1006'> 0.39100E+08 </wgt>
   <wgt id='1007'> 0.23694E+09 </wgt>
   <wgt id='1008'> 0.43354E+09 </wgt>
   <wgt id='1009'> 0.83437E+08 </wgt>
  </rwgt>
  </event>
  <event>
  4      0 0.15466170E+09 0.22647156E+02 0.75467716E-02 0.21700263E+00
       21 -1    0    0  501  502 0.00000000E+00 0.00000000E+00 0.14500041E+01 0.14500041E+01 0.00000000E+00 0.0000E+00 0.9000E+01
       21 -1    0    0  502  503 0.00000000E+00 0.00000000E+00 -.88429692E+02 0.88429692E+02 0.00000000E+00 0.0000E+00 0.9000E+01
        5  1    1    2  501    0 0.26469957E+00 0.13406128E+01 -.29651719E+01 0.57227225E+01 0.47000000E+01 0.0000E+00 0.9000E+01
       -5  1    1    2    0  503 -.26469957E+00 -.13406128E+01 -.84014516E+02 0.84156974E+02 0.47000000E+01 0.0000E+00 0.9000E+01
#aMCatNLO 1  5  2  0  0 0.00000000E+00 0.00000000E+00 9  0  0 0.99999992E+00 0.17610814E+00 0.32016752E+01 0.00000000E+00 0.00000000E+00
  <rwgt>
   <wgt id='1001'> 0.15466E+09 </wgt>
   <wgt id='1002'> 0.29956E+09 </wgt>
   <wgt id='1003'> 0.39098E+08 </wgt>
   <wgt id='1004'> 0.10774E+09 </wgt>
   <wgt id='1005'> 0.20868E+09 </wgt>
   <wgt id='1006'> 0.27237E+08 </wgt>
   <wgt id='1007'> 0.25567E+09 </wgt>
   <wgt id='1008'> 0.49517E+09 </wgt>
   <wgt id='1009'> 0.64632E+08 </wgt>
  </rwgt>
  </event>
  <event>
  4      0 0.15466170E+09 0.14276067E+02 0.75467716E-02 0.20331931E+00
       21 -1    0    0  501  502 0.00000000E+00 0.00000000E+00 0.19615611E+02 0.19615611E+02 0.00000000E+00 0.0000E+00 0.9000E+01
       21 -1    0    0  502  503 0.00000000E+00 0.00000000E+00 -.25974987E+01 0.25974987E+01 0.00000000E+00 0.0000E+00 0.9000E+01
        5  1    1    2  501    0 -.39707546E+01 -.65537196E+00 0.14046450E+02 0.15348914E+02 0.47000000E+01 0.0000E+00 0.9000E+01
       -5  1    1    2    0  503 0.39707546E+01 0.65537196E+00 0.29716623E+01 0.68641956E+01 0.47000000E+01 0.0000E+00 0.9000E+01
#aMCatNLO 1  5  3  0  0 0.00000000E+00 0.00000000E+00 9  0  0 0.10000000E+01 0.21723390E+00 0.30327378E+01 0.00000000E+00 0.00000000E+00
  <rwgt>
   <wgt id='1001'> 0.15466E+09 </wgt>
   <wgt id='1002'> 0.30034E+09 </wgt>
   <wgt id='1003'> 0.47165E+08 </wgt>
   <wgt id='1004'> 0.11018E+09 </wgt>
   <wgt id='1005'> 0.21394E+09 </wgt>
   <wgt id='1006'> 0.33597E+08 </wgt>
   <wgt id='1007'> 0.24154E+09 </wgt>
   <wgt id='1008'> 0.46905E+09 </wgt>
   <wgt id='1009'> 0.73661E+08 </wgt>
  </rwgt>
  </event>
  <event>
  4      0 0.15466170E+09 0.12138130E+02 0.75467716E-02 0.21126621E+00
       21 -1    0    0  503  502 0.00000000E+00 0.00000000E+00 0.12847674E+03 0.12847674E+03 0.00000000E+00 0.0000E+00 0.9000E+01
       21 -1    0    0  501  503 0.00000000E+00 0.00000000E+00 -.28669429E+00 0.28669429E+00 0.00000000E+00 0.0000E+00 0.9000E+01
        5  1    1    2  501    0 0.24414215E+01 -.94175780E+00 0.34286041E+02 0.34705476E+02 0.47000000E+01 0.0000E+00 0.9000E+01
       -5  1    1    2    0  502 -.24414215E+01 0.94175780E+00 0.93904009E+02 0.94057962E+02 0.47000000E+01 0.0000E+00 0.9000E+01
#aMCatNLO 1  5  3  0  0 0.00000000E+00 0.00000000E+00 9  0  0 0.99999998E+00 0.23408417E+00 0.30399837E+01 0.00000000E+00 0.00000000E+00
  <rwgt>
   <wgt id='1001'> 0.15466E+09 </wgt>
   <wgt id='1002'> 0.29138E+09 </wgt>
   <wgt id='1003'> 0.51487E+08 </wgt>
   <wgt id='1004'> 0.10875E+09 </wgt>
   <wgt id='1005'> 0.20488E+09 </wgt>
   <wgt id='1006'> 0.36204E+08 </wgt>
   <wgt id='1007'> 0.24956E+09 </wgt>
   <wgt id='1008'> 0.47016E+09 </wgt>
   <wgt id='1009'> 0.83081E+08 </wgt>
  </rwgt>
  </event>
  <event>
  4      0 0.15466170E+09 0.17916185E+02 0.75467716E-02 0.21421364E+00
       21 -1    0    0  503  502 0.00000000E+00 0.00000000E+00 0.72459276E-01 0.72459276E-01 0.00000000E+00 0.0000E+00 0.9000E+01
       21 -1    0    0  501  503 -.00000000E+00 -.00000000E+00 -.11074831E+04 0.11074831E+04 0.00000000E+00 0.0000E+00 0.9000E+01
        5  1    1    2  501    0 0.19745484E+01 -.48785004E+00 -.10080648E+04 0.10080778E+04 0.47000000E+01 0.0000E+00 0.9000E+01
       -5  1    1    2    0  502 -.19745484E+01 0.48785004E+00 -.99345817E+02 0.99477727E+02 0.47000000E+01 0.0000E+00 0.9000E+01
#aMCatNLO 1  5  4  0  0 0.00000000E+00 0.00000000E+00 9  0  0 0.10000000E+01 0.42020904E+00 0.23436353E+01 0.00000000E+00 0.00000000E+00
  <rwgt>
   <wgt id='1001'> 0.15466E+09 </wgt>
   <wgt id='1002'> 0.22188E+09 </wgt>
   <wgt id='1003'> 0.92870E+08 </wgt>
   <wgt id='1004'> 0.10823E+09 </wgt>
   <wgt id='1005'> 0.15527E+09 </wgt>
   <wgt id='1006'> 0.64990E+08 </wgt>
   <wgt id='1007'> 0.25266E+09 </wgt>
   <wgt id='1008'> 0.36247E+09 </wgt>
   <wgt id='1009'> 0.15172E+09 </wgt>
  </rwgt>
  </event>
  <event>
  4      0 0.15466170E+09 0.14676249E+02 0.75467716E-02 0.11800000E+00
       21 -1    0    0  503  502 0.00000000E+00 0.00000000E+00 0.43777462E+01 0.43777462E+01 0.00000000E+00 0.0000E+00 0.9000E+01
       21 -1    0    0  501  503 -.00000000E+00 -.00000000E+00 -.12300410E+02 0.12300410E+02 0.00000000E+00 0.0000E+00 0.9000E+01
        5  1    1    2  501    0 -.54976693E+00 0.36120841E+01 -.88371134E+01 0.10655232E+02 0.47000000E+01 0.0000E+00 0.9000E+01
       -5  1    1    2    0  502 0.54976693E+00 -.36120841E+01 0.91444985E+00 0.60229240E+01 0.47000000E+01 0.0000E+00 0.9000E+01
#aMCatNLO 1  5  4  0  0 0.00000000E+00 0.00000000E+00 9  0  0 0.10000001E+01 0.20654233E+00 0.31078404E+01 0.00000000E+00 0.00000000E+00
  <rwgt>
   <wgt id='1001'> 0.15466E+09 </wgt>
   <wgt id='1002'> 0.30511E+09 </wgt>
   <wgt id='1003'> 0.45001E+08 </wgt>
   <wgt id='1004'> 0.10979E+09 </wgt>
   <wgt id='1005'> 0.21659E+09 </wgt>
   <wgt id='1006'> 0.31944E+08 </wgt>
   <wgt id='1007'> 0.24365E+09 </wgt>
   <wgt id='1008'> 0.48067E+09 </wgt>
   <wgt id='1009'> 0.70891E+08 </wgt>
  </rwgt>
  </event>
  <event>
  4      0 0.15466170E+09 0.13147316E+02 0.75467716E-02 0.21581464E+00
       21 -1    0    0  501  502 0.00000000E+00 0.00000000E+00 0.10261593E+01 0.10261593E+01 0.00000000E+00 0.0000E+00 0.9000E+01
       21 -1    0    0  502  503 -.00000000E+00 -.00000000E+00 -.42111372E+02 0.42111372E+02 0.00000000E+00 0.0000E+00 0.9000E+01
        5  1    1    2  501    0 -.64969506E+00 0.15425532E+01 -.64983886E+01 0.81927180E+01 0.47000000E+01 0.0000E+00 0.9000E+01
       -5  1    1    2    0  503 0.64969506E+00 -.15425532E+01 -.34586825E+02 0.34944814E+02 0.47000000E+01 0.0000E+00 0.9000E+01
#aMCatNLO 1  5  3  0  0 0.00000000E+00 0.00000000E+00 9  0  0 0.99999999E+00 0.15136161E+00 0.35056468E+01 0.00000000E+00 0.00000000E+00
  <rwgt>
   <wgt id='1001'> 0.15466E+09 </wgt>
   <wgt id='1002'> 0.32964E+09 </wgt>
   <wgt id='1003'> 0.33539E+08 </wgt>
   <wgt id='1004'> 0.10795E+09 </wgt>
   <wgt id='1005'> 0.23009E+09 </wgt>
   <wgt id='1006'> 0.23410E+08 </wgt>
   <wgt id='1007'> 0.25438E+09 </wgt>
   <wgt id='1008'> 0.54219E+09 </wgt>
   <wgt id='1009'> 0.55164E+08 </wgt>
  </rwgt>
  </event>
  <event>
  4      0 0.15466170E+09 0.12324213E+02 0.75467716E-02 0.20375659E+00
       21 -1    0    0  503  502 0.00000000E+00 0.00000000E+00 0.41275557E+01 0.41275557E+01 0.00000000E+00 0.0000E+00 0.9000E+01
       21 -1    0    0  501  503 -.00000000E+00 -.00000000E+00 -.91995257E+01 0.91995257E+01 0.00000000E+00 0.0000E+00 0.9000E+01
        5  1    1    2  501    0 -.38038919E+01 0.10579781E+01 -.19509990E+01 0.64409090E+01 0.47000000E+01 0.0000E+00 0.9000E+01
       -5  1    1    2    0  502 0.38038919E+01 -.10579781E+01 -.31209710E+01 0.68861725E+01 0.47000000E+01 0.0000E+00 0.9000E+01
#aMCatNLO 1  5  3  0  0 0.00000000E+00 0.00000000E+00 9  0  0 0.10000000E+01 0.20539312E+00 0.31355869E+01 0.00000000E+00 0.00000000E+00
  <rwgt>
   <wgt id='1001'> 0.15466E+09 </wgt>
   <wgt id='1002'> 0.30997E+09 </wgt>
   <wgt id='1003'> 0.44627E+08 </wgt>
   <wgt id='1004'> 0.11009E+09 </wgt>
   <wgt id='1005'> 0.22064E+09 </wgt>
   <wgt id='1006'> 0.31766E+08 </wgt>
   <wgt id='1007'> 0.24198E+09 </wgt>
   <wgt id='1008'> 0.48495E+09 </wgt>
   <wgt id='1009'> 0.69819E+08 </wgt>
  </rwgt>
  </event>
  <event>
  4      0 0.15466170E+09 0.12143557E+02 0.75467716E-02 0.21043694E+00
       21 -1    0    0  503  502 0.00000000E+00 0.00000000E+00 0.20267245E+00 0.20267245E+00 0.00000000E+00 0.0000E+00 0.9000E+01
       21 -1    0    0  501  503 0.00000000E+00 0.00000000E+00 -.18190185E+03 0.18190185E+03 0.00000000E+00 0.0000E+00 0.9000E+01
        5  1    1    2  501    0 0.94098225E+00 0.26056270E+01 -.13081255E+03 0.13092627E+03 0.47000000E+01 0.0000E+00 0.9000E+01
       -5  1    1    2    0  502 -.94098225E+00 -.26056270E+01 -.50886630E+02 0.51178255E+02 0.47000000E+01 0.0000E+00 0.9000E+01
#aMCatNLO 1  5  2  0  0 0.00000000E+00 0.00000000E+00 9  0  0 0.99999997E+00 0.26877388E+00 0.28832481E+01 0.00000000E+00 0.00000000E+00
  <rwgt>
   <wgt id='1001'> 0.15466E+09 </wgt>
   <wgt id='1002'> 0.27731E+09 </wgt>
   <wgt id='1003'> 0.59037E+08 </wgt>
   <wgt id='1004'> 0.10890E+09 </wgt>
   <wgt id='1005'> 0.19526E+09 </wgt>
   <wgt id='1006'> 0.41569E+08 </wgt>
   <wgt id='1007'> 0.24870E+09 </wgt>
   <wgt id='1008'> 0.44592E+09 </wgt>
   <wgt id='1009'> 0.94935E+08 </wgt>
  </rwgt>
  </event>
  <event>
  4      0 0.15466170E+09 0.12317168E+02 0.75467716E-02 0.21778750E+00
       21 -1    0    0  501  502 0.00000000E+00 0.00000000E+00 0.68748652E+02 0.68748652E+02 0.00000000E+00 0.0000E+00 0.9000E+01
       21 -1    0    0  502  503 0.00000000E+00 0.00000000E+00 -.55169309E+00 0.55169309E+00 0.00000000E+00 0.0000E+00 0.9000E+01
        5  1    1    2  501    0 -.13800777E+00 0.11206707E+01 0.55569518E+02 0.55779354E+02 0.47000000E+01 0.0000E+00 0.9000E+01
       -5  1    1    2    0  503 0.13800777E+00 -.11206707E+01 0.12627441E+02 0.13520992E+02 0.47000000E+01 0.0000E+00 0.9000E+01
#aMCatNLO 1  5  2  0  0 0.00000000E+00 0.00000000E+00 9  0  0 0.99999994E+00 0.15859532E+00 0.35107003E+01 0.00000000E+00 0.00000000E+00
  <rwgt>
   <wgt id='1001'> 0.15466E+09 </wgt>
   <wgt id='1002'> 0.32737E+09 </wgt>
   <wgt id='1003'> 0.35255E+08 </wgt>
   <wgt id='1004'> 0.10761E+09 </wgt>
   <wgt id='1005'> 0.22776E+09 </wgt>
   <wgt id='1006'> 0.24528E+08 </wgt>
   <wgt id='1007'> 0.25652E+09 </wgt>
   <wgt id='1008'> 0.54297E+09 </wgt>
   <wgt id='1009'> 0.58474E+08 </wgt>
  </rwgt>
  </event>
  <event>
  4      0 0.15466170E+09 0.14479693E+02 0.75467716E-02 0.19684096E+00
       21 -1    0    0  501  502 0.00000000E+00 0.00000000E+00 0.40131979E+01 0.40131979E+01 0.00000000E+00 0.0000E+00 0.9000E+01
       21 -1    0    0  502  503 0.00000000E+00 0.00000000E+00 -.13060752E+02 0.13060752E+02 0.00000000E+00 0.0000E+00 0.9000E+01
        5  1    1    2  501    0 0.89612937E+00 0.51041169E+01 -.23271333E+01 0.73729646E+01 0.47000000E+01 0.0000E+00 0.9000E+01
       -5  1    1    2    0  503 -.89612937E+00 -.51041169E+01 -.67204204E+01 0.97009849E+01 0.47000000E+01 0.0000E+00 0.9000E+01
#aMCatNLO 1  5  1  0  0 0.00000000E+00 0.00000000E+00 9  0  0 0.99999999E+00 0.25299025E+00 0.28230483E+01 0.00000000E+00 0.00000000E+00
  <rwgt>
   <wgt id='1001'> 0.15466E+09 </wgt>
   <wgt id='1002'> 0.28693E+09 </wgt>
   <wgt id='1003'> 0.54351E+08 </wgt>
   <wgt id='1004'> 0.11134E+09 </wgt>
   <wgt id='1005'> 0.20656E+09 </wgt>
   <wgt id='1006'> 0.39127E+08 </wgt>
   <wgt id='1007'> 0.23535E+09 </wgt>
   <wgt id='1008'> 0.43662E+09 </wgt>
   <wgt id='1009'> 0.82704E+08 </wgt>
  </rwgt>
  </event>
  <event>
  4      0 0.15466170E+09 0.13787688E+02 0.75467716E-02 0.21518084E+00
       21 -1    0    0  503  502 0.00000000E+00 0.00000000E+00 0.11398170E+03 0.11398170E+03 0.00000000E+00 0.0000E+00 0.9000E+01
       21 -1    0    0  501  503 0.00000000E+00 0.00000000E+00 -.41695364E+00 0.41695364E+00 0.00000000E+00 0.0000E+00 0.9000E+01
        5  1    1    2  501    0 0.17288417E+01 0.57489372E+00 0.17763053E+02 0.18464437E+02 0.47000000E+01 0.0000E+00 0.9000E+01
       -5  1    1    2    0  502 -.17288417E+01 -.57489372E+00 0.95801692E+02 0.95934215E+02 0.47000000E+01 0.0000E+00 0.9000E+01
#aMCatNLO 1  5  4  0  0 0.00000000E+00 0.00000000E+00 9  0  0 0.99999998E+00 0.19647734E+00 0.32202499E+01 0.00000000E+00 0.00000000E+00
  <rwgt>
   <wgt id='1001'> 0.15466E+09 </wgt>
   <wgt id='1002'> 0.30362E+09 </wgt>
   <wgt id='1003'> 0.43491E+08 </wgt>
   <wgt id='1004'> 0.10806E+09 </wgt>
   <wgt id='1005'> 0.21214E+09 </wgt>
   <wgt id='1006'> 0.30388E+08 </wgt>
   <wgt id='1007'> 0.25370E+09 </wgt>
   <wgt id='1008'> 0.49805E+09 </wgt>
   <wgt id='1009'> 0.71342E+08 </wgt>
  </rwgt>
  </event>
  <event>
  4      0 0.15466170E+09 0.18385219E+02 0.75467716E-02 0.20115263E+00
       21 -1    0    0  503  502 0.00000000E+00 0.00000000E+00 0.28475792E+00 0.28475792E+00 0.00000000E+00 0.0000E+00 0.9000E+01
       21 -1    0    0  501  503 0.00000000E+00 0.00000000E+00 -.29675758E+03 0.29675758E+03 0.00000000E+00 0.0000E+00 0.9000E+01
        5  1    1    2  501    0 -.30670166E+01 -.31609625E+01 -.25420168E+03 0.25428327E+03 0.47000000E+01 0.0000E+00 0.9000E+01
       -5  1    1    2    0  502 0.30670166E+01 0.31609625E+01 -.42271146E+02 0.42759070E+02 0.47000000E+01 0.0000E+00 0.9000E+01
#aMCatNLO 1  5  1  0  0 0.00000000E+00 0.00000000E+00 9  0  0 0.10000000E+01 0.31950908E+00 0.25081457E+01 0.00000000E+00 0.00000000E+00
  <rwgt>
   <wgt id='1001'> 0.15466E+09 </wgt>
   <wgt id='1002'> 0.25057E+09 </wgt>
   <wgt id='1003'> 0.69126E+08 </wgt>
   <wgt id='1004'> 0.11056E+09 </wgt>
   <wgt id='1005'> 0.17912E+09 </wgt>
   <wgt id='1006'> 0.49416E+08 </wgt>
   <wgt id='1007'> 0.23943E+09 </wgt>
   <wgt id='1008'> 0.38791E+09 </wgt>
   <wgt id='1009'> 0.10702E+09 </wgt>
  </rwgt>
  </event>
  <event>
  4      0 0.15466170E+09 0.11184694E+03 0.75467716E-02 0.18847016E+00
       21 -1    0    0  501  502 0.00000000E+00 0.00000000E+00 0.28630648E+02 0.28630648E+02 0.00000000E+00 0.0000E+00 0.9000E+01
       21 -1    0    0  502  503 0.00000000E+00 0.00000000E+00 -.10923379E+03 0.10923379E+03 0.00000000E+00 0.0000E+00 0.9000E+01
        5  1    1    2  501    0 -.68336419E+01 -.45158055E+00 0.27866070E+02 0.29077662E+02 0.47000000E+01 0.0000E+00 0.9000E+01
       -5  1    1    2    0  503 0.68336419E+01 0.45158055E+00 -.10846921E+03 0.10878678E+03 0.47000000E+01 0.0000E+00 0.9000E+01
#aMCatNLO 1  5  1  0  0 0.00000000E+00 0.00000000E+00 9  0  0 0.99999999E+00 0.47536135E+00 0.18939452E+01 0.00000000E+00 0.00000000E+00
  <rwgt>
   <wgt id='1001'> 0.15466E+09 </wgt>
   <wgt id='1002'> 0.19891E+09 </wgt>
   <wgt id='1003'> 0.10073E+09 </wgt>
   <wgt id='1004'> 0.11288E+09 </wgt>
   <wgt id='1005'> 0.14517E+09 </wgt>
   <wgt id='1006'> 0.73520E+08 </wgt>
   <wgt id='1007'> 0.22776E+09 </wgt>
   <wgt id='1008'> 0.29292E+09 </wgt>
   <wgt id='1009'> 0.14834E+09 </wgt>
  </rwgt>
  </event>
  <event>
  4      0 0.15466170E+09 0.14804492E+02 0.75467716E-02 0.19443890E+00
       21 -1    0    0  501  502 0.00000000E+00 0.00000000E+00 0.47659097E+02 0.47659097E+02 0.00000000E+00 0.0000E+00 0.9000E+01
       21 -1    0    0  502  503 0.00000000E+00 0.00000000E+00 -.11496912E+01 0.11496912E+01 0.00000000E+00 0.0000E+00 0.9000E+01
        5  1    1    2  501    0 0.35847011E+01 -.43477914E+01 0.20041511E+02 0.21342575E+02 0.47000000E+01 0.0000E+00 0.9000E+01
       -5  1    1    2    0  503 -.35847011E+01 0.43477914E+01 0.26467896E+02 0.27466213E+02 0.47000000E+01 0.0000E+00 0.9000E+01
#aMCatNLO 1  5  1  0  0 0.00000000E+00 0.00000000E+00 9  0  0 0.10000000E+01 0.27535324E+00 0.26828177E+01 0.00000000E+00 0.00000000E+00
  <rwgt>
   <wgt id='1001'> 0.15466E+09 </wgt>
   <wgt id='1002'> 0.27528E+09 </wgt>
   <wgt id='1003'> 0.58923E+08 </wgt>
   <wgt id='1004'> 0.11178E+09 </wgt>
   <wgt id='1005'> 0.19895E+09 </wgt>
   <wgt id='1006'> 0.42586E+08 </wgt>
   <wgt id='1007'> 0.23312E+09 </wgt>
   <wgt id='1008'> 0.41493E+09 </wgt>
   <wgt id='1009'> 0.88815E+08 </wgt>
  </rwgt>
  </event>
  <event>
  4      0 0.15466170E+09 0.19785852E+02 0.75467716E-02 0.20512234E+00
       21 -1    0    0  501  502 0.00000000E+00 0.00000000E+00 0.20864966E+03 0.20864966E+03 0.00000000E+00 0.0000E+00 0.9000E+01
       21 -1    0    0  502  503 0.00000000E+00 0.00000000E+00 -.46906370E+00 0.46906370E+00 0.00000000E+00 0.0000E+00 0.9000E+01
        5  1    1    2  501    0 -.36852334E+01 0.43390297E+00 0.18731873E+03 0.18741442E+03 0.47000000E+01 0.0000E+00 0.9000E+01
       -5  1    1    2    0  503 0.36852334E+01 -.43390297E+00 0.20861866E+02 0.21704301E+02 0.47000000E+01 0.0000E+00 0.9000E+01
#aMCatNLO 1  5  3  0  0 0.00000000E+00 0.00000000E+00 9  0  0 0.10000000E+01 0.26955806E+00 0.26956214E+01 0.00000000E+00 0.00000000E+00
  <rwgt>
   <wgt id='1001'> 0.15466E+09 </wgt>
   <wgt id='1002'> 0.26500E+09 </wgt>
   <wgt id='1003'> 0.58698E+08 </wgt>
   <wgt id='1004'> 0.10984E+09 </wgt>
   <wgt id='1005'> 0.18822E+09 </wgt>
   <wgt id='1006'> 0.41690E+08 </wgt>
   <wgt id='1007'> 0.24332E+09 </wgt>
   <wgt id='1008'> 0.41691E+09 </wgt>
   <wgt id='1009'> 0.92348E+08 </wgt>
  </rwgt>
  </event>
  <event>
  4      0 0.15466170E+09 0.15188050E+02 0.75467716E-02 0.20555389E+00
       21 -1    0    0  501  502 0.00000000E+00 0.00000000E+00 0.21073276E+03 0.21073276E+03 0.00000000E+00 0.0000E+00 0.9000E+01
       21 -1    0    0  502  503 0.00000000E+00 0.00000000E+00 -.27366043E+00 0.27366043E+00 0.00000000E+00 0.0000E+00 0.9000E+01
        5  1    1    2  501    0 -.20520833E+01 -.30011133E+01 0.17092632E+03 0.17102958E+03 0.47000000E+01 0.0000E+00 0.9000E+01
       -5  1    1    2    0  503 0.20520833E+01 0.30011133E+01 0.39532780E+02 0.39976848E+02 0.47000000E+01 0.0000E+00 0.9000E+01
#aMCatNLO 1  5  4  0  0 0.00000000E+00 0.00000000E+00 9  0  0 0.99999999E+00 0.28306983E+00 0.27161641E+01 0.00000000E+00 0.00000000E+00
  <rwgt>
   <wgt id='1001'> 0.15466E+09 </wgt>
   <wgt id='1002'> 0.26655E+09 </wgt>
   <wgt id='1003'> 0.61684E+08 </wgt>
   <wgt id='1004'> 0.10977E+09 </wgt>
   <wgt id='1005'> 0.18918E+09 </wgt>
   <wgt id='1006'> 0.43780E+08 </wgt>
   <wgt id='1007'> 0.24375E+09 </wgt>
   <wgt id='1008'> 0.42008E+09 </wgt>
   <wgt id='1009'> 0.97216E+08 </wgt>
  </rwgt>
  </event>
  <event>
  4      0 0.15466170E+09 0.12649357E+02 0.75467716E-02 0.20265758E+00
       21 -1    0    0  503  502 0.00000000E+00 0.00000000E+00 0.10219974E+00 0.10219974E+00 0.00000000E+00 0.0000E+00 0.9000E+01
       21 -1    0    0  501  503 -.00000000E+00 -.00000000E+00 -.39140568E+03 0.39140568E+03 0.00000000E+00 0.0000E+00 0.9000E+01
        5  1    1    2  501    0 0.41153499E+01 -.45127425E+00 -.16846072E+03 0.16857712E+03 0.47000000E+01 0.0000E+00 0.9000E+01
       -5  1    1    2    0  502 -.41153499E+01 0.45127425E+00 -.22284275E+03 0.22293076E+03 0.47000000E+01 0.0000E+00 0.9000E+01
#aMCatNLO 1  5  4  0  0 0.00000000E+00 0.00000000E+00 9  0  0 0.10000000E+01 0.36645484E+00 0.24388244E+01 0.00000000E+00 0.00000000E+00
  <rwgt>
   <wgt id='1001'> 0.15466E+09 </wgt>
   <wgt id='1002'> 0.24217E+09 </wgt>
   <wgt id='1003'> 0.79479E+08 </wgt>
   <wgt id='1004'> 0.11029E+09 </wgt>
   <wgt id='1005'> 0.17269E+09 </wgt>
   <wgt id='1006'> 0.56677E+08 </wgt>
   <wgt id='1007'> 0.24089E+09 </wgt>
   <wgt id='1008'> 0.37720E+09 </wgt>
   <wgt id='1009'> 0.12379E+09 </wgt>
  </rwgt>
  </event>
  <event>
  4      0 0.15466170E+09 0.16061952E+02 0.75467716E-02 0.19924815E+00
       21 -1    0    0  503  502 0.00000000E+00 0.00000000E+00 0.29151365E+02 0.29151365E+02 0.00000000E+00 0.0000E+00 0.9000E+01
       21 -1    0    0  501  503 0.00000000E+00 0.00000000E+00 -.22124720E+01 0.22124720E+01 0.00000000E+00 0.0000E+00 0.9000E+01
        5  1    1    2  501    0 -.24307499E+01 -.40732324E+01 0.47571691E+01 0.81988064E+01 0.47000000E+01 0.0000E+00 0.9000E+01
       -5  1    1    2    0  502 0.24307499E+01 0.40732324E+01 0.22181723E+02 0.23165030E+02 0.47000000E+01 0.0000E+00 0.9000E+01
#aMCatNLO 1  5  2  0  0 0.00000000E+00 0.00000000E+00 9  0  0 0.99999998E+00 0.24802792E+00 0.28311325E+01 0.00000000E+00 0.00000000E+00
  <rwgt>
   <wgt id='1001'> 0.15466E+09 </wgt>
   <wgt id='1002'> 0.28501E+09 </wgt>
   <wgt id='1003'> 0.53495E+08 </wgt>
   <wgt id='1004'> 0.11091E+09 </wgt>
   <wgt id='1005'> 0.20437E+09 </wgt>
   <wgt id='1006'> 0.38361E+08 </wgt>
   <wgt id='1007'> 0.23761E+09 </wgt>
   <wgt id='1008'> 0.43787E+09 </wgt>
   <wgt id='1009'> 0.82186E+08 </wgt>
  </rwgt>
  </event>
  <event>
  4      0 0.15466170E+09 0.22792674E+02 0.75467716E-02 0.20448893E+00
       21 -1    0    0  503  502 0.00000000E+00 0.00000000E+00 0.44849304E+01 0.44849304E+01 0.00000000E+00 0.0000E+00 0.9000E+01
       21 -1    0    0  501  503 0.00000000E+00 0.00000000E+00 -.28958419E+02 0.28958419E+02 0.00000000E+00 0.0000E+00 0.9000E+01
        5  1    1    2  501    0 0.36032204E+01 -.12710776E+01 -.26400997E+02 0.27086925E+02 0.47000000E+01 0.0000E+00 0.9000E+01
       -5  1    1    2    0  502 -.36032204E+01 0.12710776E+01 0.19275093E+01 0.63564241E+01 0.47000000E+01 0.0000E+00 0.9000E+01
#aMCatNLO 1  5  1  0  0 0.00000000E+00 0.00000000E+00 9  0  0 0.10000000E+01 0.24078665E+00 0.28485464E+01 0.00000000E+00 0.00000000E+00
  <rwgt>
   <wgt id='1001'> 0.15466E+09 </wgt>
   <wgt id='1002'> 0.28076E+09 </wgt>
   <wgt id='1003'> 0.52379E+08 </wgt>
   <wgt id='1004'> 0.10996E+09 </wgt>
   <wgt id='1005'> 0.19961E+09 </wgt>
   <wgt id='1006'> 0.37240E+08 </wgt>
   <wgt id='1007'> 0.24270E+09 </wgt>
   <wgt id='1008'> 0.44056E+09 </wgt>
   <wgt id='1009'> 0.82193E+08 </wgt>
  </rwgt>
  </event>
  <event>
  4      0 0.15466170E+09 0.13200746E+02 0.75467716E-02 0.20518595E+00
       21 -1    0    0  503  502 0.00000000E+00 0.00000000E+00 0.39721218E+00 0.39721218E+00 0.00000000E+00 0.0000E+00 0.9000E+01
       21 -1    0    0  501  503 -.00000000E+00 -.00000000E+00 -.10967671E+03 0.10967671E+03 0.00000000E+00 0.0000E+00 0.9000E+01
        5  1    1    2  501    0 -.26327720E+01 -.25991835E+01 -.77909415E+02 0.78138685E+02 0.47000000E+01 0.0000E+00 0.9000E+01
       -5  1    1    2    0  502 0.26327720E+01 0.25991835E+01 -.31370087E+02 0.31935241E+02 0.47000000E+01 0.0000E+00 0.9000E+01
#aMCatNLO 1  5  4  0  0 0.00000000E+00 0.00000000E+00 9  0  0 0.99999995E+00 0.24504992E+00 0.28984603E+01 0.00000000E+00 0.00000000E+00
  <rwgt>
   <wgt id='1001'> 0.15466E+09 </wgt>
   <wgt id='1002'> 0.28486E+09 </wgt>
   <wgt id='1003'> 0.53368E+08 </wgt>
   <wgt id='1004'> 0.10984E+09 </wgt>
   <wgt id='1005'> 0.20230E+09 </wgt>
   <wgt id='1006'> 0.37900E+08 </wgt>
   <wgt id='1007'> 0.24338E+09 </wgt>
   <wgt id='1008'> 0.44828E+09 </wgt>
   <wgt id='1009'> 0.83982E+08 </wgt>
  </rwgt>
  </event>
  <event>
  4      0 0.15466170E+09 0.19203752E+02 0.75467716E-02 0.18617593E+00
       21 -1    0    0  503  502 0.00000000E+00 0.00000000E+00 0.84737510E+01 0.84737510E+01 0.00000000E+00 0.0000E+00 0.9000E+01
       21 -1    0    0  501  503 0.00000000E+00 0.00000000E+00 -.10880190E+02 0.10880190E+02 0.00000000E+00 0.0000E+00 0.9000E+01
        5  1    1    2  501    0 0.10374824E+01 -.72840649E+01 0.28245413E+01 0.91761651E+01 0.47000000E+01 0.0000E+00 0.9000E+01
       -5  1    1    2    0  502 -.10374824E+01 0.72840649E+01 -.52309804E+01 0.10177776E+02 0.47000000E+01 0.0000E+00 0.9000E+01
#aMCatNLO 1  5  1  0  0 0.00000000E+00 0.00000000E+00 9  0  0 0.99999999E+00 0.33000831E+00 0.24303001E+01 0.00000000E+00 0.00000000E+00
  <rwgt>
   <wgt id='1001'> 0.15466E+09 </wgt>
   <wgt id='1002'> 0.25750E+09 </wgt>
   <wgt id='1003'> 0.69669E+08 </wgt>
   <wgt id='1004'> 0.11331E+09 </wgt>
   <wgt id='1005'> 0.18864E+09 </wgt>
   <wgt id='1006'> 0.51040E+08 </wgt>
   <wgt id='1007'> 0.22576E+09 </wgt>
   <wgt id='1008'> 0.37588E+09 </wgt>
   <wgt id='1009'> 0.10170E+09 </wgt>
  </rwgt>
  </event>
  <event>
  4      0 0.15466170E+09 0.14352316E+02 0.75467716E-02 0.21711723E+00
       21 -1    0    0  501  502 0.00000000E+00 0.00000000E+00 0.46153433E+02 0.46153433E+02 0.00000000E+00 0.0000E+00 0.9000E+01
       21 -1    0    0  502  503 0.00000000E+00 0.00000000E+00 -.11157835E+01 0.11157835E+01 0.00000000E+00 0.0000E+00 0.9000E+01
        5  1    1    2  501    0 0.11473539E+01 -.68057751E+00 0.39830068E+02 0.40128593E+02 0.47000000E+01 0.0000E+00 0.9000E+01
       -5  1    1    2    0  503 -.11473539E+01 0.68057751E+00 0.52075809E+01 0.71406236E+01 0.47000000E+01 0.0000E+00 0.9000E+01
#aMCatNLO 1  5  4  0  0 0.00000000E+00 0.00000000E+00 9  0  0 0.10000000E+01 0.14856892E+00 0.35148499E+01 0.00000000E+00 0.00000000E+00
  <rwgt>
   <wgt id='1001'> 0.15466E+09 </wgt>
   <wgt id='1002'> 0.32869E+09 </wgt>
   <wgt id='1003'> 0.32990E+08 </wgt>
   <wgt id='1004'> 0.10772E+09 </wgt>
   <wgt id='1005'> 0.22894E+09 </wgt>
   <wgt id='1006'> 0.22978E+08 </wgt>
   <wgt id='1007'> 0.25579E+09 </wgt>
   <wgt id='1008'> 0.54361E+09 </wgt>
   <wgt id='1009'> 0.54562E+08 </wgt>
  </rwgt>
  </event>
  <event>
  4      0 0.15466170E+09 0.16187791E+02 0.75467716E-02 0.19276577E+00
       21 -1    0    0  503  502 0.00000000E+00 0.00000000E+00 0.25258918E+00 0.25258918E+00 0.00000000E+00 0.0000E+00 0.9000E+01
       21 -1    0    0  501  503 -.00000000E+00 -.00000000E+00 -.25935849E+03 0.25935849E+03 0.00000000E+00 0.0000E+00 0.9000E+01
        5  1    1    2  501    0 0.15525866E+01 0.57554635E+01 -.17458728E+03 0.17475224E+03 0.47000000E+01 0.0000E+00 0.9000E+01
       -5  1    1    2    0  502 -.15525866E+01 -.57554635E+01 -.84518621E+02 0.84858842E+02 0.47000000E+01 0.0000E+00 0.9000E+01
#aMCatNLO 1  5  3  0  0 0.00000000E+00 0.00000000E+00 9  0  0 0.10000000E+01 0.35621928E+00 0.23568702E+01 0.00000000E+00 0.00000000E+00
  <rwgt>
   <wgt id='1001'> 0.15466E+09 </wgt>
   <wgt id='1002'> 0.24342E+09 </wgt>
   <wgt id='1003'> 0.76019E+08 </wgt>
   <wgt id='1004'> 0.11208E+09 </wgt>
   <wgt id='1005'> 0.17642E+09 </wgt>
   <wgt id='1006'> 0.55094E+08 </wgt>
   <wgt id='1007'> 0.23159E+09 </wgt>
   <wgt id='1008'> 0.36451E+09 </wgt>
   <wgt id='1009'> 0.11384E+09 </wgt>
  </rwgt>
  </event>
  <event>
  4      0 0.15466170E+09 0.34343236E+02 0.75467716E-02 0.16622136E+00
       21 -1    0    0  501  502 0.00000000E+00 0.00000000E+00 0.15107482E+01 0.15107482E+01 0.00000000E+00 0.0000E+00 0.9000E+01
       21 -1    0    0  502  503 0.00000000E+00 0.00000000E+00 -.19517777E+03 0.19517777E+03 0.00000000E+00 0.0000E+00 0.9000E+01
        5  1    1    2  501    0 -.40871509E+01 0.12875447E+02 -.42412863E+02 0.44759612E+02 0.47000000E+01 0.0000E+00 0.9000E+01
       -5  1    1    2    0  503 0.40871509E+01 -.12875447E+02 -.15125416E+03 0.15192891E+03 0.47000000E+01 0.0000E+00 0.9000E+01
#aMCatNLO 1  5  1  0  0 0.00000000E+00 0.00000000E+00 9  0  0 0.10000000E+01 0.49019792E+00 0.18575800E+01 0.00000000E+00 0.00000000E+00
  <rwgt>
   <wgt id='1001'> 0.15466E+09 </wgt>
   <wgt id='1002'> 0.20720E+09 </wgt>
   <wgt id='1003'> 0.10015E+09 </wgt>
   <wgt id='1004'> 0.11709E+09 </wgt>
   <wgt id='1005'> 0.15686E+09 </wgt>
   <wgt id='1006'> 0.75815E+08 </wgt>
   <wgt id='1007'> 0.21444E+09 </wgt>
   <wgt id='1008'> 0.28729E+09 </wgt>
   <wgt id='1009'> 0.13886E+09 </wgt>
  </rwgt>
  </event>
  <event>
  4      0 0.15466170E+09 0.12253149E+02 0.75467716E-02 0.21722320E+00
       21 -1    0    0  503  502 0.00000000E+00 0.00000000E+00 0.20330319E+04 0.20330319E+04 0.00000000E+00 0.0000E+00 0.9000E+01
       21 -1    0    0  501  503 0.00000000E+00 0.00000000E+00 -.18462532E-01 0.18462532E-01 0.00000000E+00 0.0000E+00 0.9000E+01
        5  1    1    2  501    0 0.11740774E+01 -.56606220E+00 0.40134530E+03 0.40137494E+03 0.47000000E+01 0.0000E+00 0.9000E+01
       -5  1    1    2    0  502 -.11740774E+01 0.56606220E+00 0.16316681E+04 0.16316754E+04 0.47000000E+01 0.0000E+00 0.9000E+01
#aMCatNLO 1  5  3  0  0 0.00000000E+00 0.00000000E+00 9  0  0 0.99999998E+00 0.60297446E+00 0.19679709E+01 0.00000000E+00 0.00000000E+00
  <rwgt>
   <wgt id='1001'> 0.15466E+09 </wgt>
   <wgt id='1002'> 0.18395E+09 </wgt>
   <wgt id='1003'> 0.13391E+09 </wgt>
   <wgt id='1004'> 0.10771E+09 </wgt>
   <wgt id='1005'> 0.12810E+09 </wgt>
   <wgt id='1006'> 0.93257E+08 </wgt>
   <wgt id='1007'> 0.25590E+09 </wgt>
   <wgt id='1008'> 0.30437E+09 </wgt>
   <wgt id='1009'> 0.22158E+09 </wgt>
  </rwgt>
  </event>
  <event>
  4      0 0.15466170E+09 0.18763854E+02 0.75467716E-02 0.20817228E+00
       21 -1    0    0  501  502 0.00000000E+00 0.00000000E+00 0.10945853E+01 0.10945853E+01 0.00000000E+00 0.0000E+00 0.9000E+01
       21 -1    0    0  502  503 0.00000000E+00 0.00000000E+00 -.80414517E+02 0.80414517E+02 0.00000000E+00 0.0000E+00 0.9000E+01
        5  1    1    2  501    0 -.27606197E+01 0.15728129E+01 -.72005723E+01 0.91669517E+01 0.47000000E+01 0.0000E+00 0.9000E+01
       -5  1    1    2    0  503 0.27606197E+01 -.15728129E+01 -.72119360E+02 0.72342151E+02 0.47000000E+01 0.0000E+00 0.9000E+01
#aMCatNLO 1  5  1  0  0 0.00000000E+00 0.00000000E+00 9  0  0 0.10000001E+01 0.21561966E+00 0.29752183E+01 0.00000000E+00 0.00000000E+00
  <rwgt>
   <wgt id='1001'> 0.15466E+09 </wgt>
   <wgt id='1002'> 0.28885E+09 </wgt>
   <wgt id='1003'> 0.47188E+08 </wgt>
   <wgt id='1004'> 0.10930E+09 </wgt>
   <wgt id='1005'> 0.20413E+09 </wgt>
   <wgt id='1006'> 0.33348E+08 </wgt>
   <wgt id='1007'> 0.24639E+09 </wgt>
   <wgt id='1008'> 0.46016E+09 </wgt>
   <wgt id='1009'> 0.75172E+08 </wgt>
  </rwgt>
  </event>
  <event>
  4      0 0.15466170E+09 0.11449149E+02 0.75467716E-02 0.21081070E+00
       21 -1    0    0  503  502 0.00000000E+00 0.00000000E+00 0.32123649E+00 0.32123649E+00 0.00000000E+00 0.0000E+00 0.9000E+01
       21 -1    0    0  501  503 -.00000000E+00 -.00000000E+00 -.10201441E+03 0.10201441E+03 0.00000000E+00 0.0000E+00 0.9000E+01
        5  1    1    2  501    0 -.26146970E+01 -.67934006E+00 -.34407427E+02 0.34831870E+02 0.47000000E+01 0.0000E+00 0.9000E+01
       -5  1    1    2    0  502 0.26146970E+01 0.67934006E+00 -.67285750E+02 0.67503780E+02 0.47000000E+01 0.0000E+00 0.9000E+01
#aMCatNLO 1  5  4  0  0 0.00000000E+00 0.00000000E+00 9  0  0 0.10000000E+01 0.22191301E+00 0.31059451E+01 0.00000000E+00 0.00000000E+00
  <rwgt>
   <wgt id='1001'> 0.15466E+09 </wgt>
   <wgt id='1002'> 0.29827E+09 </wgt>
   <wgt id='1003'> 0.48774E+08 </wgt>
   <wgt id='1004'> 0.10883E+09 </wgt>
   <wgt id='1005'> 0.20988E+09 </wgt>
   <wgt id='1006'> 0.34321E+08 </wgt>
   <wgt id='1007'> 0.24910E+09 </wgt>
   <wgt id='1008'> 0.48037E+09 </wgt>
   <wgt id='1009'> 0.78553E+08 </wgt>
  </rwgt>
  </event>
  <event>
  4      0 0.15466170E+09 0.13873196E+02 0.75467716E-02 0.21212349E+00
       21 -1    0    0  501  502 0.00000000E+00 0.00000000E+00 0.18453251E+02 0.18453251E+02 0.00000000E+00 0.0000E+00 0.9000E+01
       21 -1    0    0  502  503 0.00000000E+00 0.00000000E+00 -.26074751E+01 0.26074751E+01 0.00000000E+00 0.0000E+00 0.9000E+01
        5  1    1    2  501    0 -.17222286E+01 -.17484438E+01 0.14712536E+02 0.15638793E+02 0.47000000E+01 0.0000E+00 0.9000E+01
       -5  1    1    2    0  503 0.17222286E+01 0.17484438E+01 0.11332398E+01 0.54219332E+01 0.47000000E+01 0.0000E+00 0.9000E+01
#aMCatNLO 1  5  3  0  0 0.00000000E+00 0.00000000E+00 9  0  0 0.10000000E+01 0.16860396E+00 0.33852914E+01 0.00000000E+00 0.00000000E+00
  <rwgt>
   <wgt id='1001'> 0.15466E+09 </wgt>
   <wgt id='1002'> 0.32332E+09 </wgt>
   <wgt id='1003'> 0.37136E+08 </wgt>
   <wgt id='1004'> 0.10860E+09 </wgt>
   <wgt id='1005'> 0.22702E+09 </wgt>
   <wgt id='1006'> 0.26077E+08 </wgt>
   <wgt id='1007'> 0.25046E+09 </wgt>
   <wgt id='1008'> 0.52358E+09 </wgt>
   <wgt id='1009'> 0.60139E+08 </wgt>
  </rwgt>
  </event>
  <event>
  4      0 0.15466170E+09 0.13418761E+02 0.75467716E-02 0.21750180E+00
       21 -1    0    0  501  502 0.00000000E+00 0.00000000E+00 0.14524171E+03 0.14524171E+03 0.00000000E+00 0.0000E+00 0.9000E+01
       21 -1    0    0  502  503 0.00000000E+00 0.00000000E+00 -.30993706E+00 0.30993706E+00 0.00000000E+00 0.0000E+00 0.9000E+01
        5  1    1    2  501    0 0.46871796E+00 -.11263431E+01 0.12268756E+03 0.12278361E+03 0.47000000E+01 0.0000E+00 0.9000E+01
       -5  1    1    2    0  503 -.46871796E+00 0.11263431E+01 0.22244212E+02 0.22768032E+02 0.47000000E+01 0.0000E+00 0.9000E+01
#aMCatNLO 1  5  2  0  0 0.00000000E+00 0.00000000E+00 9  0  0 0.10000000E+01 0.20808326E+00 0.32161459E+01 0.00000000E+00 0.00000000E+00
  <rwgt>
   <wgt id='1001'> 0.15466E+09 </wgt>
   <wgt id='1002'> 0.30026E+09 </wgt>
   <wgt id='1003'> 0.46235E+08 </wgt>
   <wgt id='1004'> 0.10765E+09 </wgt>
   <wgt id='1005'> 0.20900E+09 </wgt>
   <wgt id='1006'> 0.32183E+08 </wgt>
   <wgt id='1007'> 0.25621E+09 </wgt>
   <wgt id='1008'> 0.49742E+09 </wgt>
   <wgt id='1009'> 0.76591E+08 </wgt>
  </rwgt>
  </event>
  <event>
  4      0 0.15466170E+09 0.16147130E+02 0.75467716E-02 0.19747976E+00
       21 -1    0    0  503  502 0.00000000E+00 0.00000000E+00 0.11145055E+03 0.11145055E+03 0.00000000E+00 0.0000E+00 0.9000E+01
       21 -1    0    0  501  503 0.00000000E+00 0.00000000E+00 -.58485538E+00 0.58485538E+00 0.00000000E+00 0.0000E+00 0.9000E+01
        5  1    1    2  501    0 0.33596378E+01 0.37896306E+01 0.26453885E+02 0.27341297E+02 0.47000000E+01 0.0000E+00 0.9000E+01
       -5  1    1    2    0  502 -.33596378E+01 -.37896306E+01 0.84411811E+02 0.84694110E+02 0.47000000E+01 0.0000E+00 0.9000E+01
#aMCatNLO 1  5  1  0  0 0.00000000E+00 0.00000000E+00 9  0  0 0.99999998E+00 0.28239755E+00 0.26422042E+01 0.00000000E+00 0.00000000E+00
  <rwgt>
   <wgt id='1001'> 0.15466E+09 </wgt>
   <wgt id='1002'> 0.26787E+09 </wgt>
   <wgt id='1003'> 0.60732E+08 </wgt>
   <wgt id='1004'> 0.11122E+09 </wgt>
   <wgt id='1005'> 0.19264E+09 </wgt>
   <wgt id='1006'> 0.43676E+08 </wgt>
   <wgt id='1007'> 0.23595E+09 </wgt>
   <wgt id='1008'> 0.40865E+09 </wgt>
   <wgt id='1009'> 0.92649E+08 </wgt>
  </rwgt>
  </event>
  <event>
  4      0 0.15466170E+09 0.34645645E+02 0.75467716E-02 0.16378239E+00
       21 -1    0    0  501  502 0.00000000E+00 0.00000000E+00 0.29889355E+01 0.29889355E+01 0.00000000E+00 0.0000E+00 0.9000E+01
       21 -1    0    0  502  503 0.00000000E+00 0.00000000E+00 -.10039701E+03 0.10039701E+03 0.00000000E+00 0.0000E+00 0.9000E+01
        5  1    1    2  501    0 -.80710169E+01 -.12146909E+02 -.24589754E+02 0.28972999E+02 0.47000000E+01 0.0000E+00 0.9000E+01
       -5  1    1    2    0  503 0.80710169E+01 0.12146909E+02 -.72818318E+02 0.74412944E+02 0.47000000E+01 0.0000E+00 0.9000E+01
#aMCatNLO 1  5  2  0  0 0.00000000E+00 0.00000000E+00 9  0  0 0.99999993E+00 0.49109760E+00 0.18597388E+01 0.00000000E+00 0.00000000E+00
  <rwgt>
   <wgt id='1001'> 0.15466E+09 </wgt>
   <wgt id='1002'> 0.20861E+09 </wgt>
   <wgt id='1003'> 0.99928E+08 </wgt>
   <wgt id='1004'> 0.11755E+09 </wgt>
   <wgt id='1005'> 0.15856E+09 </wgt>
   <wgt id='1006'> 0.75954E+08 </wgt>
   <wgt id='1007'> 0.21325E+09 </wgt>
   <wgt id='1008'> 0.28763E+09 </wgt>
   <wgt id='1009'> 0.13778E+09 </wgt>
  </rwgt>
  </event>
  <event>
  4      0 0.15466170E+09 0.29149576E+02 0.75467716E-02 0.21279804E+00
       21 -1    0    0  503  502 0.00000000E+00 0.00000000E+00 0.46930336E+01 0.46930336E+01 0.00000000E+00 0.0000E+00 0.9000E+01
       21 -1    0    0  501  503 -.00000000E+00 -.00000000E+00 -.45263782E+02 0.45263782E+02 0.00000000E+00 0.0000E+00 0.9000E+01
        5  1    1    2  501    0 -.55875156E+00 -.22546684E+01 -.43591840E+02 0.43905970E+02 0.47000000E+01 0.0000E+00 0.9000E+01
       -5  1    1    2    0  502 0.55875156E+00 0.22546684E+01 0.30210916E+01 0.60508452E+01 0.47000000E+01 0.0000E+00 0.9000E+01
#aMCatNLO 1  5  4  0  0 0.00000000E+00 0.00000000E+00 9  0  0 0.99999983E+00 0.21361091E+00 0.29768549E+01 0.00000000E+00 0.00000000E+00
  <rwgt>
   <wgt id='1001'> 0.15466E+09 </wgt>
   <wgt id='1002'> 0.28351E+09 </wgt>
   <wgt id='1003'> 0.47102E+08 </wgt>
   <wgt id='1004'> 0.10848E+09 </wgt>
   <wgt id='1005'> 0.19885E+09 </wgt>
   <wgt id='1006'> 0.33038E+08 </wgt>
   <wgt id='1007'> 0.25116E+09 </wgt>
   <wgt id='1008'> 0.46041E+09 </wgt>
   <wgt id='1009'> 0.76491E+08 </wgt>
  </rwgt>
  </event>
  <event>
  4      0 0.15466170E+09 0.20252677E+02 0.75467716E-02 0.18023924E+00
       21 -1    0    0  503  502 0.00000000E+00 0.00000000E+00 0.68576137E+01 0.68576137E+01 0.00000000E+00 0.0000E+00 0.9000E+01
       21 -1    0    0  501  503 0.00000000E+00 0.00000000E+00 -.14953122E+02 0.14953122E+02 0.00000000E+00 0.0000E+00 0.9000E+01
        5  1    1    2  501    0 -.18885087E+01 -.86143379E+01 -.58105859E+01 0.11559680E+02 0.47000000E+01 0.0000E+00 0.9000E+01
       -5  1    1    2    0  502 0.18885087E+01 0.86143379E+01 -.22849224E+01 0.10251056E+02 0.47000000E+01 0.0000E+00 0.9000E+01
#aMCatNLO 1  5  1  0  0 0.00000000E+00 0.00000000E+00 9  0  0 0.10000001E+01 0.36622884E+00 0.22843249E+01 0.00000000E+00 0.00000000E+00
  <rwgt>
   <wgt id='1001'> 0.15466E+09 </wgt>
   <wgt id='1002'> 0.24663E+09 </wgt>
   <wgt id='1003'> 0.76566E+08 </wgt>
   <wgt id='1004'> 0.11441E+09 </wgt>
   <wgt id='1005'> 0.18245E+09 </wgt>
   <wgt id='1006'> 0.56642E+08 </wgt>
   <wgt id='1007'> 0.22155E+09 </wgt>
   <wgt id='1008'> 0.35330E+09 </wgt>
   <wgt id='1009'> 0.10968E+09 </wgt>
  </rwgt>
  </event>
  <event>
  4      0 0.15466170E+09 0.10744289E+02 0.75467716E-02 0.11800000E+00
        2 -1    0    0  502    0 0.00000000E+00 0.00000000E+00 0.20746836E+03 0.20746862E+03 0.33000000E+00 0.0000E+00 0.9000E+01
       -2 -1    0    0    0  501 0.00000000E+00 0.00000000E+00 -.54998346E-02 0.27226925E+00 0.27221370E+00 0.0000E+00 0.9000E+01
        5  1    1    2  502    0 -.17044882E+01 -.10562146E+01 0.13578946E+03 0.13588557E+03 0.47000000E+01 0.0000E+00 0.9000E+01
       -5  1    1    2    0  501 0.17044882E+01 0.10562146E+01 0.71673400E+02 0.71855321E+02 0.47000000E+01 0.0000E+00 0.9000E+01
#aMCatNLO 1  5  1  0  0 0.00000000E+00 0.00000000E+00 9  0  0 0.10000000E+01 0.40406974E+00 0.24954343E+01 0.00000000E+00 0.00000000E+00
  <rwgt>
   <wgt id='1001'> 0.15466E+09 </wgt>
   <wgt id='1002'> 0.23611E+09 </wgt>
   <wgt id='1003'> 0.89322E+08 </wgt>
   <wgt id='1004'> 0.10821E+09 </wgt>
   <wgt id='1005'> 0.16519E+09 </wgt>
   <wgt id='1006'> 0.62494E+08 </wgt>
   <wgt id='1007'> 0.25281E+09 </wgt>
   <wgt id='1008'> 0.38595E+09 </wgt>
   <wgt id='1009'> 0.14600E+09 </wgt>
  </rwgt>
  </event>
  <event>
  4      0 0.15466170E+09 0.26904314E+02 0.75467716E-02 0.18710314E+00
       21 -1    0    0  501  502 0.00000000E+00 0.00000000E+00 0.33324371E+00 0.33324371E+00 0.00000000E+00 0.0000E+00 0.9000E+01
       21 -1    0    0  502  503 0.00000000E+00 0.00000000E+00 -.54302757E+03 0.54302757E+03 0.00000000E+00 0.0000E+00 0.9000E+01
        5  1    1    2  501    0 0.59912121E+01 0.38996730E+01 -.61688787E+02 0.62279198E+02 0.47000000E+01 0.0000E+00 0.9000E+01
       -5  1    1    2    0  503 -.59912121E+01 -.38996730E+01 -.48100554E+03 0.48108161E+03 0.47000000E+01 0.0000E+00 0.9000E+01
#aMCatNLO 1  5  1  0  0 0.00000000E+00 0.00000000E+00 9  0  0 0.10000001E+01 0.41757466E+00 0.20835200E+01 0.00000000E+00 0.00000000E+00
  <rwgt>
   <wgt id='1001'> 0.15466E+09 </wgt>
   <wgt id='1002'> 0.21998E+09 </wgt>
   <wgt id='1003'> 0.88290E+08 </wgt>
   <wgt id='1004'> 0.11313E+09 </wgt>
   <wgt id='1005'> 0.16090E+09 </wgt>
   <wgt id='1006'> 0.64583E+08 </wgt>
   <wgt id='1007'> 0.22657E+09 </wgt>
   <wgt id='1008'> 0.32224E+09 </wgt>
   <wgt id='1009'> 0.12934E+09 </wgt>
  </rwgt>
  </event>
  <event>
  4      0 0.15466170E+09 0.18406157E+02 0.75467716E-02 0.19128891E+00
       21 -1    0    0  501  502 0.00000000E+00 0.00000000E+00 0.15147741E+00 0.15147741E+00 0.00000000E+00 0.0000E+00 0.9000E+01
       21 -1    0    0  502  503 -.00000000E+00 -.00000000E+00 -.55913721E+03 0.55913721E+03 0.00000000E+00 0.0000E+00 0.9000E+01
        5  1    1    2  501    0 0.46507014E+01 0.41866824E+01 -.13235039E+03 0.13258158E+03 0.47000000E+01 0.0000E+00 0.9000E+01
       -5  1    1    2    0  503 -.46507014E+01 -.41866824E+01 -.42663534E+03 0.42670712E+03 0.47000000E+01 0.0000E+00 0.9000E+01
#aMCatNLO 1  5  3  0  0 0.00000000E+00 0.00000000E+00 9  0  0 0.10000000E+01 0.41614191E+00 0.21565755E+01 0.00000000E+00 0.00000000E+00
  <rwgt>
   <wgt id='1001'> 0.15466E+09 </wgt>
   <wgt id='1002'> 0.22403E+09 </wgt>
   <wgt id='1003'> 0.88593E+08 </wgt>
   <wgt id='1004'> 0.11236E+09 </wgt>
   <wgt id='1005'> 0.16275E+09 </wgt>
   <wgt id='1006'> 0.64362E+08 </wgt>
   <wgt id='1007'> 0.23027E+09 </wgt>
   <wgt id='1008'> 0.33354E+09 </wgt>
   <wgt id='1009'> 0.13190E+09 </wgt>
  </rwgt>
  </event>
  <event>
  4      0 0.15466170E+09 0.15664766E+02 0.75467716E-02 0.19295575E+00
       21 -1    0    0  501  502 0.00000000E+00 0.00000000E+00 0.49920094E+02 0.49920094E+02 0.00000000E+00 0.0000E+00 0.9000E+01
       21 -1    0    0  502  503 0.00000000E+00 0.00000000E+00 -.12288884E+01 0.12288884E+01 0.00000000E+00 0.0000E+00 0.9000E+01
        5  1    1    2  501    0 0.12973056E+00 0.59222456E+01 0.31010504E+02 0.31919135E+02 0.47000000E+01 0.0000E+00 0.9000E+01
       -5  1    1    2    0  503 -.12973056E+00 -.59222456E+01 0.17680702E+02 0.19229848E+02 0.47000000E+01 0.0000E+00 0.9000E+01
#aMCatNLO 1  5  4  0  0 0.00000000E+00 0.00000000E+00 9  0  0 0.99999998E+00 0.28723220E+00 0.26202853E+01 0.00000000E+00 0.00000000E+00
  <rwgt>
   <wgt id='1001'> 0.15466E+09 </wgt>
   <wgt id='1002'> 0.27043E+09 </wgt>
   <wgt id='1003'> 0.61316E+08 </wgt>
   <wgt id='1004'> 0.11205E+09 </wgt>
   <wgt id='1005'> 0.19593E+09 </wgt>
   <wgt id='1006'> 0.44424E+08 </wgt>
   <wgt id='1007'> 0.23177E+09 </wgt>
   <wgt id='1008'> 0.40526E+09 </wgt>
   <wgt id='1009'> 0.91885E+08 </wgt>
  </rwgt>
  </event>
  <event>
  4      0 0.15466170E+09 0.15030031E+02 0.75467716E-02 0.20245690E+00
       21 -1    0    0  503  502 0.00000000E+00 0.00000000E+00 0.45687089E+03 0.45687089E+03 0.00000000E+00 0.0000E+00 0.9000E+01
       21 -1    0    0  501  503 0.00000000E+00 0.00000000E+00 -.12361361E+00 0.12361361E+00 0.00000000E+00 0.0000E+00 0.9000E+01
        5  1    1    2  501    0 0.40670526E+01 -.94380925E+00 0.10317943E+03 0.10337078E+03 0.47000000E+01 0.0000E+00 0.9000E+01
       -5  1    1    2    0  502 -.40670526E+01 0.94380925E+00 0.35356784E+03 0.35362372E+03 0.47000000E+01 0.0000E+00 0.9000E+01
#aMCatNLO 1  5  4  0  0 0.00000000E+00 0.00000000E+00 9  0  0 0.99999999E+00 0.36818001E+00 0.24032184E+01 0.00000000E+00 0.00000000E+00
  <rwgt>
   <wgt id='1001'> 0.15466E+09 </wgt>
   <wgt id='1002'> 0.23883E+09 </wgt>
   <wgt id='1003'> 0.79826E+08 </wgt>
   <wgt id='1004'> 0.11032E+09 </wgt>
   <wgt id='1005'> 0.17036E+09 </wgt>
   <wgt id='1006'> 0.56943E+08 </wgt>
   <wgt id='1007'> 0.24070E+09 </wgt>
   <wgt id='1008'> 0.37168E+09 </wgt>
   <wgt id='1009'> 0.12424E+09 </wgt>
  </rwgt>
  </event>
  <event>
  4      0 0.15466170E+09 0.25509387E+02 0.75467716E-02 0.21505520E+00
       21 -1    0    0  503  502 0.00000000E+00 0.00000000E+00 0.14098658E+02 0.14098658E+02 0.00000000E+00 0.0000E+00 0.9000E+01
       21 -1    0    0  501  503 0.00000000E+00 0.00000000E+00 -.11538843E+02 0.11538843E+02 0.00000000E+00 0.0000E+00 0.9000E+01
        5  1    1    2  501    0 -.13905365E+01 -.12206977E+01 -.10490809E+02 0.11643486E+02 0.47000000E+01 0.0000E+00 0.9000E+01
       -5  1    1    2    0  502 0.13905365E+01 0.12206977E+01 0.13050624E+02 0.13994016E+02 0.47000000E+01 0.0000E+00 0.9000E+01
#aMCatNLO 1  5  1  0  0 0.00000000E+00 0.00000000E+00 9  0  0 0.10000003E+01 0.19097731E+00 0.31597334E+01 0.00000000E+00 0.00000000E+00
  <rwgt>
   <wgt id='1001'> 0.15466E+09 </wgt>
   <wgt id='1002'> 0.29807E+09 </wgt>
   <wgt id='1003'> 0.42266E+08 </wgt>
   <wgt id='1004'> 0.10808E+09 </wgt>
   <wgt id='1005'> 0.20830E+09 </wgt>
   <wgt id='1006'> 0.29537E+08 </wgt>
   <wgt id='1007'> 0.25356E+09 </wgt>
   <wgt id='1008'> 0.48869E+09 </wgt>
   <wgt id='1009'> 0.69293E+08 </wgt>
  </rwgt>
  </event>
  <event>
  4      0 0.15466170E+09 0.22102407E+02 0.75467716E-02 0.19213663E+00
       21 -1    0    0  503  502 0.00000000E+00 0.00000000E+00 0.24036687E+00 0.24036687E+00 0.00000000E+00 0.0000E+00 0.9000E+01
       21 -1    0    0  501  503 -.00000000E+00 -.00000000E+00 -.50809454E+03 0.50809454E+03 0.00000000E+00 0.0000E+00 0.9000E+01
        5  1    1    2  501    0 -.54899430E+01 0.26277796E+01 -.43646846E+03 0.43653620E+03 0.47000000E+01 0.0000E+00 0.9000E+01
       -5  1    1    2    0  502 0.54899430E+01 -.26277796E+01 -.71385709E+02 0.71798706E+02 0.47000000E+01 0.0000E+00 0.9000E+01
#aMCatNLO 1  5  3  0  0 0.00000000E+00 0.00000000E+00 9  0  0 0.10000000E+01 0.39519879E+00 0.21927884E+01 0.00000000E+00 0.00000000E+00
  <rwgt>
   <wgt id='1001'> 0.15466E+09 </wgt>
   <wgt id='1002'> 0.22703E+09 </wgt>
   <wgt id='1003'> 0.84251E+08 </wgt>
   <wgt id='1004'> 0.11221E+09 </wgt>
   <wgt id='1005'> 0.16471E+09 </wgt>
   <wgt id='1006'> 0.61122E+08 </wgt>
   <wgt id='1007'> 0.23103E+09 </wgt>
   <wgt id='1008'> 0.33914E+09 </wgt>
   <wgt id='1009'> 0.12585E+09 </wgt>
  </rwgt>
  </event>
  <event>
  4      0 0.15466170E+09 0.36770565E+02 0.75467716E-02 0.15776496E+00
       21 -1    0    0  501  502 0.00000000E+00 0.00000000E+00 0.55450014E+02 0.55450014E+02 0.00000000E+00 0.0000E+00 0.9000E+01
       21 -1    0    0  502  503 0.00000000E+00 0.00000000E+00 -.60959157E+01 0.60959157E+01 0.00000000E+00 0.0000E+00 0.9000E+01
        5  1    1    2  501    0 -.13347852E+02 0.11652591E+02 0.27032600E+02 0.32661897E+02 0.47000000E+01 0.0000E+00 0.9000E+01
       -5  1    1    2    0  503 0.13347852E+02 -.11652591E+02 0.22321498E+02 0.28884032E+02 0.47000000E+01 0.0000E+00 0.9000E+01
#aMCatNLO 1  5  1  0  0 0.00000000E+00 0.00000000E+00 9  0  0 0.99999999E+00 0.51524187E+00 0.17978574E+01 0.00000000E+00 0.00000000E+00
  <rwgt>
   <wgt id='1001'> 0.15466E+09 </wgt>
   <wgt id='1002'> 0.20444E+09 </wgt>
   <wgt id='1003'> 0.10381E+09 </wgt>
   <wgt id='1004'> 0.11873E+09 </wgt>
   <wgt id='1005'> 0.15694E+09 </wgt>
   <wgt id='1006'> 0.79688E+08 </wgt>
   <wgt id='1007'> 0.21036E+09 </wgt>
   <wgt id='1008'> 0.27806E+09 </wgt>
   <wgt id='1009'> 0.14119E+09 </wgt>
  </rwgt>
  </event>
  <event>
  4      0 0.15466170E+09 0.25815306E+02 0.75467716E-02 0.21052011E+00
       21 -1    0    0  503  502 0.00000000E+00 0.00000000E+00 0.17544446E+01 0.17544446E+01 0.00000000E+00 0.0000E+00 0.9000E+01
       21 -1    0    0  501  503 0.00000000E+00 0.00000000E+00 -.94963105E+02 0.94963105E+02 0.00000000E+00 0.0000E+00 0.9000E+01
        5  1    1    2  501    0 -.24965118E+01 -.11652622E+01 -.90444549E+02 0.90608481E+02 0.47000000E+01 0.0000E+00 0.9000E+01
       -5  1    1    2    0  502 0.24965118E+01 0.11652622E+01 -.27641118E+01 0.61090688E+01 0.47000000E+01 0.0000E+00 0.9000E+01
#aMCatNLO 1  5  2  0  0 0.00000000E+00 0.00000000E+00 9  0  0 0.10000001E+01 0.22127616E+00 0.29038897E+01 0.00000000E+00 0.00000000E+00
  <rwgt>
   <wgt id='1001'> 0.15466E+09 </wgt>
   <wgt id='1002'> 0.27920E+09 </wgt>
   <wgt id='1003'> 0.48611E+08 </wgt>
   <wgt id='1004'> 0.10888E+09 </wgt>
   <wgt id='1005'> 0.19656E+09 </wgt>
   <wgt id='1006'> 0.34223E+08 </wgt>
   <wgt id='1007'> 0.24879E+09 </wgt>
   <wgt id='1008'> 0.44913E+09 </wgt>
   <wgt id='1009'> 0.78196E+08 </wgt>
  </rwgt>
  </event>
  <event>
  4      0 0.15466170E+09 0.44718569E+02 0.75467716E-02 0.18171397E+00
       21 -1    0    0  503  502 0.00000000E+00 0.00000000E+00 0.53885241E+02 0.53885241E+02 0.00000000E+00 0.0000E+00 0.9000E+01
       21 -1    0    0  501  503 0.00000000E+00 0.00000000E+00 -.92778205E+01 0.92778205E+01 0.00000000E+00 0.0000E+00 0.9000E+01
        5  1    1    2  501    0 -.37139026E+01 0.75723217E+01 -.61815433E+01 0.11464493E+02 0.47000000E+01 0.0000E+00 0.9000E+01
       -5  1    1    2    0  502 0.37139026E+01 -.75723217E+01 0.50788963E+02 0.51698568E+02 0.47000000E+01 0.0000E+00 0.9000E+01
#aMCatNLO 1  5  2  0  0 0.00000000E+00 0.00000000E+00 9  0  0 0.99999999E+00 0.42052681E+00 0.20662580E+01 0.00000000E+00 0.00000000E+00
  <rwgt>
   <wgt id='1001'> 0.15466E+09 </wgt>
   <wgt id='1002'> 0.22231E+09 </wgt>
   <wgt id='1003'> 0.88131E+08 </wgt>
   <wgt id='1004'> 0.11414E+09 </wgt>
   <wgt id='1005'> 0.16406E+09 </wgt>
   <wgt id='1006'> 0.65039E+08 </wgt>
   <wgt id='1007'> 0.22232E+09 </wgt>
   <wgt id='1008'> 0.31957E+09 </wgt>
   <wgt id='1009'> 0.12669E+09 </wgt>
  </rwgt>
  </event>
  <event>
  4      0 0.15466170E+09 0.13707978E+02 0.75467716E-02 0.20770801E+00
       21 -1    0    0  501  502 0.00000000E+00 0.00000000E+00 0.41193322E+02 0.41193322E+02 0.00000000E+00 0.0000E+00 0.9000E+01
       21 -1    0    0  502  503 0.00000000E+00 0.00000000E+00 -.11404073E+01 0.11404073E+01 0.00000000E+00 0.0000E+00 0.9000E+01
        5  1    1    2  501    0 0.30295431E+01 -.12015412E+01 0.31690634E+02 0.32202611E+02 0.47000000E+01 0.0000E+00 0.9000E+01
       -5  1    1    2    0  503 -.30295431E+01 0.12015412E+01 0.83622806E+01 0.10131119E+02 0.47000000E+01 0.0000E+00 0.9000E+01
#aMCatNLO 1  5  2  0  0 0.00000000E+00 0.00000000E+00 9  0  0 0.10000000E+01 0.19571225E+00 0.31587286E+01 0.00000000E+00 0.00000000E+00
  <rwgt>
   <wgt id='1001'> 0.15466E+09 </wgt>
   <wgt id='1002'> 0.30725E+09 </wgt>
   <wgt id='1003'> 0.42798E+08 </wgt>
   <wgt id='1004'> 0.10939E+09 </wgt>
   <wgt id='1005'> 0.21731E+09 </wgt>
   <wgt id='1006'> 0.30270E+08 </wgt>
   <wgt id='1007'> 0.24592E+09 </wgt>
   <wgt id='1008'> 0.48853E+09 </wgt>
   <wgt id='1009'> 0.68050E+08 </wgt>
  </rwgt>
  </event>
  <event>
  4      0 0.15466170E+09 0.10619566E+02 0.75467716E-02 0.21828252E+00
       21 -1    0    0  501  502 0.00000000E+00 0.00000000E+00 0.40666097E+01 0.40666097E+01 0.00000000E+00 0.0000E+00 0.9000E+01
       21 -1    0    0  502  503 -.00000000E+00 -.00000000E+00 -.69329970E+01 0.69329970E+01 0.00000000E+00 0.0000E+00 0.9000E+01
        5  1    1    2  501    0 -.86024208E+00 0.41364361E+00 0.92709977E+00 0.48847345E+01 0.47000000E+01 0.0000E+00 0.9000E+01
       -5  1    1    2    0  503 0.86024208E+00 -.41364361E+00 -.37934871E+01 0.61148722E+01 0.47000000E+01 0.0000E+00 0.9000E+01
#aMCatNLO 1  5  3  0  0 0.00000000E+00 0.00000000E+00 9  0  0 0.10000000E+01 0.12435949E+00 0.38768472E+01 0.00000000E+00 0.00000000E+00
  <rwgt>
   <wgt id='1001'> 0.15466E+09 </wgt>
   <wgt id='1002'> 0.36075E+09 </wgt>
   <wgt id='1003'> 0.27667E+08 </wgt>
   <wgt id='1004'> 0.10752E+09 </wgt>
   <wgt id='1005'> 0.25078E+09 </wgt>
   <wgt id='1006'> 0.19233E+08 </wgt>
   <wgt id='1007'> 0.25706E+09 </wgt>
   <wgt id='1008'> 0.59960E+09 </wgt>
   <wgt id='1009'> 0.45986E+08 </wgt>
  </rwgt>
  </event>
  <event>
  4      0 0.15466170E+09 0.13782772E+02 0.75467716E-02 0.20179479E+00
       21 -1    0    0  503  502 0.00000000E+00 0.00000000E+00 0.17003798E+00 0.17003798E+00 0.00000000E+00 0.0000E+00 0.9000E+01
       21 -1    0    0  501  503 -.00000000E+00 -.00000000E+00 -.27929762E+03 0.27929762E+03 0.00000000E+00 0.0000E+00 0.9000E+01
        5  1    1    2  501    0 0.29815604E+00 -.42808749E+01 -.19315853E+03 0.19326335E+03 0.47000000E+01 0.0000E+00 0.9000E+01
       -5  1    1    2    0  502 -.29815604E+00 0.42808749E+01 -.85969049E+02 0.86204305E+02 0.47000000E+01 0.0000E+00 0.9000E+01
#aMCatNLO 1  5  3  0  0 0.00000000E+00 0.00000000E+00 9  0  0 0.99999996E+00 0.33194550E+00 0.25306074E+01 0.00000000E+00 0.00000000E+00
  <rwgt>
   <wgt id='1001'> 0.15466E+09 </wgt>
   <wgt id='1002'> 0.25216E+09 </wgt>
   <wgt id='1003'> 0.71893E+08 </wgt>
   <wgt id='1004'> 0.11044E+09 </wgt>
   <wgt id='1005'> 0.18007E+09 </wgt>
   <wgt id='1006'> 0.51340E+08 </wgt>
   <wgt id='1007'> 0.24006E+09 </wgt>
   <wgt id='1008'> 0.39139E+09 </wgt>
   <wgt id='1009'> 0.11159E+09 </wgt>
  </rwgt>
  </event>
  <event>
  4      0 0.15466170E+09 0.12164683E+02 0.75467716E-02 0.20649822E+00
       21 -1    0    0  501  502 0.00000000E+00 0.00000000E+00 0.88238058E+02 0.88238058E+02 0.00000000E+00 0.0000E+00 0.9000E+01
       21 -1    0    0  502  503 0.00000000E+00 0.00000000E+00 -.41926218E+00 0.41926218E+00 0.00000000E+00 0.0000E+00 0.9000E+01
        5  1    1    2  501    0 -.54497424E+00 -.34280224E+01 0.31591563E+02 0.32127327E+02 0.47000000E+01 0.0000E+00 0.9000E+01
       -5  1    1    2    0  503 0.54497424E+00 0.34280224E+01 0.56227233E+02 0.56529993E+02 0.47000000E+01 0.0000E+00 0.9000E+01
#aMCatNLO 1  5  2  0  0 0.00000000E+00 0.00000000E+00 9  0  0 0.99999997E+00 0.22834412E+00 0.30047173E+01 0.00000000E+00 0.00000000E+00
  <rwgt>
   <wgt id='1001'> 0.15466E+09 </wgt>
   <wgt id='1002'> 0.29373E+09 </wgt>
   <wgt id='1003'> 0.49835E+08 </wgt>
   <wgt id='1004'> 0.10960E+09 </wgt>
   <wgt id='1005'> 0.20815E+09 </wgt>
   <wgt id='1006'> 0.35316E+08 </wgt>
   <wgt id='1007'> 0.24469E+09 </wgt>
   <wgt id='1008'> 0.46471E+09 </wgt>
   <wgt id='1009'> 0.78846E+08 </wgt>
  </rwgt>
  </event>
  <event>
  4      0 0.15466170E+09 0.10459827E+02 0.75467716E-02 0.21707075E+00
       21 -1    0    0  501  502 0.00000000E+00 0.00000000E+00 0.37160395E+01 0.37160395E+01 0.00000000E+00 0.0000E+00 0.9000E+01
       21 -1    0    0  502  503 0.00000000E+00 0.00000000E+00 -.73605231E+01 0.73605231E+01 0.00000000E+00 0.0000E+00 0.9000E+01
        5  1    1    2  501    0 0.38882952E+00 -.12899374E+01 0.14380034E+00 0.48914012E+01 0.47000000E+01 0.0000E+00 0.9000E+01
       -5  1    1    2    0  503 -.38882952E+00 0.12899374E+01 -.37882839E+01 0.61851614E+01 0.47000000E+01 0.0000E+00 0.9000E+01
#aMCatNLO 1  5  1  0  0 0.00000000E+00 0.00000000E+00 9  0  0 0.99999992E+00 0.12903221E+00 0.38169802E+01 0.00000000E+00 0.00000000E+00
  <rwgt>
   <wgt id='1001'> 0.15466E+09 </wgt>
   <wgt id='1002'> 0.35702E+09 </wgt>
   <wgt id='1003'> 0.28650E+08 </wgt>
   <wgt id='1004'> 0.10773E+09 </wgt>
   <wgt id='1005'> 0.24868E+09 </wgt>
   <wgt id='1006'> 0.19957E+08 </wgt>
   <wgt id='1007'> 0.25574E+09 </wgt>
   <wgt id='1008'> 0.59034E+09 </wgt>
   <wgt id='1009'> 0.47374E+08 </wgt>
  </rwgt>
  </event>
  <event>
  4      0 0.15466170E+09 0.10370028E+02 0.75467716E-02 0.21396887E+00
       21 -1    0    0  501  502 0.00000000E+00 0.00000000E+00 0.29012028E+00 0.29012028E+00 0.00000000E+00 0.0000E+00 0.9000E+01
       21 -1    0    0  502  503 -.00000000E+00 -.00000000E+00 -.92666293E+02 0.92666293E+02 0.00000000E+00 0.0000E+00 0.9000E+01
        5  1    1    2  501    0 0.17867846E+01 0.10754074E+01 -.40206571E+02 0.40534028E+02 0.47000000E+01 0.0000E+00 0.9000E+01
       -5  1    1    2    0  503 -.17867846E+01 -.10754074E+01 -.52169602E+02 0.52422385E+02 0.47000000E+01 0.0000E+00 0.9000E+01
#aMCatNLO 1  5  3  0  0 0.00000000E+00 0.00000000E+00 9  0  0 0.99999999E+00 0.20852706E+00 0.32478350E+01 0.00000000E+00 0.00000000E+00
  <rwgt>
   <wgt id='1001'> 0.15466E+09 </wgt>
   <wgt id='1002'> 0.30780E+09 </wgt>
   <wgt id='1003'> 0.46068E+08 </wgt>
   <wgt id='1004'> 0.10827E+09 </wgt>
   <wgt id='1005'> 0.21548E+09 </wgt>
   <wgt id='1006'> 0.32251E+08 </wgt>
   <wgt id='1007'> 0.25240E+09 </wgt>
   <wgt id='1008'> 0.50231E+09 </wgt>
   <wgt id='1009'> 0.75182E+08 </wgt>
  </rwgt>
  </event>
  <event>
  4      0 0.15466170E+09 0.17707536E+02 0.75467716E-02 0.19222764E+00
       21 -1    0    0  501  502 0.00000000E+00 0.00000000E+00 0.48753825E+02 0.48753825E+02 0.00000000E+00 0.0000E+00 0.9000E+01
       21 -1    0    0  502  503 0.00000000E+00 0.00000000E+00 -.16078575E+01 0.16078575E+01 0.00000000E+00 0.0000E+00 0.9000E+01
        5  1    1    2  501    0 0.34204074E+01 -.50124040E+01 0.36124322E+02 0.36930746E+02 0.47000000E+01 0.0000E+00 0.9000E+01
       -5  1    1    2    0  503 -.34204074E+01 0.50124040E+01 0.11021646E+02 0.13430936E+02 0.47000000E+01 0.0000E+00 0.9000E+01
#aMCatNLO 1  5  4  0  0 0.00000000E+00 0.00000000E+00 9  0  0 0.99999998E+00 0.29763298E+00 0.25646437E+01 0.00000000E+00 0.00000000E+00
  <rwgt>
   <wgt id='1001'> 0.15466E+09 </wgt>
   <wgt id='1002'> 0.26545E+09 </wgt>
   <wgt id='1003'> 0.63461E+08 </wgt>
   <wgt id='1004'> 0.11218E+09 </wgt>
   <wgt id='1005'> 0.19255E+09 </wgt>
   <wgt id='1006'> 0.46033E+08 </wgt>
   <wgt id='1007'> 0.23111E+09 </wgt>
   <wgt id='1008'> 0.39665E+09 </wgt>
   <wgt id='1009'> 0.94829E+08 </wgt>
  </rwgt>
  </event>
  <event>
  4      0 0.15466170E+09 0.19838491E+02 0.75467716E-02 0.18134709E+00
       21 -1    0    0  501  502 0.00000000E+00 0.00000000E+00 0.73716659E+02 0.73716659E+02 0.00000000E+00 0.0000E+00 0.9000E+01
       21 -1    0    0  502  503 0.00000000E+00 0.00000000E+00 -.13347245E+01 0.13347245E+01 0.00000000E+00 0.0000E+00 0.9000E+01
        5  1    1    2  501    0 0.69503086E+01 -.49422212E+01 0.43338051E+02 0.44418566E+02 0.47000000E+01 0.0000E+00 0.9000E+01
       -5  1    1    2    0  503 -.69503086E+01 0.49422212E+01 0.29043883E+02 0.30632817E+02 0.47000000E+01 0.0000E+00 0.9000E+01
#aMCatNLO 1  5  4  0  0 0.00000000E+00 0.00000000E+00 9  0  0 0.10000001E+01 0.37002591E+00 0.22531072E+01 0.00000000E+00 0.00000000E+00
  <rwgt>
   <wgt id='1001'> 0.15466E+09 </wgt>
   <wgt id='1002'> 0.24262E+09 </wgt>
   <wgt id='1003'> 0.77501E+08 </wgt>
   <wgt id='1004'> 0.11421E+09 </wgt>
   <wgt id='1005'> 0.17916E+09 </wgt>
   <wgt id='1006'> 0.57229E+08 </wgt>
   <wgt id='1007'> 0.22213E+09 </wgt>
   <wgt id='1008'> 0.34847E+09 </wgt>
   <wgt id='1009'> 0.11131E+09 </wgt>
  </rwgt>
  </event>
  <event>
  4      0 0.15466170E+09 0.32434568E+02 0.75467716E-02 0.21484939E+00
       21 -1    0    0  503  502 0.00000000E+00 0.00000000E+00 0.38040730E+03 0.38040730E+03 0.00000000E+00 0.0000E+00 0.9000E+01
       21 -1    0    0  501  503 0.00000000E+00 0.00000000E+00 -.12393838E+01 0.12393838E+01 0.00000000E+00 0.0000E+00 0.9000E+01
        5  1    1    2  501    0 -.15257432E+01 0.11259962E+01 0.40314459E+01 0.64759799E+01 0.47000000E+01 0.0000E+00 0.9000E+01
       -5  1    1    2    0  502 0.15257432E+01 -.11259962E+01 0.37513647E+03 0.37517070E+03 0.47000000E+01 0.0000E+00 0.9000E+01
#aMCatNLO 1  5  3  0  0 0.00000000E+00 0.00000000E+00 9  0  0 0.99999989E+00 0.24299729E+00 0.26587650E+01 0.00000000E+00 0.00000000E+00
  <rwgt>
   <wgt id='1001'> 0.15466E+09 </wgt>
   <wgt id='1002'> 0.25103E+09 </wgt>
   <wgt id='1003'> 0.53760E+08 </wgt>
   <wgt id='1004'> 0.10812E+09 </wgt>
   <wgt id='1005'> 0.17549E+09 </wgt>
   <wgt id='1006'> 0.37583E+08 </wgt>
   <wgt id='1007'> 0.25334E+09 </wgt>
   <wgt id='1008'> 0.41121E+09 </wgt>
   <wgt id='1009'> 0.88061E+08 </wgt>
  </rwgt>
  </event>
  <event>
  4      0 0.15466170E+09 0.13977726E+02 0.75467716E-02 0.20912389E+00
       21 -1    0    0  503  502 0.00000000E+00 0.00000000E+00 0.20745439E+00 0.20745439E+00 0.00000000E+00 0.0000E+00 0.9000E+01
       21 -1    0    0  501  503 0.00000000E+00 0.00000000E+00 -.23544553E+03 0.23544553E+03 0.00000000E+00 0.0000E+00 0.9000E+01
        5  1    1    2  501    0 0.27756008E+01 -.11593749E+01 -.18856013E+03 0.18864268E+03 0.47000000E+01 0.0000E+00 0.9000E+01
       -5  1    1    2    0  502 -.27756008E+01 0.11593749E+01 -.46677951E+02 0.47010309E+02 0.47000000E+01 0.0000E+00 0.9000E+01
#aMCatNLO 1  5  1  0  0 0.00000000E+00 0.00000000E+00 9  0  0 0.10000000E+01 0.28544451E+00 0.27656829E+01 0.00000000E+00 0.00000000E+00
  <rwgt>
   <wgt id='1001'> 0.15466E+09 </wgt>
   <wgt id='1002'> 0.26745E+09 </wgt>
   <wgt id='1003'> 0.62565E+08 </wgt>
   <wgt id='1004'> 0.10914E+09 </wgt>
   <wgt id='1005'> 0.18872E+09 </wgt>
   <wgt id='1006'> 0.44148E+08 </wgt>
   <wgt id='1007'> 0.24735E+09 </wgt>
   <wgt id='1008'> 0.42774E+09 </wgt>
   <wgt id='1009'> 0.10006E+09 </wgt>
  </rwgt>
  </event>
  <event>
  4      0 0.15466170E+09 0.15766371E+02 0.75467716E-02 0.20199839E+00
       21 -1    0    0  501  502 0.00000000E+00 0.00000000E+00 0.83757347E+00 0.83757347E+00 0.00000000E+00 0.0000E+00 0.9000E+01
       21 -1    0    0  502  503 0.00000000E+00 0.00000000E+00 -.74196011E+02 0.74196011E+02 0.00000000E+00 0.0000E+00 0.9000E+01
        5  1    1    2  501    0 0.57844353E+00 0.42159923E+01 -.58973627E+02 0.59313471E+02 0.47000000E+01 0.0000E+00 0.9000E+01
       -5  1    1    2    0  503 -.57844353E+00 -.42159923E+01 -.14384811E+02 0.15720114E+02 0.47000000E+01 0.0000E+00 0.9000E+01
#aMCatNLO 1  5  2  0  0 0.00000000E+00 0.00000000E+00 9  0  0 0.99999993E+00 0.24346984E+00 0.28430188E+01 0.00000000E+00 0.00000000E+00
  <rwgt>
   <wgt id='1001'> 0.15466E+09 </wgt>
   <wgt id='1002'> 0.28306E+09 </wgt>
   <wgt id='1003'> 0.52748E+08 </wgt>
   <wgt id='1004'> 0.11041E+09 </wgt>
   <wgt id='1005'> 0.20207E+09 </wgt>
   <wgt id='1006'> 0.37655E+08 </wgt>
   <wgt id='1007'> 0.24025E+09 </wgt>
   <wgt id='1008'> 0.43970E+09 </wgt>
   <wgt id='1009'> 0.81940E+08 </wgt>
  </rwgt>
  </event>
  <event>
  4      0 0.15466170E+09 0.11434025E+02 0.75467716E-02 0.21918112E+00
       21 -1    0    0  501  502 0.00000000E+00 0.00000000E+00 0.12659097E+02 0.12659097E+02 0.00000000E+00 0.0000E+00 0.9000E+01
       21 -1    0    0  502  503 0.00000000E+00 0.00000000E+00 -.25818772E+01 0.25818772E+01 0.00000000E+00 0.0000E+00 0.9000E+01
        5  1    1    2  501    0 -.51676599E+00 -.47259421E-01 0.93217040E+01 0.10452437E+02 0.47000000E+01 0.0000E+00 0.9000E+01
       -5  1    1    2    0  503 0.51676599E+00 0.47259421E-01 0.75551560E+00 0.47885368E+01 0.47000000E+01 0.0000E+00 0.9000E+01
#aMCatNLO 1  5  4  0  0 0.00000000E+00 0.00000000E+00 9  0  0 0.99999998E+00 0.12370337E+00 0.38637630E+01 0.00000000E+00 0.00000000E+00
  <rwgt>
   <wgt id='1001'> 0.15466E+09 </wgt>
   <wgt id='1002'> 0.35815E+09 </wgt>
   <wgt id='1003'> 0.27561E+08 </wgt>
   <wgt id='1004'> 0.10736E+09 </wgt>
   <wgt id='1005'> 0.24862E+09 </wgt>
   <wgt id='1006'> 0.19132E+08 </wgt>
   <wgt id='1007'> 0.25806E+09 </wgt>
   <wgt id='1008'> 0.59758E+09 </wgt>
   <wgt id='1009'> 0.45986E+08 </wgt>
  </rwgt>
  </event>
  <event>
  4      0 0.15466170E+09 0.12513180E+02 0.75467716E-02 0.21277235E+00
       21 -1    0    0  503  502 0.00000000E+00 0.00000000E+00 0.40132690E+01 0.40132690E+01 0.00000000E+00 0.0000E+00 0.9000E+01
       21 -1    0    0  501  503 0.00000000E+00 0.00000000E+00 -.97538742E+01 0.97538742E+01 0.00000000E+00 0.0000E+00 0.9000E+01
        5  1    1    2  501    0 0.20980221E+01 0.10087597E+01 -.66232376E+01 0.84484655E+01 0.47000000E+01 0.0000E+00 0.9000E+01
       -5  1    1    2    0  502 -.20980221E+01 -.10087597E+01 0.88263245E+00 0.53186777E+01 0.47000000E+01 0.0000E+00 0.9000E+01
#aMCatNLO 1  5  1  0  0 0.00000000E+00 0.00000000E+00 9  0  0 0.10000000E+01 0.15935993E+00 0.34902289E+01 0.00000000E+00 0.00000000E+00
  <rwgt>
   <wgt id='1001'> 0.15466E+09 </wgt>
   <wgt id='1002'> 0.33243E+09 </wgt>
   <wgt id='1003'> 0.35137E+08 </wgt>
   <wgt id='1004'> 0.10849E+09 </wgt>
   <wgt id='1005'> 0.23318E+09 </wgt>
   <wgt id='1006'> 0.24647E+08 </wgt>
   <wgt id='1007'> 0.25114E+09 </wgt>
   <wgt id='1008'> 0.53981E+09 </wgt>
   <wgt id='1009'> 0.57056E+08 </wgt>
  </rwgt>
  </event>
  <event>
  4      0 0.15466170E+09 0.11839397E+02 0.75467716E-02 0.21934252E+00
       21 -1    0    0  503  502 0.00000000E+00 0.00000000E+00 0.40157450E+01 0.40157450E+01 0.00000000E+00 0.0000E+00 0.9000E+01
       21 -1    0    0  501  503 0.00000000E+00 0.00000000E+00 -.87263581E+01 0.87263581E+01 0.00000000E+00 0.0000E+00 0.9000E+01
        5  1    1    2  501    0 0.25187407E+00 0.30503081E+00 -.62052514E+01 0.77943331E+01 0.47000000E+01 0.0000E+00 0.9000E+01
       -5  1    1    2    0  502 -.25187407E+00 -.30503081E+00 0.14946382E+01 0.49477700E+01 0.47000000E+01 0.0000E+00 0.9000E+01
#aMCatNLO 1  5  1  0  0 0.00000000E+00 0.00000000E+00 9  0  0 0.10000000E+01 0.12500967E+00 0.38591451E+01 0.00000000E+00 0.00000000E+00
  <rwgt>
   <wgt id='1001'> 0.15466E+09 </wgt>
   <wgt id='1002'> 0.35747E+09 </wgt>
   <wgt id='1003'> 0.27859E+08 </wgt>
   <wgt id='1004'> 0.10733E+09 </wgt>
   <wgt id='1005'> 0.24808E+09 </wgt>
   <wgt id='1006'> 0.19334E+08 </wgt>
   <wgt id='1007'> 0.25823E+09 </wgt>
   <wgt id='1008'> 0.59687E+09 </wgt>
   <wgt id='1009'> 0.46516E+08 </wgt>
  </rwgt>
  </event>
  <event>
  4      0 0.15466170E+09 0.31154086E+02 0.75467716E-02 0.19922429E+00
       21 -1    0    0  503  502 0.00000000E+00 0.00000000E+00 0.49118242E+02 0.49118242E+02 0.00000000E+00 0.0000E+00 0.9000E+01
       21 -1    0    0  501  503 0.00000000E+00 0.00000000E+00 -.49400032E+01 0.49400032E+01 0.00000000E+00 0.0000E+00 0.9000E+01
        5  1    1    2  501    0 -.41891645E+01 0.22341330E+01 -.23280142E+01 0.70746095E+01 0.47000000E+01 0.0000E+00 0.9000E+01
       -5  1    1    2    0  502 0.41891645E+01 -.22341330E+01 0.46506254E+02 0.46983636E+02 0.47000000E+01 0.0000E+00 0.9000E+01
#aMCatNLO 1  5  2  0  0 0.00000000E+00 0.00000000E+00 9  0  0 0.99999987E+00 0.29484291E+00 0.25512053E+01 0.00000000E+00 0.00000000E+00
  <rwgt>
   <wgt id='1001'> 0.15466E+09 </wgt>
   <wgt id='1002'> 0.25685E+09 </wgt>
   <wgt id='1003'> 0.63589E+08 </wgt>
   <wgt id='1004'> 0.11091E+09 </wgt>
   <wgt id='1005'> 0.18420E+09 </wgt>
   <wgt id='1006'> 0.45601E+08 </wgt>
   <wgt id='1007'> 0.23759E+09 </wgt>
   <wgt id='1008'> 0.39458E+09 </wgt>
   <wgt id='1009'> 0.97687E+08 </wgt>
  </rwgt>
  </event>
  <event>
  4      0 0.15466170E+09 0.11664159E+02 0.75467716E-02 0.21636041E+00
       21 -1    0    0  501  502 0.00000000E+00 0.00000000E+00 0.14403010E+00 0.14403010E+00 0.00000000E+00 0.0000E+00 0.9000E+01
       21 -1    0    0  502  503 -.00000000E+00 -.00000000E+00 -.23615309E+03 0.23615309E+03 0.00000000E+00 0.0000E+00 0.9000E+01
        5  1    1    2  501    0 -.67046700E+00 0.13845840E+01 -.55378387E+02 0.55598762E+02 0.47000000E+01 0.0000E+00 0.9000E+01
       -5  1    1    2    0  503 0.67046700E+00 -.13845840E+01 -.18063067E+03 0.18069836E+03 0.47000000E+01 0.0000E+00 0.9000E+01
#aMCatNLO 1  5  3  0  0 0.00000000E+00 0.00000000E+00 9  0  0 0.10000000E+01 0.27767943E+00 0.29353765E+01 0.00000000E+00 0.00000000E+00
  <rwgt>
   <wgt id='1001'> 0.15466E+09 </wgt>
   <wgt id='1002'> 0.27538E+09 </wgt>
   <wgt id='1003'> 0.61585E+08 </wgt>
   <wgt id='1004'> 0.10786E+09 </wgt>
   <wgt id='1005'> 0.19204E+09 </wgt>
   <wgt id='1006'> 0.42947E+08 </wgt>
   <wgt id='1007'> 0.25497E+09 </wgt>
   <wgt id='1008'> 0.45399E+09 </wgt>
   <wgt id='1009'> 0.10152E+09 </wgt>
  </rwgt>
  </event>
  <event>
  4      0 0.15466170E+09 0.19752445E+02 0.75467716E-02 0.18085383E+00
       21 -1    0    0  501  502 0.00000000E+00 0.00000000E+00 0.73811238E+01 0.73811238E+01 0.00000000E+00 0.0000E+00 0.9000E+01
       21 -1    0    0  502  503 -.00000000E+00 -.00000000E+00 -.13214759E+02 0.13214759E+02 0.00000000E+00 0.0000E+00 0.9000E+01
        5  1    1    2  501    0 -.84905695E+01 -.16872925E+01 -.21699634E+01 0.10086400E+02 0.47000000E+01 0.0000E+00 0.9000E+01
       -5  1    1    2    0  503 0.84905695E+01 0.16872925E+01 -.36636714E+01 0.10509482E+02 0.47000000E+01 0.0000E+00 0.9000E+01
#aMCatNLO 1  5  4  0  0 0.00000000E+00 0.00000000E+00 9  0  0 0.10000000E+01 0.36102332E+00 0.23042625E+01 0.00000000E+00 0.00000000E+00
  <rwgt>
   <wgt id='1001'> 0.15466E+09 </wgt>
   <wgt id='1002'> 0.24842E+09 </wgt>
   <wgt id='1003'> 0.75555E+08 </wgt>
   <wgt id='1004'> 0.11430E+09 </wgt>
   <wgt id='1005'> 0.18359E+09 </wgt>
   <wgt id='1006'> 0.55837E+08 </wgt>
   <wgt id='1007'> 0.22188E+09 </wgt>
   <wgt id='1008'> 0.35638E+09 </wgt>
   <wgt id='1009'> 0.10839E+09 </wgt>
  </rwgt>
  </event>
  <event>
  4      0 0.15466170E+09 0.19412438E+02 0.75467716E-02 0.20027232E+00
       21 -1    0    0  501  502 0.00000000E+00 0.00000000E+00 0.57054357E+02 0.57054357E+02 0.00000000E+00 0.0000E+00 0.9000E+01
       21 -1    0    0  502  503 0.00000000E+00 0.00000000E+00 -.16512443E+01 0.16512443E+01 0.00000000E+00 0.0000E+00 0.9000E+01
        5  1    1    2  501    0 -.43723799E+01 -.12956944E+01 0.49366640E+02 0.49799113E+02 0.47000000E+01 0.0000E+00 0.9000E+01
       -5  1    1    2    0  503 0.43723799E+01 0.12956944E+01 0.60364729E+01 0.89064884E+01 0.47000000E+01 0.0000E+00 0.9000E+01
#aMCatNLO 1  5  4  0  0 0.00000000E+00 0.00000000E+00 9  0  0 0.10000000E+01 0.25832731E+00 0.27473314E+01 0.00000000E+00 0.00000000E+00
  <rwgt>
   <wgt id='1001'> 0.15466E+09 </wgt>
   <wgt id='1002'> 0.27543E+09 </wgt>
   <wgt id='1003'> 0.55809E+08 </wgt>
   <wgt id='1004'> 0.11072E+09 </wgt>
   <wgt id='1005'> 0.19719E+09 </wgt>
   <wgt id='1006'> 0.39954E+08 </wgt>
   <wgt id='1007'> 0.23859E+09 </wgt>
   <wgt id='1008'> 0.42491E+09 </wgt>
   <wgt id='1009'> 0.86095E+08 </wgt>
  </rwgt>
  </event>
  <event>
  4      0 0.15466170E+09 0.12904370E+02 0.75467716E-02 0.20585346E+00
       21 -1    0    0  501  502 0.00000000E+00 0.00000000E+00 0.84192140E+00 0.84192140E+00 0.00000000E+00 0.0000E+00 0.9000E+01
       21 -1    0    0  502  503 0.00000000E+00 0.00000000E+00 -.49447242E+02 0.49447242E+02 0.00000000E+00 0.0000E+00 0.9000E+01
        5  1    1    2  501    0 -.29088127E+00 0.35716468E+01 -.14215796E+02 0.15395458E+02 0.47000000E+01 0.0000E+00 0.9000E+01
       -5  1    1    2    0  503 0.29088127E+00 -.35716468E+01 -.34389525E+02 0.34893705E+02 0.47000000E+01 0.0000E+00 0.9000E+01
#aMCatNLO 1  5  1  0  0 0.00000000E+00 0.00000000E+00 9  0  0 0.99999997E+00 0.20738463E+00 0.30896677E+01 0.00000000E+00 0.00000000E+00
  <rwgt>
   <wgt id='1001'> 0.15466E+09 </wgt>
   <wgt id='1002'> 0.30283E+09 </wgt>
   <wgt id='1003'> 0.45214E+08 </wgt>
   <wgt id='1004'> 0.10972E+09 </wgt>
   <wgt id='1005'> 0.21482E+09 </wgt>
   <wgt id='1006'> 0.32075E+08 </wgt>
   <wgt id='1007'> 0.24405E+09 </wgt>
   <wgt id='1008'> 0.47785E+09 </wgt>
   <wgt id='1009'> 0.71346E+08 </wgt>
  </rwgt>
  </event>
  <event>
  4      0 0.15466170E+09 0.30000000E+02 0.75467716E-02 0.19020677E+00
       21 -1    0    0  501  502 0.00000000E+00 0.00000000E+00 0.42716503E+00 0.42716503E+00 0.00000000E+00 0.0000E+00 0.9000E+01
       21 -1    0    0  502  503 -.00000000E+00 -.00000000E+00 -.54937680E+03 0.54937680E+03 0.00000000E+00 0.0000E+00 0.9000E+01
        5  1    1    2  501    0 -.20046391E+01 -.61624650E+01 -.40094219E+02 0.40885583E+02 0.47000000E+01 0.0000E+00 0.9000E+01
       -5  1    1    2    0  503 0.20046391E+01 0.61624650E+01 -.50885542E+03 0.50891838E+03 0.47000000E+01 0.0000E+00 0.9000E+01
#aMCatNLO 1  5  4  0  0 0.00000000E+00 0.00000000E+00 9  0  0 0.10000000E+01 0.40002692E+00 0.21244202E+01 0.00000000E+00 0.00000000E+00
  <rwgt>
   <wgt id='1001'> 0.15466E+09 </wgt>
   <wgt id='1002'> 0.22162E+09 </wgt>
   <wgt id='1003'> 0.85011E+08 </wgt>
   <wgt id='1004'> 0.11256E+09 </wgt>
   <wgt id='1005'> 0.16129E+09 </wgt>
   <wgt id='1006'> 0.61868E+08 </wgt>
   <wgt id='1007'> 0.22930E+09 </wgt>
   <wgt id='1008'> 0.32856E+09 </wgt>
   <wgt id='1009'> 0.12604E+09 </wgt>
  </rwgt>
  </event>
  <event>
  4      0 0.15466170E+09 0.24378444E+02 0.75467716E-02 0.17290250E+00
       21 -1    0    0  503  502 0.00000000E+00 0.00000000E+00 0.59850625E+02 0.59850625E+02 0.00000000E+00 0.0000E+00 0.9000E+01
       21 -1    0    0  501  503 0.00000000E+00 0.00000000E+00 -.24824659E+01 0.24824659E+01 0.00000000E+00 0.0000E+00 0.9000E+01
        5  1    1    2  501    0 0.61182356E+01 0.91468519E+01 0.22748215E+02 0.25703482E+02 0.47000000E+01 0.0000E+00 0.9000E+01
       -5  1    1    2    0  502 -.61182356E+01 -.91468519E+01 0.34619944E+02 0.36629608E+02 0.47000000E+01 0.0000E+00 0.9000E+01
#aMCatNLO 1  5  3  0  0 0.00000000E+00 0.00000000E+00 9  0  0 0.10000000E+01 0.42073375E+00 0.20759145E+01 0.00000000E+00 0.00000000E+00
  <rwgt>
   <wgt id='1001'> 0.15466E+09 </wgt>
   <wgt id='1002'> 0.22801E+09 </wgt>
   <wgt id='1003'> 0.86907E+08 </wgt>
   <wgt id='1004'> 0.11580E+09 </wgt>
   <wgt id='1005'> 0.17073E+09 </wgt>
   <wgt id='1006'> 0.65071E+08 </wgt>
   <wgt id='1007'> 0.21778E+09 </wgt>
   <wgt id='1008'> 0.32107E+09 </wgt>
   <wgt id='1009'> 0.12237E+09 </wgt>
  </rwgt>
  </event>
  <event>
  4      0 0.15466170E+09 0.15886585E+02 0.75467716E-02 0.21775215E+00
       21 -1    0    0  501  502 0.00000000E+00 0.00000000E+00 0.56754310E+01 0.56754310E+01 0.00000000E+00 0.0000E+00 0.9000E+01
       21 -1    0    0  502  503 0.00000000E+00 0.00000000E+00 -.11117376E+02 0.11117376E+02 0.00000000E+00 0.0000E+00 0.9000E+01
        5  1    1    2  501    0 0.38432520E+00 -.10740168E+01 0.39396312E+01 0.62379413E+01 0.47000000E+01 0.0000E+00 0.9000E+01
       -5  1    1    2    0  503 -.38432520E+00 0.10740168E+01 -.93815758E+01 0.10554865E+02 0.47000000E+01 0.0000E+00 0.9000E+01
#aMCatNLO 1  5  2  0  0 0.00000000E+00 0.00000000E+00 9  0  0 0.10000000E+01 0.14809533E+00 0.35725693E+01 0.00000000E+00 0.00000000E+00
  <rwgt>
   <wgt id='1001'> 0.15466E+09 </wgt>
   <wgt id='1002'> 0.33319E+09 </wgt>
   <wgt id='1003'> 0.32920E+08 </wgt>
   <wgt id='1004'> 0.10761E+09 </wgt>
   <wgt id='1005'> 0.23183E+09 </wgt>
   <wgt id='1006'> 0.22905E+08 </wgt>
   <wgt id='1007'> 0.25648E+09 </wgt>
   <wgt id='1008'> 0.55254E+09 </wgt>
   <wgt id='1009'> 0.54591E+08 </wgt>
  </rwgt>
  </event>
  <event>
  4      0 0.15466170E+09 0.26571058E+02 0.75467716E-02 0.21748981E+00
       21 -1    0    0  503  502 0.00000000E+00 0.00000000E+00 0.26469894E+01 0.26469894E+01 0.00000000E+00 0.0000E+00 0.9000E+01
       21 -1    0    0  501  503 -.00000000E+00 -.00000000E+00 -.66681519E+02 0.66681519E+02 0.00000000E+00 0.0000E+00 0.9000E+01
        5  1    1    2  501    0 0.11113612E+01 -.51208994E+00 -.64282305E+02 0.64465511E+02 0.47000000E+01 0.0000E+00 0.9000E+01
       -5  1    1    2    0  502 -.11113612E+01 0.51208994E+00 0.24777467E+00 0.48629983E+01 0.47000000E+01 0.0000E+00 0.9000E+01
#aMCatNLO 1  5  4  0  0 0.00000000E+00 0.00000000E+00 9  0  0 0.10000002E+01 0.18244332E+00 0.31670585E+01 0.00000000E+00 0.00000000E+00
  <rwgt>
   <wgt id='1001'> 0.15466E+09 </wgt>
   <wgt id='1002'> 0.29570E+09 </wgt>
   <wgt id='1003'> 0.40537E+08 </wgt>
   <wgt id='1004'> 0.10766E+09 </wgt>
   <wgt id='1005'> 0.20583E+09 </wgt>
   <wgt id='1006'> 0.28217E+08 </wgt>
   <wgt id='1007'> 0.25620E+09 </wgt>
   <wgt id='1008'> 0.48983E+09 </wgt>
   <wgt id='1009'> 0.67149E+08 </wgt>
  </rwgt>
  </event>
  <event>
  4      0 0.15466170E+09 0.79516325E+02 0.75467716E-02 0.13500636E+00
       21 -1    0    0  501  502 0.00000000E+00 0.00000000E+00 0.39037463E+03 0.39037463E+03 0.00000000E+00 0.0000E+00 0.9000E+01
       21 -1    0    0  502  503 0.00000000E+00 0.00000000E+00 -.45325050E+01 0.45325050E+01 0.00000000E+00 0.0000E+00 0.9000E+01
        5  1    1    2  501    0 0.22715197E+02 0.34924494E+02 0.17694411E+03 0.18184336E+03 0.47000000E+01 0.0000E+00 0.9000E+01
       -5  1    1    2    0  503 -.22715197E+02 -.34924494E+02 0.20889802E+03 0.21306378E+03 0.47000000E+01 0.0000E+00 0.9000E+01
#aMCatNLO 1  5  4  0  0 0.00000000E+00 0.00000000E+00 9  0  0 0.10000000E+01 0.68831296E+00 0.14296632E+01 0.00000000E+00 0.00000000E+00
  <rwgt>
   <wgt id='1001'> 0.15466E+09 </wgt>
   <wgt id='1002'> 0.17093E+09 </wgt>
   <wgt id='1003'> 0.13354E+09 </wgt>
   <wgt id='1004'> 0.12329E+09 </wgt>
   <wgt id='1005'> 0.13625E+09 </wgt>
   <wgt id='1006'> 0.10646E+09 </wgt>
   <wgt id='1007'> 0.20008E+09 </wgt>
   <wgt id='1008'> 0.22111E+09 </wgt>
   <wgt id='1009'> 0.17275E+09 </wgt>
  </rwgt>
  </event>
  <event>
  4      0 0.15466170E+09 0.24883860E+02 0.75467716E-02 0.18538727E+00
       21 -1    0    0  501  502 0.00000000E+00 0.00000000E+00 0.26734340E+02 0.26734340E+02 0.00000000E+00 0.0000E+00 0.9000E+01
       21 -1    0    0  502  503 0.00000000E+00 0.00000000E+00 -.57903666E+01 0.57903666E+01 0.00000000E+00 0.0000E+00 0.9000E+01
        5  1    1    2  501    0 0.62304974E+01 -.42448151E+01 0.21857230E+02 0.23593772E+02 0.47000000E+01 0.0000E+00 0.9000E+01
       -5  1    1    2    0  503 -.62304974E+01 0.42448151E+01 -.91325701E+00 0.89309346E+01 0.47000000E+01 0.0000E+00 0.9000E+01
#aMCatNLO 1  5  4  0  0 0.00000000E+00 0.00000000E+00 9  0  0 0.10000000E+01 0.35358157E+00 0.23200063E+01 0.00000000E+00 0.00000000E+00
  <rwgt>
   <wgt id='1001'> 0.15466E+09 </wgt>
   <wgt id='1002'> 0.24656E+09 </wgt>
   <wgt id='1003'> 0.74550E+08 </wgt>
   <wgt id='1004'> 0.11345E+09 </wgt>
   <wgt id='1005'> 0.18086E+09 </wgt>
   <wgt id='1006'> 0.54686E+08 </wgt>
   <wgt id='1007'> 0.22508E+09 </wgt>
   <wgt id='1008'> 0.35882E+09 </wgt>
   <wgt id='1009'> 0.10849E+09 </wgt>
  </rwgt>
  </event>
  <event>
  4      0 0.15466170E+09 0.30000000E+02 0.75467716E-02 0.20188249E+00
       21 -1    0    0  503  502 0.00000000E+00 0.00000000E+00 0.43914380E+00 0.43914380E+00 0.00000000E+00 0.0000E+00 0.9000E+01
       21 -1    0    0  501  503 -.00000000E+00 -.00000000E+00 -.56788162E+03 0.56788162E+03 0.00000000E+00 0.0000E+00 0.9000E+01
        5  1    1    2  501    0 0.40129559E+01 0.14761341E+01 -.54386513E+03 0.54390225E+03 0.47000000E+01 0.0000E+00 0.9000E+01
       -5  1    1    2    0  502 -.40129559E+01 -.14761341E+01 -.23577343E+02 0.24418515E+02 0.47000000E+01 0.0000E+00 0.9000E+01
#aMCatNLO 1  5  3  0  0 0.00000000E+00 0.00000000E+00 9  0  0 0.10000001E+01 0.33716420E+00 0.23449196E+01 0.00000000E+00 0.00000000E+00
  <rwgt>
   <wgt id='1001'> 0.15466E+09 </wgt>
   <wgt id='1002'> 0.23358E+09 </wgt>
   <wgt id='1003'> 0.73033E+08 </wgt>
   <wgt id='1004'> 0.11043E+09 </wgt>
   <wgt id='1005'> 0.16677E+09 </wgt>
   <wgt id='1006'> 0.52146E+08 </wgt>
   <wgt id='1007'> 0.24014E+09 </wgt>
   <wgt id='1008'> 0.36267E+09 </wgt>
   <wgt id='1009'> 0.11340E+09 </wgt>
  </rwgt>
  </event>
  <event>
  4      0 0.15466170E+09 0.11373868E+02 0.75467716E-02 0.20818014E+00
       21 -1    0    0  503  502 0.00000000E+00 0.00000000E+00 0.84989708E+02 0.84989708E+02 0.00000000E+00 0.0000E+00 0.9000E+01
       21 -1    0    0  501  503 0.00000000E+00 0.00000000E+00 -.38053101E+00 0.38053101E+00 0.00000000E+00 0.0000E+00 0.9000E+01
        5  1    1    2  501    0 -.29912490E+01 -.10669419E+01 0.45356083E+02 0.45709411E+02 0.47000000E+01 0.0000E+00 0.9000E+01
       -5  1    1    2    0  502 0.29912490E+01 0.10669419E+01 0.39253093E+02 0.39660828E+02 0.47000000E+01 0.0000E+00 0.9000E+01
#aMCatNLO 1  5  1  0  0 0.00000000E+00 0.00000000E+00 9  0  0 0.99999994E+00 0.22130174E+00 0.30761163E+01 0.00000000E+00 0.00000000E+00
  <rwgt>
   <wgt id='1001'> 0.15466E+09 </wgt>
   <wgt id='1002'> 0.29864E+09 </wgt>
   <wgt id='1003'> 0.48432E+08 </wgt>
   <wgt id='1004'> 0.10930E+09 </wgt>
   <wgt id='1005'> 0.21105E+09 </wgt>
   <wgt id='1006'> 0.34227E+08 </wgt>
   <wgt id='1007'> 0.24639E+09 </wgt>
   <wgt id='1008'> 0.47576E+09 </wgt>
   <wgt id='1009'> 0.77156E+08 </wgt>
  </rwgt>
  </event>
  <event>
  4      0 0.15466170E+09 0.16375533E+02 0.75467716E-02 0.19794341E+00
       21 -1    0    0  501  502 0.00000000E+00 0.00000000E+00 0.28170363E+01 0.28170363E+01 0.00000000E+00 0.0000E+00 0.9000E+01
       21 -1    0    0  502  503 0.00000000E+00 0.00000000E+00 -.23797890E+02 0.23797890E+02 0.00000000E+00 0.0000E+00 0.9000E+01
        5  1    1    2  501    0 0.20216119E+01 0.45507569E+01 -.31941380E+01 0.75557144E+01 0.47000000E+01 0.0000E+00 0.9000E+01
       -5  1    1    2    0  503 -.20216119E+01 -.45507569E+01 -.17786716E+02 0.19059212E+02 0.47000000E+01 0.0000E+00 0.9000E+01
#aMCatNLO 1  5  1  0  0 0.00000000E+00 0.00000000E+00 9  0  0 0.10000000E+01 0.25573470E+00 0.27917975E+01 0.00000000E+00 0.00000000E+00
  <rwgt>
   <wgt id='1001'> 0.15466E+09 </wgt>
   <wgt id='1002'> 0.28251E+09 </wgt>
   <wgt id='1003'> 0.55039E+08 </wgt>
   <wgt id='1004'> 0.11114E+09 </wgt>
   <wgt id='1005'> 0.20302E+09 </wgt>
   <wgt id='1006'> 0.39553E+08 </wgt>
   <wgt id='1007'> 0.23638E+09 </wgt>
   <wgt id='1008'> 0.43179E+09 </wgt>
   <wgt id='1009'> 0.84121E+08 </wgt>
  </rwgt>
  </event>
  <event>
  4      0 0.15466170E+09 0.99217180E+01 0.75467716E-02 0.21680248E+00
       21 -1    0    0  503  502 0.00000000E+00 0.00000000E+00 0.20816462E+00 0.20816462E+00 0.00000000E+00 0.0000E+00 0.9000E+01
       21 -1    0    0  501  503 -.00000000E+00 -.00000000E+00 -.11822433E+03 0.11822433E+03 0.00000000E+00 0.0000E+00 0.9000E+01
        5  1    1    2  501    0 0.26073166E-01 -.14215500E+01 -.67437093E+02 0.67615627E+02 0.47000000E+01 0.0000E+00 0.9000E+01
       -5  1    1    2    0  502 -.26073166E-01 0.14215500E+01 -.50579071E+02 0.50816866E+02 0.47000000E+01 0.0000E+00 0.9000E+01
#aMCatNLO 1  5  4  0  0 0.00000000E+00 0.00000000E+00 9  0  0 0.10000000E+01 0.22359526E+00 0.32383529E+01 0.00000000E+00 0.00000000E+00
  <rwgt>
   <wgt id='1001'> 0.15466E+09 </wgt>
   <wgt id='1002'> 0.30324E+09 </wgt>
   <wgt id='1003'> 0.49625E+08 </wgt>
   <wgt id='1004'> 0.10778E+09 </wgt>
   <wgt id='1005'> 0.21131E+09 </wgt>
   <wgt id='1006'> 0.34581E+08 </wgt>
   <wgt id='1007'> 0.25545E+09 </wgt>
   <wgt id='1008'> 0.50085E+09 </wgt>
   <wgt id='1009'> 0.81963E+08 </wgt>
  </rwgt>
  </event>
  <event>
  4      0 0.15466170E+09 0.30025010E+02 0.75467716E-02 0.19368639E+00
       21 -1    0    0  501  502 0.00000000E+00 0.00000000E+00 0.43120486E+01 0.43120486E+01 0.00000000E+00 0.0000E+00 0.9000E+01
       21 -1    0    0  502  503 0.00000000E+00 0.00000000E+00 -.52266410E+02 0.52266410E+02 0.00000000E+00 0.0000E+00 0.9000E+01
        5  1    1    2  501    0 -.20164604E-01 -.57804924E+01 0.58276067E+00 0.74728916E+01 0.47000000E+01 0.0000E+00 0.9000E+01
       -5  1    1    2    0  503 0.20164604E-01 0.57804924E+01 -.48537123E+02 0.49105568E+02 0.47000000E+01 0.0000E+00 0.9000E+01
#aMCatNLO 1  5  1  0  0 0.00000000E+00 0.00000000E+00 9  0  0 0.10000000E+01 0.32405203E+00 0.24262435E+01 0.00000000E+00 0.00000000E+00
  <rwgt>
   <wgt id='1001'> 0.15466E+09 </wgt>
   <wgt id='1002'> 0.24969E+09 </wgt>
   <wgt id='1003'> 0.69259E+08 </wgt>
   <wgt id='1004'> 0.11192E+09 </wgt>
   <wgt id='1005'> 0.18068E+09 </wgt>
   <wgt id='1006'> 0.50118E+08 </wgt>
   <wgt id='1007'> 0.23243E+09 </wgt>
   <wgt id='1008'> 0.37525E+09 </wgt>
   <wgt id='1009'> 0.10409E+09 </wgt>
  </rwgt>
  </event>
  <event>
  4      0 0.15466170E+09 0.20646064E+02 0.75467716E-02 0.21196719E+00
       21 -1    0    0  503  502 0.00000000E+00 0.00000000E+00 0.17995039E+03 0.17995039E+03 0.00000000E+00 0.0000E+00 0.9000E+01
       21 -1    0    0  501  503 0.00000000E+00 0.00000000E+00 -.59219095E+00 0.59219095E+00 0.00000000E+00 0.0000E+00 0.9000E+01
        5  1    1    2  501    0 -.16528296E+01 0.18545324E+01 0.12298169E+02 0.13397989E+02 0.47000000E+01 0.0000E+00 0.9000E+01
       -5  1    1    2    0  502 0.16528296E+01 -.18545324E+01 0.16706003E+03 0.16714459E+03 0.47000000E+01 0.0000E+00 0.9000E+01
#aMCatNLO 1  5  4  0  0 0.00000000E+00 0.00000000E+00 9  0  0 0.99999996E+00 0.22281352E+00 0.29266942E+01 0.00000000E+00 0.00000000E+00
  <rwgt>
   <wgt id='1001'> 0.15466E+09 </wgt>
   <wgt id='1002'> 0.27970E+09 </wgt>
   <wgt id='1003'> 0.49064E+08 </wgt>
   <wgt id='1004'> 0.10863E+09 </wgt>
   <wgt id='1005'> 0.19645E+09 </wgt>
   <wgt id='1006'> 0.34461E+08 </wgt>
   <wgt id='1007'> 0.25029E+09 </wgt>
   <wgt id='1008'> 0.45265E+09 </wgt>
   <wgt id='1009'> 0.79403E+08 </wgt>
  </rwgt>
  </event>
  <event>
  4      0 0.15466170E+09 0.23216653E+02 0.75467716E-02 0.19427503E+00
       21 -1    0    0  503  502 0.00000000E+00 0.00000000E+00 0.96319291E+02 0.96319291E+02 0.00000000E+00 0.0000E+00 0.9000E+01
       21 -1    0    0  501  503 0.00000000E+00 0.00000000E+00 -.13990265E+01 0.13990265E+01 0.00000000E+00 0.0000E+00 0.9000E+01
        5  1    1    2  501    0 0.23916735E+01 0.51370792E+01 0.96838913E+01 0.12164598E+02 0.47000000E+01 0.0000E+00 0.9000E+01
       -5  1    1    2    0  502 -.23916735E+01 -.51370792E+01 0.85236373E+02 0.85553720E+02 0.47000000E+01 0.0000E+00 0.9000E+01
#aMCatNLO 1  5  3  0  0 0.00000000E+00 0.00000000E+00 9  0  0 0.10000001E+01 0.30959093E+00 0.24833315E+01 0.00000000E+00 0.00000000E+00
  <rwgt>
   <wgt id='1001'> 0.15466E+09 </wgt>
   <wgt id='1002'> 0.25497E+09 </wgt>
   <wgt id='1003'> 0.66232E+08 </wgt>
   <wgt id='1004'> 0.11181E+09 </wgt>
   <wgt id='1005'> 0.18433E+09 </wgt>
   <wgt id='1006'> 0.47881E+08 </wgt>
   <wgt id='1007'> 0.23297E+09 </wgt>
   <wgt id='1008'> 0.38407E+09 </wgt>
   <wgt id='1009'> 0.99767E+08 </wgt>
  </rwgt>
  </event>
  <event>
  4      0 0.15466170E+09 0.11574804E+02 0.75467716E-02 0.20704156E+00
       21 -1    0    0  503  502 0.00000000E+00 0.00000000E+00 0.18024025E+00 0.18024025E+00 0.00000000E+00 0.0000E+00 0.9000E+01
       21 -1    0    0  501  503 0.00000000E+00 0.00000000E+00 -.18582988E+03 0.18582988E+03 0.00000000E+00 0.0000E+00 0.9000E+01
        5  1    1    2  501    0 0.33696904E+01 0.20777037E+00 -.91575648E+02 0.91758309E+02 0.47000000E+01 0.0000E+00 0.9000E+01
       -5  1    1    2    0  502 -.33696904E+01 -.20777037E+00 -.94073993E+02 0.94251812E+02 0.47000000E+01 0.0000E+00 0.9000E+01
#aMCatNLO 1  5  2  0  0 0.00000000E+00 0.00000000E+00 9  0  0 0.10000001E+01 0.28719284E+00 0.27793915E+01 0.00000000E+00 0.00000000E+00
  <rwgt>
   <wgt id='1001'> 0.15466E+09 </wgt>
   <wgt id='1002'> 0.27110E+09 </wgt>
   <wgt id='1003'> 0.62734E+08 </wgt>
   <wgt id='1004'> 0.10950E+09 </wgt>
   <wgt id='1005'> 0.19195E+09 </wgt>
   <wgt id='1006'> 0.44418E+08 </wgt>
   <wgt id='1007'> 0.24524E+09 </wgt>
   <wgt id='1008'> 0.42987E+09 </wgt>
   <wgt id='1009'> 0.99477E+08 </wgt>
  </rwgt>
  </event>
  <event>
  4      0 0.15466170E+09 0.19275020E+02 0.75467716E-02 0.21868415E+00
       21 -1    0    0  501  502 0.00000000E+00 0.00000000E+00 0.24899127E+03 0.24899127E+03 0.00000000E+00 0.0000E+00 0.9000E+01
       21 -1    0    0  502  503 0.00000000E+00 0.00000000E+00 -.37303154E+00 0.37303154E+00 0.00000000E+00 0.0000E+00 0.9000E+01
        5  1    1    2  501    0 -.64441381E+00 0.45392891E+00 0.23268085E+03 0.23272965E+03 0.47000000E+01 0.0000E+00 0.9000E+01
       -5  1    1    2    0  503 0.64441381E+00 -.45392891E+00 0.15937380E+02 0.16634645E+02 0.47000000E+01 0.0000E+00 0.9000E+01
#aMCatNLO 1  5  3  0  0 0.00000000E+00 0.00000000E+00 9  0  0 0.99999999E+00 0.21694311E+00 0.30592548E+01 0.00000000E+00 0.00000000E+00
  <rwgt>
   <wgt id='1001'> 0.15466E+09 </wgt>
   <wgt id='1002'> 0.28419E+09 </wgt>
   <wgt id='1003'> 0.48296E+08 </wgt>
   <wgt id='1004'> 0.10745E+09 </wgt>
   <wgt id='1005'> 0.19742E+09 </wgt>
   <wgt id='1006'> 0.33553E+08 </wgt>
   <wgt id='1007'> 0.25751E+09 </wgt>
   <wgt id='1008'> 0.47315E+09 </wgt>
   <wgt id='1009'> 0.80411E+08 </wgt>
  </rwgt>
  </event>
  <event>
  4      0 0.15466170E+09 0.11451600E+02 0.75467716E-02 0.20857442E+00
       21 -1    0    0  501  502 0.00000000E+00 0.00000000E+00 0.10120230E+04 0.10120230E+04 0.00000000E+00 0.0000E+00 0.9000E+01
       21 -1    0    0  502  503 0.00000000E+00 0.00000000E+00 -.32395297E-01 0.32395297E-01 0.00000000E+00 0.0000E+00 0.9000E+01
        5  1    1    2  501    0 0.28814202E+01 -.11594979E+01 0.59645819E+03 0.59648480E+03 0.47000000E+01 0.0000E+00 0.9000E+01
       -5  1    1    2    0  503 -.28814202E+01 0.11594979E+01 0.41553240E+03 0.41557059E+03 0.47000000E+01 0.0000E+00 0.9000E+01
#aMCatNLO 1  5  1  0  0 0.00000000E+00 0.00000000E+00 9  0  0 0.10000001E+01 0.47662654E+00 0.21960819E+01 0.00000000E+00 0.00000000E+00
  <rwgt>
   <wgt id='1001'> 0.15466E+09 </wgt>
   <wgt id='1002'> 0.21285E+09 </wgt>
   <wgt id='1003'> 0.10438E+09 </wgt>
   <wgt id='1004'> 0.10923E+09 </wgt>
   <wgt id='1005'> 0.15032E+09 </wgt>
   <wgt id='1006'> 0.73716E+08 </wgt>
   <wgt id='1007'> 0.24679E+09 </wgt>
   <wgt id='1008'> 0.33965E+09 </wgt>
   <wgt id='1009'> 0.16655E+09 </wgt>
  </rwgt>
  </event>
  <event>
  4      0 0.15466170E+09 0.18414511E+02 0.75467716E-02 0.19014132E+00
       21 -1    0    0  503  502 0.00000000E+00 0.00000000E+00 0.79411740E+02 0.79411740E+02 0.00000000E+00 0.0000E+00 0.9000E+01
       21 -1    0    0  501  503 0.00000000E+00 0.00000000E+00 -.10675191E+01 0.10675191E+01 0.00000000E+00 0.0000E+00 0.9000E+01
        5  1    1    2  501    0 0.34176937E+01 -.55218457E+01 0.19378306E+02 0.20970936E+02 0.47000000E+01 0.0000E+00 0.9000E+01
       -5  1    1    2    0  502 -.34176937E+01 0.55218457E+01 0.58965915E+02 0.59508323E+02 0.47000000E+01 0.0000E+00 0.9000E+01
#aMCatNLO 1  5  4  0  0 0.00000000E+00 0.00000000E+00 9  0  0 0.99999994E+00 0.31823844E+00 0.24627543E+01 0.00000000E+00 0.00000000E+00
  <rwgt>
   <wgt id='1001'> 0.15466E+09 </wgt>
   <wgt id='1002'> 0.25698E+09 </wgt>
   <wgt id='1003'> 0.67623E+08 </wgt>
   <wgt id='1004'> 0.11257E+09 </wgt>
   <wgt id='1005'> 0.18704E+09 </wgt>
   <wgt id='1006'> 0.49220E+08 </wgt>
   <wgt id='1007'> 0.22924E+09 </wgt>
   <wgt id='1008'> 0.38089E+09 </wgt>
   <wgt id='1009'> 0.10023E+09 </wgt>
  </rwgt>
  </event>
  <event>
  4      0 0.15466170E+09 0.14653248E+02 0.75467716E-02 0.21771063E+00
       21 -1    0    0  503  502 0.00000000E+00 0.00000000E+00 0.37140531E+00 0.37140531E+00 0.00000000E+00 0.0000E+00 0.9000E+01
       21 -1    0    0  501  503 -.00000000E+00 -.00000000E+00 -.14453056E+03 0.14453056E+03 0.00000000E+00 0.0000E+00 0.9000E+01
        5  1    1    2  501    0 0.37999322E+00 0.10898250E+01 -.12647414E+03 0.12656670E+03 0.47000000E+01 0.0000E+00 0.9000E+01
       -5  1    1    2    0  502 -.37999322E+00 -.10898250E+01 -.17685013E+02 0.18335261E+02 0.47000000E+01 0.0000E+00 0.9000E+01
#aMCatNLO 1  5  4  0  0 0.00000000E+00 0.00000000E+00 9  0  0 0.99999999E+00 0.19828252E+00 0.32310022E+01 0.00000000E+00 0.00000000E+00
  <rwgt>
   <wgt id='1001'> 0.15466E+09 </wgt>
   <wgt id='1002'> 0.30139E+09 </wgt>
   <wgt id='1003'> 0.44072E+08 </wgt>
   <wgt id='1004'> 0.10762E+09 </wgt>
   <wgt id='1005'> 0.20971E+09 </wgt>
   <wgt id='1006'> 0.30666E+08 </wgt>
   <wgt id='1007'> 0.25644E+09 </wgt>
   <wgt id='1008'> 0.49971E+09 </wgt>
   <wgt id='1009'> 0.73074E+08 </wgt>
  </rwgt>
  </event>
  <event>
  4      0 0.15466170E+09 0.12998510E+02 0.75467716E-02 0.21062721E+00
       21 -1    0    0  503  502 0.00000000E+00 0.00000000E+00 0.31728880E+00 0.31728880E+00 0.00000000E+00 0.0000E+00 0.9000E+01
       21 -1    0    0  501  503 0.00000000E+00 0.00000000E+00 -.13312891E+03 0.13312891E+03 0.00000000E+00 0.0000E+00 0.9000E+01
        5  1    1    2  501    0 0.37498917E-01 0.27351144E+01 -.10294573E+03 0.10308926E+03 0.47000000E+01 0.0000E+00 0.9000E+01
       -5  1    1    2    0  502 -.37498917E-01 -.27351144E+01 -.29865888E+02 0.30356935E+02 0.47000000E+01 0.0000E+00 0.9000E+01
#aMCatNLO 1  5  1  0  0 0.00000000E+00 0.00000000E+00 9  0  0 0.99999997E+00 0.23411996E+00 0.30098420E+01 0.00000000E+00 0.00000000E+00
  <rwgt>
   <wgt id='1001'> 0.15466E+09 </wgt>
   <wgt id='1002'> 0.28925E+09 </wgt>
   <wgt id='1003'> 0.51441E+08 </wgt>
   <wgt id='1004'> 0.10886E+09 </wgt>
   <wgt id='1005'> 0.20360E+09 </wgt>
   <wgt id='1006'> 0.36209E+08 </wgt>
   <wgt id='1007'> 0.24890E+09 </wgt>
   <wgt id='1008'> 0.46550E+09 </wgt>
   <wgt id='1009'> 0.82786E+08 </wgt>
  </rwgt>
  </event>
  <event>
  4      0 0.15466170E+09 0.20263280E+02 0.75467716E-02 0.20785405E+00
       21 -1    0    0  503  502 0.00000000E+00 0.00000000E+00 0.32073011E+00 0.32073011E+00 0.00000000E+00 0.0000E+00 0.9000E+01
       21 -1    0    0  501  503 -.00000000E+00 -.00000000E+00 -.32005144E+03 0.32005144E+03 0.00000000E+00 0.0000E+00 0.9000E+01
        5  1    1    2  501    0 0.21658128E+01 0.24008550E+01 -.29224475E+03 0.29230043E+03 0.47000000E+01 0.0000E+00 0.9000E+01
       -5  1    1    2    0  502 -.21658128E+01 -.24008550E+01 -.27485956E+02 0.28071741E+02 0.47000000E+01 0.0000E+00 0.9000E+01
#aMCatNLO 1  5  3  0  0 0.00000000E+00 0.00000000E+00 9  0  0 0.99999992E+00 0.28609703E+00 0.26510900E+01 0.00000000E+00 0.00000000E+00
  <rwgt>
   <wgt id='1001'> 0.15466E+09 </wgt>
   <wgt id='1002'> 0.25772E+09 </wgt>
   <wgt id='1003'> 0.62579E+08 </wgt>
   <wgt id='1004'> 0.10936E+09 </wgt>
   <wgt id='1005'> 0.18223E+09 </wgt>
   <wgt id='1006'> 0.44248E+08 </wgt>
   <wgt id='1007'> 0.24606E+09 </wgt>
   <wgt id='1008'> 0.41003E+09 </wgt>
   <wgt id='1009'> 0.99561E+08 </wgt>
  </rwgt>
  </event>
  <event>
  4      0 0.15466170E+09 0.10285625E+02 0.75467716E-02 0.21519325E+00
       21 -1    0    0  503  502 0.00000000E+00 0.00000000E+00 0.77373034E+03 0.77373034E+03 0.00000000E+00 0.0000E+00 0.9000E+01
       21 -1    0    0  501  503 0.00000000E+00 0.00000000E+00 -.34183126E-01 0.34183126E-01 0.00000000E+00 0.0000E+00 0.9000E+01
        5  1    1    2  501    0 0.25924491E+00 -.18005312E+01 0.30978454E+03 0.30982554E+03 0.47000000E+01 0.0000E+00 0.9000E+01
       -5  1    1    2    0  502 -.25924491E+00 0.18005312E+01 0.46391161E+03 0.46393898E+03 0.47000000E+01 0.0000E+00 0.9000E+01
#aMCatNLO 1  5  1  0  0 0.00000000E+00 0.00000000E+00 9  0  0 0.99999994E+00 0.45189149E+00 0.23607007E+01 0.00000000E+00 0.00000000E+00
  <rwgt>
   <wgt id='1001'> 0.15466E+09 </wgt>
   <wgt id='1002'> 0.22257E+09 </wgt>
   <wgt id='1003'> 0.10003E+09 </wgt>
   <wgt id='1004'> 0.10806E+09 </wgt>
   <wgt id='1005'> 0.15551E+09 </wgt>
   <wgt id='1006'> 0.69890E+08 </wgt>
   <wgt id='1007'> 0.25372E+09 </wgt>
   <wgt id='1008'> 0.36511E+09 </wgt>
   <wgt id='1009'> 0.16410E+09 </wgt>
  </rwgt>
  </event>
  <event>
  4      0 0.15466170E+09 0.30824446E+02 0.75467716E-02 0.16590879E+00
       21 -1    0    0  503  502 0.00000000E+00 0.00000000E+00 0.11020111E+04 0.11020111E+04 0.00000000E+00 0.0000E+00 0.9000E+01
       21 -1    0    0  501  503 0.00000000E+00 0.00000000E+00 -.21554831E+00 0.21554831E+00 0.00000000E+00 0.0000E+00 0.9000E+01
        5  1    1    2  501    0 -.11285269E+02 -.76628284E+01 0.74468737E+03 0.74482713E+03 0.47000000E+01 0.0000E+00 0.9000E+01
       -5  1    1    2    0  502 0.11285269E+02 0.76628284E+01 0.35710814E+03 0.35739949E+03 0.47000000E+01 0.0000E+00 0.9000E+01
#aMCatNLO 1  5  1  0  0 0.00000000E+00 0.00000000E+00 9  0  0 0.10000000E+01 0.54962023E+00 0.17177228E+01 0.00000000E+00 0.00000000E+00
  <rwgt>
   <wgt id='1001'> 0.15466E+09 </wgt>
   <wgt id='1002'> 0.19174E+09 </wgt>
   <wgt id='1003'> 0.11223E+09 </wgt>
   <wgt id='1004'> 0.11715E+09 </wgt>
   <wgt id='1005'> 0.14523E+09 </wgt>
   <wgt id='1006'> 0.85005E+08 </wgt>
   <wgt id='1007'> 0.21429E+09 </wgt>
   <wgt id='1008'> 0.26567E+09 </wgt>
   <wgt id='1009'> 0.15550E+09 </wgt>
  </rwgt>
  </event>
  <event>
  4      0 0.15466170E+09 0.15118938E+02 0.75467716E-02 0.19612954E+00
       21 -1    0    0  503  502 0.00000000E+00 0.00000000E+00 0.78427278E+02 0.78427278E+02 0.00000000E+00 0.0000E+00 0.9000E+01
       21 -1    0    0  501  503 0.00000000E+00 0.00000000E+00 -.72864407E+00 0.72864407E+00 0.00000000E+00 0.0000E+00 0.9000E+01
        5  1    1    2  501    0 -.12753628E+01 -.51592792E+01 0.25185782E+02 0.26165977E+02 0.47000000E+01 0.0000E+00 0.9000E+01
       -5  1    1    2    0  502 0.12753628E+01 0.51592792E+01 0.52512851E+02 0.52989945E+02 0.47000000E+01 0.0000E+00 0.9000E+01
#aMCatNLO 1  5  1  0  0 0.00000000E+00 0.00000000E+00 9  0  0 0.10000000E+01 0.27690514E+00 0.26717792E+01 0.00000000E+00 0.00000000E+00
  <rwgt>
   <wgt id='1001'> 0.15466E+09 </wgt>
   <wgt id='1002'> 0.27232E+09 </wgt>
   <wgt id='1003'> 0.59419E+08 </wgt>
   <wgt id='1004'> 0.11148E+09 </wgt>
   <wgt id='1005'> 0.19628E+09 </wgt>
   <wgt id='1006'> 0.42827E+08 </wgt>
   <wgt id='1007'> 0.23468E+09 </wgt>
   <wgt id='1008'> 0.41323E+09 </wgt>
   <wgt id='1009'> 0.90162E+08 </wgt>
  </rwgt>
  </event>
  <event>
  4      0 0.15466170E+09 0.14256503E+02 0.75467716E-02 0.21292794E+00
       21 -1    0    0  501  502 0.00000000E+00 0.00000000E+00 0.18075050E+03 0.18075050E+03 0.00000000E+00 0.0000E+00 0.9000E+01
       21 -1    0    0  502  503 0.00000000E+00 0.00000000E+00 -.28111661E+00 0.28111661E+00 0.00000000E+00 0.0000E+00 0.9000E+01
        5  1    1    2  501    0 0.13192030E+01 0.18806137E+01 0.15171927E+03 0.15180944E+03 0.47000000E+01 0.0000E+00 0.9000E+01
       -5  1    1    2    0  503 -.13192030E+01 -.18806137E+01 0.28750112E+02 0.29222182E+02 0.47000000E+01 0.0000E+00 0.9000E+01
#aMCatNLO 1  5  4  0  0 0.00000000E+00 0.00000000E+00 9  0  0 0.99999998E+00 0.24270559E+00 0.29750409E+01 0.00000000E+00 0.00000000E+00
  <rwgt>
   <wgt id='1001'> 0.15466E+09 </wgt>
   <wgt id='1002'> 0.28318E+09 </wgt>
   <wgt id='1003'> 0.53528E+08 </wgt>
   <wgt id='1004'> 0.10846E+09 </wgt>
   <wgt id='1005'> 0.19858E+09 </wgt>
   <wgt id='1006'> 0.37537E+08 </wgt>
   <wgt id='1007'> 0.25130E+09 </wgt>
   <wgt id='1008'> 0.46013E+09 </wgt>
   <wgt id='1009'> 0.86976E+08 </wgt>
  </rwgt>
  </event>
  <event>
  4      0 0.15466170E+09 0.21016172E+02 0.75467716E-02 0.19043095E+00
       21 -1    0    0  501  502 0.00000000E+00 0.00000000E+00 0.62559835E+03 0.62559835E+03 0.00000000E+00 0.0000E+00 0.9000E+01
       21 -1    0    0  502  503 0.00000000E+00 0.00000000E+00 -.17650282E+00 0.17650282E+00 0.00000000E+00 0.0000E+00 0.9000E+01
        5  1    1    2  501    0 0.60439916E+01 -.22053527E+01 0.51670598E+03 0.51676741E+03 0.47000000E+01 0.0000E+00 0.9000E+01
       -5  1    1    2    0  503 -.60439916E+01 0.22053527E+01 0.10871586E+03 0.10900744E+03 0.47000000E+01 0.0000E+00 0.9000E+01
#aMCatNLO 1  5  2  0  0 0.00000000E+00 0.00000000E+00 9  0  0 0.10000000E+01 0.42210405E+00 0.21192071E+01 0.00000000E+00 0.00000000E+00
  <rwgt>
   <wgt id='1001'> 0.15466E+09 </wgt>
   <wgt id='1002'> 0.22088E+09 </wgt>
   <wgt id='1003'> 0.89736E+08 </wgt>
   <wgt id='1004'> 0.11251E+09 </wgt>
   <wgt id='1005'> 0.16070E+09 </wgt>
   <wgt id='1006'> 0.65283E+08 </wgt>
   <wgt id='1007'> 0.22950E+09 </wgt>
   <wgt id='1008'> 0.32776E+09 </wgt>
   <wgt id='1009'> 0.13315E+09 </wgt>
  </rwgt>
  </event>
  <event>
  4      0 0.15466170E+09 0.17668122E+02 0.75467716E-02 0.20321488E+00
       21 -1    0    0  501  502 0.00000000E+00 0.00000000E+00 0.65285794E+00 0.65285794E+00 0.00000000E+00 0.0000E+00 0.9000E+01
       21 -1    0    0  502  503 -.00000000E+00 -.00000000E+00 -.11953693E+03 0.11953693E+03 0.00000000E+00 0.0000E+00 0.9000E+01
        5  1    1    2  501    0 0.31508006E+01 -.25329418E+01 -.16630109E+02 0.17748067E+02 0.47000000E+01 0.0000E+00 0.9000E+01
       -5  1    1    2    0  503 -.31508006E+01 0.25329418E+01 -.10225396E+03 0.10244172E+03 0.47000000E+01 0.0000E+00 0.9000E+01
#aMCatNLO 1  5  3  0  0 0.00000000E+00 0.00000000E+00 9  0  0 0.10000001E+01 0.25392518E+00 0.27755629E+01 0.00000000E+00 0.00000000E+00
  <rwgt>
   <wgt id='1001'> 0.15466E+09 </wgt>
   <wgt id='1002'> 0.27499E+09 </wgt>
   <wgt id='1003'> 0.55122E+08 </wgt>
   <wgt id='1004'> 0.11019E+09 </wgt>
   <wgt id='1005'> 0.19592E+09 </wgt>
   <wgt id='1006'> 0.39273E+08 </wgt>
   <wgt id='1007'> 0.24144E+09 </wgt>
   <wgt id='1008'> 0.42927E+09 </wgt>
   <wgt id='1009'> 0.86052E+08 </wgt>
  </rwgt>
  </event>
  <event>
  4      0 0.15466170E+09 0.13788366E+02 0.75467716E-02 0.21293414E+00
       21 -1    0    0  501  502 0.00000000E+00 0.00000000E+00 0.24918501E+03 0.24918501E+03 0.00000000E+00 0.0000E+00 0.9000E+01
       21 -1    0    0  502  503 0.00000000E+00 0.00000000E+00 -.19074085E+00 0.19074085E+00 0.00000000E+00 0.0000E+00 0.9000E+01
        5  1    1    2  501    0 -.14723386E+01 0.17616957E+01 0.20571979E+03 0.20578628E+03 0.47000000E+01 0.0000E+00 0.9000E+01
       -5  1    1    2    0  503 0.14723386E+01 -.17616957E+01 0.43274472E+02 0.43589463E+02 0.47000000E+01 0.0000E+00 0.9000E+01
#aMCatNLO 1  5  1  0  0 0.00000000E+00 0.00000000E+00 9  0  0 0.10000000E+01 0.27820701E+00 0.28431462E+01 0.00000000E+00 0.00000000E+00
  <rwgt>
   <wgt id='1001'> 0.15466E+09 </wgt>
   <wgt id='1002'> 0.27061E+09 </wgt>
   <wgt id='1003'> 0.61358E+08 </wgt>
   <wgt id='1004'> 0.10846E+09 </wgt>
   <wgt id='1005'> 0.18978E+09 </wgt>
   <wgt id='1006'> 0.43028E+08 </wgt>
   <wgt id='1007'> 0.25131E+09 </wgt>
   <wgt id='1008'> 0.43973E+09 </wgt>
   <wgt id='1009'> 0.99702E+08 </wgt>
  </rwgt>
  </event>
  <event>
  4      0 0.15466170E+09 0.14641932E+02 0.75467716E-02 0.20308738E+00
       21 -1    0    0  501  502 0.00000000E+00 0.00000000E+00 0.42791369E+01 0.42791369E+01 0.00000000E+00 0.0000E+00 0.9000E+01
       21 -1    0    0  502  503 0.00000000E+00 0.00000000E+00 -.12525083E+02 0.12525083E+02 0.00000000E+00 0.0000E+00 0.9000E+01
        5  1    1    2  501    0 0.35877620E+01 0.19109338E+01 0.31942073E+00 0.62221969E+01 0.47000000E+01 0.0000E+00 0.9000E+01
       -5  1    1    2    0  503 -.35877620E+01 -.19109338E+01 -.85653668E+01 0.10582023E+02 0.47000000E+01 0.0000E+00 0.9000E+01
#aMCatNLO 1  5  1  0  0 0.00000000E+00 0.00000000E+00 9  0  0 0.10000000E+01 0.21922941E+00 0.30261320E+01 0.00000000E+00 0.00000000E+00
  <rwgt>
   <wgt id='1001'> 0.15466E+09 </wgt>
   <wgt id='1002'> 0.29996E+09 </wgt>
   <wgt id='1003'> 0.47581E+08 </wgt>
   <wgt id='1004'> 0.11022E+09 </wgt>
   <wgt id='1005'> 0.21375E+09 </wgt>
   <wgt id='1006'> 0.33906E+08 </wgt>
   <wgt id='1007'> 0.24131E+09 </wgt>
   <wgt id='1008'> 0.46803E+09 </wgt>
   <wgt id='1009'> 0.74240E+08 </wgt>
  </rwgt>
  </event>
  <event>
  4      0 0.15466170E+09 0.30000000E+02 0.75467716E-02 0.19380304E+00
       21 -1    0    0  503  502 0.00000000E+00 0.00000000E+00 0.12369197E+02 0.12369197E+02 0.00000000E+00 0.0000E+00 0.9000E+01
       21 -1    0    0  501  503 -.00000000E+00 -.00000000E+00 -.32680562E+02 0.32680562E+02 0.00000000E+00 0.0000E+00 0.9000E+01
        5  1    1    2  501    0 0.57566551E+01 0.11717176E+00 -.31084907E+02 0.31961137E+02 0.47000000E+01 0.0000E+00 0.9000E+01
       -5  1    1    2    0  502 -.57566551E+01 -.11717176E+00 0.10773542E+02 0.13088622E+02 0.47000000E+01 0.0000E+00 0.9000E+01
#aMCatNLO 1  5  3  0  0 0.00000000E+00 0.00000000E+00 9  0  0 0.10000001E+01 0.34292220E+00 0.23453349E+01 0.00000000E+00 0.00000000E+00
  <rwgt>
   <wgt id='1001'> 0.15466E+09 </wgt>
   <wgt id='1002'> 0.24126E+09 </wgt>
   <wgt id='1003'> 0.73306E+08 </wgt>
   <wgt id='1004'> 0.11190E+09 </wgt>
   <wgt id='1005'> 0.17454E+09 </wgt>
   <wgt id='1006'> 0.53036E+08 </wgt>
   <wgt id='1007'> 0.23254E+09 </wgt>
   <wgt id='1008'> 0.36273E+09 </wgt>
   <wgt id='1009'> 0.11022E+09 </wgt>
  </rwgt>
  </event>
  <event>
  4      0 0.15466170E+09 0.10329754E+02 0.75467716E-02 0.21463426E+00
       21 -1    0    0  501  502 0.00000000E+00 0.00000000E+00 0.11361541E+01 0.11361541E+01 0.00000000E+00 0.0000E+00 0.9000E+01
       21 -1    0    0  502  503 0.00000000E+00 0.00000000E+00 -.23479169E+02 0.23479169E+02 0.00000000E+00 0.0000E+00 0.9000E+01
        5  1    1    2  501    0 0.19353433E+01 0.17793730E+00 -.90285188E+01 0.10362498E+02 0.47000000E+01 0.0000E+00 0.9000E+01
       -5  1    1    2    0  503 -.19353433E+01 -.17793730E+00 -.13314496E+02 0.14252825E+02 0.47000000E+01 0.0000E+00 0.9000E+01
#aMCatNLO 1  5  2  0  0 0.00000000E+00 0.00000000E+00 9  0  0 0.10000000E+01 0.14304049E+00 0.36380108E+01 0.00000000E+00 0.00000000E+00
  <rwgt>
   <wgt id='1001'> 0.15466E+09 </wgt>
   <wgt id='1002'> 0.34381E+09 </wgt>
   <wgt id='1003'> 0.31635E+08 </wgt>
   <wgt id='1004'> 0.10816E+09 </wgt>
   <wgt id='1005'> 0.24043E+09 </wgt>
   <wgt id='1006'> 0.22122E+08 </wgt>
   <wgt id='1007'> 0.25311E+09 </wgt>
   <wgt id='1008'> 0.56267E+09 </wgt>
   <wgt id='1009'> 0.51773E+08 </wgt>
  </rwgt>
  </event>
  <event>
  4      0 0.15466170E+09 0.10401270E+02 0.75467716E-02 0.21412810E+00
       21 -1    0    0  503  502 0.00000000E+00 0.00000000E+00 0.49660422E+03 0.49660422E+03 0.00000000E+00 0.0000E+00 0.9000E+01
       21 -1    0    0  501  503 0.00000000E+00 0.00000000E+00 -.54463098E-01 0.54463098E-01 0.00000000E+00 0.0000E+00 0.9000E+01
        5  1    1    2  501    0 -.95750691E+00 -.18149240E+01 0.20703729E+03 0.20710080E+03 0.47000000E+01 0.0000E+00 0.9000E+01
       -5  1    1    2    0  502 0.95750691E+00 0.18149240E+01 0.28951246E+03 0.28955788E+03 0.47000000E+01 0.0000E+00 0.9000E+01
#aMCatNLO 1  5  3  0  0 0.00000000E+00 0.00000000E+00 9  0  0 0.99999999E+00 0.38780401E+00 0.25303460E+01 0.00000000E+00 0.00000000E+00
  <rwgt>
   <wgt id='1001'> 0.15466E+09 </wgt>
   <wgt id='1002'> 0.23964E+09 </wgt>
   <wgt id='1003'> 0.85696E+08 </wgt>
   <wgt id='1004'> 0.10824E+09 </wgt>
   <wgt id='1005'> 0.16773E+09 </wgt>
   <wgt id='1006'> 0.59978E+08 </wgt>
   <wgt id='1007'> 0.25257E+09 </wgt>
   <wgt id='1008'> 0.39135E+09 </wgt>
   <wgt id='1009'> 0.13995E+09 </wgt>
  </rwgt>
  </event>
  <event>
  4      0 0.15466170E+09 0.21981433E+02 0.75467716E-02 0.19813070E+00
       21 -1    0    0  501  502 0.00000000E+00 0.00000000E+00 0.21991547E+00 0.21991547E+00 0.00000000E+00 0.0000E+00 0.9000E+01
       21 -1    0    0  502  503 -.00000000E+00 -.00000000E+00 -.54928306E+03 0.54928306E+03 0.00000000E+00 0.0000E+00 0.9000E+01
        5  1    1    2  501    0 -.33505358E+01 -.36375066E+01 -.59125812E+02 0.59518141E+02 0.47000000E+01 0.0000E+00 0.9000E+01
       -5  1    1    2    0  503 0.33505358E+01 0.36375066E+01 -.48993734E+03 0.48998484E+03 0.47000000E+01 0.0000E+00 0.9000E+01
#aMCatNLO 1  5  3  0  0 0.00000000E+00 0.00000000E+00 9  0  0 0.99999994E+00 0.37376186E+00 0.22878774E+01 0.00000000E+00 0.00000000E+00
  <rwgt>
   <wgt id='1001'> 0.15466E+09 </wgt>
   <wgt id='1002'> 0.23135E+09 </wgt>
   <wgt id='1003'> 0.80467E+08 </wgt>
   <wgt id='1004'> 0.11111E+09 </wgt>
   <wgt id='1005'> 0.16619E+09 </wgt>
   <wgt id='1006'> 0.57807E+08 </wgt>
   <wgt id='1007'> 0.23655E+09 </wgt>
   <wgt id='1008'> 0.35385E+09 </wgt>
   <wgt id='1009'> 0.12307E+09 </wgt>
  </rwgt>
  </event>
  <event>
  4      0 0.15466170E+09 0.14090630E+02 0.75467716E-02 0.20024995E+00
       21 -1    0    0  501  502 0.00000000E+00 0.00000000E+00 0.34453202E+03 0.34453202E+03 0.00000000E+00 0.0000E+00 0.9000E+01
       21 -1    0    0  502  503 0.00000000E+00 0.00000000E+00 -.14406924E+00 0.14406924E+00 0.00000000E+00 0.0000E+00 0.9000E+01
        5  1    1    2  501    0 0.41326091E+00 -.45455539E+01 0.23557499E+03 0.23566607E+03 0.47000000E+01 0.0000E+00 0.9000E+01
       -5  1    1    2    0  503 -.41326091E+00 0.45455539E+01 0.10881297E+03 0.10901002E+03 0.47000000E+01 0.0000E+00 0.9000E+01
#aMCatNLO 1  5  2  0  0 0.00000000E+00 0.00000000E+00 9  0  0 0.10000000E+01 0.35498143E+00 0.24370745E+01 0.00000000E+00 0.00000000E+00
  <rwgt>
   <wgt id='1001'> 0.15466E+09 </wgt>
   <wgt id='1002'> 0.24435E+09 </wgt>
   <wgt id='1003'> 0.76688E+08 </wgt>
   <wgt id='1004'> 0.11073E+09 </wgt>
   <wgt id='1005'> 0.17493E+09 </wgt>
   <wgt id='1006'> 0.54902E+08 </wgt>
   <wgt id='1007'> 0.23857E+09 </wgt>
   <wgt id='1008'> 0.37692E+09 </wgt>
   <wgt id='1009'> 0.11829E+09 </wgt>
  </rwgt>
  </event>
</LesHouchesEvents>
