<event>
 8    1  0.2472977E-006  0.9118800E+02  0.7816164E-02  0.1184000E+00
        -11   -1    0    0    0    0  0.00000000000E+00  0.00000000000E+00  0.45593999997E+02  0.45594000000E+02  0.51100000000E-03 0.  1.
         11   -1    0    0    0    0 -0.00000000000E+00 -0.00000000000E+00 -0.45593999997E+02  0.45594000000E+02  0.51100000000E-03 0. -1.
         23    2    1    2    0    0  0.00000000000E+00  0.00000000000E+00  0.71054273576E-14  0.91188000000E+02  0.91188000000E+02 0.  0.
    9900012    2    3    3    0    0 -0.17085404298E+02 -0.17011514392E+02 -0.27829424044E+02  0.54367088759E+02  0.40000010445E+02 0.  0.
        -12    1    3    3    0    0  0.17085404298E+02  0.17011514392E+02  0.27829424044E+02  0.36820911241E+02  0.00000000000E+00 0.  1.
         11    1    4    4    0    0 -0.10432144653E+02 -0.17057353893E+02 -0.19608036204E+02  0.28004607620E+02  0.51100000000E-03 0. -1.
        -11    1    4    4    0    0 -0.12274402314E+02 -0.24241918698E+01  0.36193699880E+01  0.13024496066E+02  0.51100000000E-03 0.  1.
        -12    1    4    4    0    0  0.56211426693E+01  0.24700313709E+01 -0.11840757828E+02  0.13337985074E+02  0.00000000000E+00 0.  1.
</event>
<event>
 8    1  0.2472977E-006  0.9118800E+02  0.7816164E-02  0.1184000E+00
        -11   -1    0    0    0    0  0.00000000000E+00  0.00000000000E+00  0.45593999997E+02  0.45594000000E+02  0.51100000000E-03 0.  1.
         11   -1    0    0    0    0 -0.00000000000E+00 -0.00000000000E+00 -0.45593999997E+02  0.45594000000E+02  0.51100000000E-03 0. -1.
         23    2    1    2    0    0  0.00000000000E+00  0.00000000000E+00  0.00000000000E+00  0.91188000000E+02  0.91188000000E+02 0.  0.
    9900012    2    3    3    0    0  0.10320531322E+02  0.32207988074E+02  0.14557216982E+02  0.54367076209E+02  0.39999981834E+02 0.  0.
         12    1    3    3    0    0 -0.10320531322E+02 -0.32207988074E+02 -0.14557216982E+02  0.36820923791E+02  0.00000000000E+00 0. -1.
         11    1    4    4    0    0 -0.31786836212E+01  0.16494892310E+02 -0.98686789513E+01  0.19482718660E+02  0.51100000000E-03 0. -1.
        -11    1    4    4    0    0  0.39413042215E+01 -0.16109437102E+01  0.13051295478E+01  0.44533562626E+01  0.51100000000E-03 0.  1.
        -12    1    4    4    0    0  0.95579107213E+01  0.17324039474E+02  0.23120766385E+02  0.30431001287E+02  0.00000000000E+00 0.  1.
</event>
<event>
 8    1  0.2472977E-006  0.9118800E+02  0.7816164E-02  0.1184000E+00
        -11   -1    0    0    0    0  0.00000000000E+00  0.00000000000E+00  0.45593999997E+02  0.45594000000E+02  0.51100000000E-03 0. -1.
         11   -1    0    0    0    0 -0.00000000000E+00 -0.00000000000E+00 -0.45593999997E+02  0.45594000000E+02  0.51100000000E-03 0.  1.
         23    2    1    2    0    0  0.00000000000E+00  0.17763568394E-14  0.00000000000E+00  0.91188000000E+02  0.91188000000E+02 0.  0.
    9900012    2    3    3    0    0 -0.13343867828E+02  0.12314359668E+02  0.32032445478E+02  0.54367084396E+02  0.40000000497E+02 0.  0.
        -12    1    3    3    0    0  0.13343867828E+02 -0.12314359668E+02 -0.32032445478E+02  0.36820915604E+02  0.00000000000E+00 0.  1.
         11    1    4    4    0    0 -0.14611706886E+02  0.10114165774E+02  0.46999911644E+01  0.18381736714E+02  0.51100000000E-03 0. -1.
        -11    1    4    4    0    0 -0.85855353929E+01 -0.34518714616E+00  0.23650376960E+02  0.25162887409E+02  0.51100000000E-03 0.  1.
        -12    1    4    4    0    0  0.98533744507E+01  0.25453810404E+01  0.36820773532E+01  0.10822460272E+02  0.00000000000E+00 0.  1.
</event>
<event>
 8    1  0.2472977E-006  0.9118800E+02  0.7816164E-02  0.1184000E+00
        -11   -1    0    0    0    0  0.00000000000E+00  0.00000000000E+00  0.45593999997E+02  0.45594000000E+02  0.51100000000E-03 0. -1.
         11   -1    0    0    0    0 -0.00000000000E+00 -0.00000000000E+00 -0.45593999997E+02  0.45594000000E+02  0.51100000000E-03 0.  1.
         23    2    1    2    0    0 -0.17763568394E-14  0.35527136788E-14 -0.35527136788E-14  0.91188000000E+02  0.91188000000E+02 0.  0.
    9900012    2    3    3    0    0  0.13228511294E+02 -0.28675242871E+02  0.18934514523E+02  0.54367096902E+02  0.40000029007E+02 0.  0.
        -12    1    3    3    0    0 -0.13228511294E+02  0.28675242871E+02 -0.18934514523E+02  0.36820903098E+02  0.00000000000E+00 0.  1.
         11    1    4    4    0    0  0.15723475323E+02 -0.44383266926E+01  0.85697152897E+01  0.18449022751E+02  0.51100000000E-03 0. -1.
        -11    1    4    4    0    0 -0.50359515389E+01 -0.11108005102E+02 -0.69523592896E+01  0.14038656816E+02  0.51100000000E-03 0.  1.
         12    1    4    4    0    0  0.25409875100E+01 -0.13128911076E+02  0.17317158523E+02  0.21879417334E+02  0.00000000000E+00 0. -1.
</event>
<event>
 8    1  0.2472977E-006  0.9118800E+02  0.7816164E-02  0.1184000E+00
        -11   -1    0    0    0    0  0.00000000000E+00  0.00000000000E+00  0.45593999997E+02  0.45594000000E+02  0.51100000000E-03 0. -1.
         11   -1    0    0    0    0 -0.00000000000E+00 -0.00000000000E+00 -0.45593999997E+02  0.45594000000E+02  0.51100000000E-03 0.  1.
         23    2    1    2    0    0  0.35527136788E-14  0.00000000000E+00 -0.17763568394E-14  0.91188000000E+02  0.91188000000E+02 0.  0.
    9900012    2    3    3    0    0  0.30038043366E+02 -0.16702026023E+02 -0.13211289953E+02  0.54367083325E+02  0.39999998056E+02 0.  0.
         12    1    3    3    0    0 -0.30038043366E+02  0.16702026023E+02  0.13211289953E+02  0.36820916675E+02  0.00000000000E+00 0. -1.
         11    1    4    4    0    0  0.21655988268E+02 -0.11467664407E+02  0.11800656000E+01  0.24533277602E+02  0.51100000000E-03 0. -1.
        -11    1    4    4    0    0  0.94752068490E+01 -0.51640340155E+01 -0.20746404771E+02  0.23385040161E+02  0.51100000000E-03 0.  1.
        -12    1    4    4    0    0 -0.10931517502E+01 -0.70327600855E-01  0.63550492175E+01  0.64487655623E+01  0.00000000000E+00 0.  1.
</event>
<event>
 8    1  0.2472977E-006  0.9118800E+02  0.7816164E-02  0.1184000E+00
        -11   -1    0    0    0    0  0.00000000000E+00  0.00000000000E+00  0.45593999997E+02  0.45594000000E+02  0.51100000000E-03 0.  1.
         11   -1    0    0    0    0 -0.00000000000E+00 -0.00000000000E+00 -0.45593999997E+02  0.45594000000E+02  0.51100000000E-03 0. -1.
         23    2    1    2    0    0  0.00000000000E+00 -0.35527136788E-14  0.00000000000E+00  0.91188000000E+02  0.91188000000E+02 0.  0.
    9900012    2    3    3    0    0  0.17372501195E+02 -0.17286769233E+02  0.27479992426E+02  0.54366998221E+02  0.39999804044E+02 0.  0.
         12    1    3    3    0    0 -0.17372501195E+02  0.17286769233E+02 -0.27479992426E+02  0.36821001779E+02  0.00000000000E+00 0. -1.
         11    1    4    4    0    0 -0.55692384112E+00  0.47123339759E+01  0.78371222902E-01  0.47457768568E+01  0.51100000000E-03 0. -1.
        -11    1    4    4    0    0 -0.36771329488E+01  0.34413149321E+01 -0.17235098103E+01  0.53230105685E+01  0.51100000000E-03 0.  1.
        -12    1    4    4    0    0  0.21606557985E+02 -0.25440418141E+02  0.29125131013E+02  0.44298210796E+02  0.00000000000E+00 0.  1.
</event>
<event>
 8    1  0.2472977E-006  0.9118800E+02  0.7816164E-02  0.1184000E+00
        -11   -1    0    0    0    0  0.00000000000E+00  0.00000000000E+00  0.45593999997E+02  0.45594000000E+02  0.51100000000E-03 0.  1.
         11   -1    0    0    0    0 -0.00000000000E+00 -0.00000000000E+00 -0.45593999997E+02  0.45594000000E+02  0.51100000000E-03 0. -1.
         23    2    1    2    0    0 -0.88817841970E-15  0.00000000000E+00  0.00000000000E+00  0.91188000000E+02  0.91188000000E+02 0.  0.
    9900012    2    3    3    0    0  0.57874412495E+01  0.14662399255E+02  0.33276104116E+02  0.54367088370E+02  0.40000009558E+02 0.  0.
         12    1    3    3    0    0 -0.57874412495E+01 -0.14662399255E+02 -0.33276104116E+02  0.36820911630E+02  0.00000000000E+00 0. -1.
         11    1    4    4    0    0  0.13680759970E+02  0.30537234006E+01  0.18361624687E+02  0.23100599157E+02  0.51100000000E-03 0. -1.
        -11    1    4    4    0    0  0.51512345411E+00  0.37722976635E+00  0.17061059041E+02  0.17073001796E+02  0.51100000000E-03 0.  1.
         12    1    4    4    0    0 -0.84084421749E+01  0.11231446088E+02 -0.21465796127E+01  0.14193487418E+02  0.00000000000E+00 0. -1.
</event>
<event>
 8    1  0.2472977E-006  0.9118800E+02  0.7816164E-02  0.1184000E+00
        -11   -1    0    0    0    0  0.00000000000E+00  0.00000000000E+00  0.45593999997E+02  0.45594000000E+02  0.51100000000E-03 0.  1.
         11   -1    0    0    0    0 -0.00000000000E+00 -0.00000000000E+00 -0.45593999997E+02  0.45594000000E+02  0.51100000000E-03 0. -1.
         23    2    1    2    0    0 -0.17763568394E-14  0.71054273576E-14  0.00000000000E+00  0.91188000000E+02  0.91188000000E+02 0.  0.
    9900012    2    3    3    0    0  0.83521296363E+01 -0.35492595807E+02  0.51281787189E+01  0.54367073293E+02  0.39999975185E+02 0.  0.
        -12    1    3    3    0    0 -0.83521296363E+01  0.35492595807E+02 -0.51281787189E+01  0.36820926707E+02  0.00000000000E+00 0.  1.
         11    1    4    4    0    0 -0.17366592169E+01 -0.13106746108E+02  0.70921230972E+01  0.15003365924E+02  0.51100000000E-03 0. -1.
        -11    1    4    4    0    0  0.13895147701E+01  0.15252619684E+00  0.11582143945E+02  0.11666193645E+02  0.51100000000E-03 0.  1.
        -12    1    4    4    0    0  0.86992740831E+01 -0.22538375897E+02 -0.13546088323E+02  0.27697513724E+02  0.00000000000E+00 0.  1.
</event>
<event>
 8    1  0.2472977E-006  0.9118800E+02  0.7816164E-02  0.1184000E+00
        -11   -1    0    0    0    0  0.00000000000E+00  0.00000000000E+00  0.45593999997E+02  0.45594000000E+02  0.51100000000E-03 0. -1.
         11   -1    0    0    0    0 -0.00000000000E+00 -0.00000000000E+00 -0.45593999997E+02  0.45594000000E+02  0.51100000000E-03 0.  1.
         23    2    1    2    0    0 -0.35527136788E-14  0.35527136788E-14  0.35527136788E-14  0.91188000000E+02  0.91188000000E+02 0.  0.
    9900012    2    3    3    0    0  0.19530204679E+02  0.19756528506E+02  0.24166627289E+02  0.54367147376E+02  0.40000144074E+02 0.  0.
        -12    1    3    3    0    0 -0.19530204679E+02 -0.19756528506E+02 -0.24166627289E+02  0.36820852624E+02  0.00000000000E+00 0.  1.
         11    1    4    4    0    0 -0.64260455706E+00  0.16476431880E+01 -0.72477308684E+01  0.74603801307E+01  0.51100000000E-03 0. -1.
        -11    1    4    4    0    0  0.12041787031E+02 -0.11076551478E+01  0.19310399379E+02  0.22784272191E+02  0.51100000000E-03 0.  1.
         12    1    4    4    0    0  0.81310222047E+01  0.19216540466E+02  0.12103958778E+02  0.24122495055E+02  0.00000000000E+00 0. -1.
</event>
<event>
 8    1  0.2472977E-006  0.9118800E+02  0.7816164E-02  0.1184000E+00
        -11   -1    0    0    0    0  0.00000000000E+00  0.00000000000E+00  0.45593999997E+02  0.45594000000E+02  0.51100000000E-03 0.  1.
         11   -1    0    0    0    0 -0.00000000000E+00 -0.00000000000E+00 -0.45593999997E+02  0.45594000000E+02  0.51100000000E-03 0. -1.
         23    2    1    2    0    0  0.00000000000E+00  0.00000000000E+00  0.00000000000E+00  0.91188000000E+02  0.91188000000E+02 0.  0.
    9900012    2    3    3    0    0  0.28827851858E+01  0.33598887165E+02 -0.14784357918E+02  0.54367178334E+02  0.40000214647E+02 0.  0.
        -12    1    3    3    0    0 -0.28827851858E+01 -0.33598887165E+02  0.14784357918E+02  0.36820821666E+02  0.00000000000E+00 0.  1.
         11    1    4    4    0    0 -0.76185746402E+01  0.43707006175E+01 -0.13973964892E+02  0.16505071902E+02  0.51100000000E-03 0. -1.
        -11    1    4    4    0    0  0.15982056140E+02  0.25732263650E+02  0.28094083958E+01  0.30421510264E+02  0.51100000000E-03 0.  1.
        -12    1    4    4    0    0 -0.54806963135E+01  0.34959228978E+01 -0.36198014212E+01  0.74405961668E+01  0.00000000000E+00 0.  1.
</event>
<event>
 8    1  0.2472977E-006  0.9118800E+02  0.7816164E-02  0.1184000E+00
        -11   -1    0    0    0    0  0.00000000000E+00  0.00000000000E+00  0.45593999997E+02  0.45594000000E+02  0.51100000000E-03 0. -1.
         11   -1    0    0    0    0 -0.00000000000E+00 -0.00000000000E+00 -0.45593999997E+02  0.45594000000E+02  0.51100000000E-03 0.  1.
         23    2    1    2    0    0  0.00000000000E+00  0.35527136788E-14  0.00000000000E+00  0.91188000000E+02  0.91188000000E+02 0.  0.
    9900012    2    3    3    0    0 -0.17948086574E+02 -0.22826416536E+02  0.22640685283E+02  0.54367085650E+02  0.40000003356E+02 0.  0.
        -12    1    3    3    0    0  0.17948086574E+02  0.22826416536E+02 -0.22640685283E+02  0.36820914350E+02  0.00000000000E+00 0.  1.
         11    1    4    4    0    0  0.10882261416E+02 -0.89418423811E+01  0.14564065827E+02  0.20260606417E+02  0.51100000000E-03 0. -1.
        -11    1    4    4    0    0 -0.57297258022E+01 -0.48765502468E+00  0.42031465892E+01  0.71227808266E+01  0.51100000000E-03 0.  1.
        -12    1    4    4    0    0 -0.23100622188E+02 -0.13396919130E+02  0.38734728664E+01  0.26983698406E+02  0.00000000000E+00 0.  1.
</event>
<event>
 8    1  0.2472977E-006  0.9118800E+02  0.7816164E-02  0.1184000E+00
        -11   -1    0    0    0    0  0.00000000000E+00  0.00000000000E+00  0.45593999997E+02  0.45594000000E+02  0.51100000000E-03 0. -1.
         11   -1    0    0    0    0 -0.00000000000E+00 -0.00000000000E+00 -0.45593999997E+02  0.45594000000E+02  0.51100000000E-03 0.  1.
         23    2    1    2    0    0  0.44408920985E-15  0.00000000000E+00 -0.71054273576E-14  0.91188000000E+02  0.91188000000E+02 0.  0.
    9900012    2    3    3    0    0  0.24087325801E+01  0.15366464502E+02 -0.33374391010E+02  0.54367079327E+02  0.39999988941E+02 0.  0.
         12    1    3    3    0    0 -0.24087325801E+01 -0.15366464502E+02  0.33374391010E+02  0.36820920673E+02  0.00000000000E+00 0. -1.
         11    1    4    4    0    0  0.43023651019E+01 -0.12137736025E+02 -0.12728682015E+02  0.18106748117E+02  0.51100000000E-03 0. -1.
        -11    1    4    4    0    0  0.18122883563E+01  0.20084266430E+02 -0.93017482169E+01  0.22207761419E+02  0.51100000000E-03 0.  1.
         12    1    4    4    0    0 -0.37059208782E+01  0.74199340973E+01 -0.11343960779E+02  0.14052569790E+02  0.00000000000E+00 0. -1.
</event>
<event>
 8    1  0.2472977E-006  0.9118800E+02  0.7816164E-02  0.1184000E+00
        -11   -1    0    0    0    0  0.00000000000E+00  0.00000000000E+00  0.45593999997E+02  0.45594000000E+02  0.51100000000E-03 0. -1.
         11   -1    0    0    0    0 -0.00000000000E+00 -0.00000000000E+00 -0.45593999997E+02  0.45594000000E+02  0.51100000000E-03 0.  1.
         23    2    1    2    0    0  0.00000000000E+00  0.35527136788E-14  0.35527136788E-14  0.91188000000E+02  0.91188000000E+02 0.  0.
    9900012    2    3    3    0    0  0.10010080380E+02  0.29983760845E+02  0.18882548458E+02  0.54367105662E+02  0.40000048977E+02 0.  0.
        -12    1    3    3    0    0 -0.10010080380E+02 -0.29983760845E+02 -0.18882548458E+02  0.36820894338E+02  0.00000000000E+00 0.  1.
         11    1    4    4    0    0  0.37052223746E+00  0.26509112544E+01  0.66742055510E+01  0.71909413296E+01  0.51100000000E-03 0. -1.
        -11    1    4    4    0    0 -0.10955158240E+02  0.15547951009E+01  0.85417586850E+01  0.13978359044E+02  0.51100000000E-03 0.  1.
         12    1    4    4    0    0  0.20594716382E+02  0.25778054489E+02  0.36665842221E+01  0.33197805288E+02  0.00000000000E+00 0. -1.
</event>
<event>
 8    1  0.2472977E-006  0.9118800E+02  0.7816164E-02  0.1184000E+00
        -11   -1    0    0    0    0  0.00000000000E+00  0.00000000000E+00  0.45593999997E+02  0.45594000000E+02  0.51100000000E-03 0. -1.
         11   -1    0    0    0    0 -0.00000000000E+00 -0.00000000000E+00 -0.45593999997E+02  0.45594000000E+02  0.51100000000E-03 0.  1.
         23    2    1    2    0    0  0.44408920985E-15  0.17763568394E-14 -0.71054273576E-14  0.91188000000E+02  0.91188000000E+02 0.  0.
    9900012    2    3    3    0    0 -0.74813323765E+00  0.10513550027E+02  0.35280103185E+02  0.54367080426E+02  0.39999991448E+02 0.  0.
        -12    1    3    3    0    0  0.74813323765E+00 -0.10513550027E+02 -0.35280103185E+02  0.36820919574E+02  0.00000000000E+00 0.  1.
         11    1    4    4    0    0 -0.14346228201E+01  0.22832981407E+00  0.38912567278E+01  0.41535715141E+01  0.51100000000E-03 0. -1.
        -11    1    4    4    0    0 -0.99401010340E+01 -0.51535166964E+01  0.29286117744E+02  0.31353485224E+02  0.51100000000E-03 0.  1.
         12    1    4    4    0    0  0.10626590617E+02  0.15438736909E+02  0.21027287130E+01  0.18860023688E+02  0.00000000000E+00 0. -1.
</event>
<event>
 8    1  0.2472977E-006  0.9118800E+02  0.7816164E-02  0.1184000E+00
        -11   -1    0    0    0    0  0.00000000000E+00  0.00000000000E+00  0.45593999997E+02  0.45594000000E+02  0.51100000000E-03 0. -1.
         11   -1    0    0    0    0 -0.00000000000E+00 -0.00000000000E+00 -0.45593999997E+02  0.45594000000E+02  0.51100000000E-03 0.  1.
         23    2    1    2    0    0  0.00000000000E+00 -0.35527136788E-14  0.13322676296E-14  0.91188000000E+02  0.91188000000E+02 0.  0.
    9900012    2    3    3    0    0  0.23434587840E+02 -0.28284631006E+02 -0.25650650042E+01  0.54367084520E+02  0.40000000779E+02 0.  0.
         12    1    3    3    0    0 -0.23434587840E+02  0.28284631006E+02  0.25650650042E+01  0.36820915480E+02  0.00000000000E+00 0. -1.
         11    1    4    4    0    0  0.33383825263E+01 -0.24840345492E+02 -0.12153873012E+02  0.27855056839E+02  0.51100000000E-03 0. -1.
        -11    1    4    4    0    0  0.10982204097E+02 -0.79259904103E+01  0.16960259341E+01  0.13649418854E+02  0.51100000000E-03 0.  1.
         12    1    4    4    0    0  0.91140012158E+01  0.44817048969E+01  0.78927820742E+01  0.12862608826E+02  0.00000000000E+00 0. -1.
</event>
<event>
 8    1  0.2472977E-006  0.9118800E+02  0.7816164E-02  0.1184000E+00
        -11   -1    0    0    0    0  0.00000000000E+00  0.00000000000E+00  0.45593999997E+02  0.45594000000E+02  0.51100000000E-03 0. -1.
         11   -1    0    0    0    0 -0.00000000000E+00 -0.00000000000E+00 -0.45593999997E+02  0.45594000000E+02  0.51100000000E-03 0.  1.
         23    2    1    2    0    0 -0.35527136788E-14  0.17763568394E-14  0.35527136788E-14  0.91188000000E+02  0.91188000000E+02 0.  0.
    9900012    2    3    3    0    0  0.24324127903E+02 -0.11567246579E+02 -0.25106077610E+02  0.54367088487E+02  0.40000009824E+02 0.  0.
         12    1    3    3    0    0 -0.24324127903E+02  0.11567246579E+02  0.25106077610E+02  0.36820911513E+02  0.00000000000E+00 0. -1.
         11    1    4    4    0    0 -0.11768053532E+01 -0.53584636609E+01  0.47031731745E+01  0.72261913769E+01  0.51100000000E-03 0. -1.
        -11    1    4    4    0    0  0.20914489682E+02 -0.15501977158E+02 -0.19532872316E+02  0.32546278983E+02  0.51100000000E-03 0.  1.
         12    1    4    4    0    0  0.45864435746E+01  0.92931942401E+01 -0.10276378469E+02  0.14594618127E+02  0.00000000000E+00 0. -1.
</event>
<event>
 8    1  0.2472977E-006  0.9118800E+02  0.7816164E-02  0.1184000E+00
        -11   -1    0    0    0    0  0.00000000000E+00  0.00000000000E+00  0.45593999997E+02  0.45594000000E+02  0.51100000000E-03 0.  1.
         11   -1    0    0    0    0 -0.00000000000E+00 -0.00000000000E+00 -0.45593999997E+02  0.45594000000E+02  0.51100000000E-03 0. -1.
         23    2    1    2    0    0  0.00000000000E+00  0.00000000000E+00  0.35527136788E-14  0.91188000000E+02  0.91188000000E+02 0.  0.
    9900012    2    3    3    0    0  0.67420724011E+01 -0.21565943351E+02 -0.29072910106E+02  0.54367088076E+02  0.40000008887E+02 0.  0.
        -12    1    3    3    0    0 -0.67420724011E+01  0.21565943351E+02  0.29072910106E+02  0.36820911924E+02  0.00000000000E+00 0.  1.
         11    1    4    4    0    0 -0.33433255199E+01 -0.18554867397E+02 -0.71955441580E+01  0.20180108663E+02  0.51100000000E-03 0. -1.
        -11    1    4    4    0    0 -0.42534255185E+01  0.33338940528E+01 -0.16889121053E+02  0.17732706742E+02  0.51100000000E-03 0.  1.
        -12    1    4    4    0    0  0.14338823439E+02 -0.63449700064E+01 -0.49882448951E+01  0.16454272671E+02  0.00000000000E+00 0.  1.
</event>
<event>
 8    1  0.2472977E-006  0.9118800E+02  0.7816164E-02  0.1184000E+00
        -11   -1    0    0    0    0  0.00000000000E+00  0.00000000000E+00  0.45593999997E+02  0.45594000000E+02  0.51100000000E-03 0.  1.
         11   -1    0    0    0    0 -0.00000000000E+00 -0.00000000000E+00 -0.45593999997E+02  0.45594000000E+02  0.51100000000E-03 0. -1.
         23    2    1    2    0    0  0.00000000000E+00  0.00000000000E+00  0.00000000000E+00  0.91188000000E+02  0.91188000000E+02 0.  0.
    9900012    2    3    3    0    0 -0.20946734804E+02  0.44166970105E+01  0.29958422498E+02  0.54367082168E+02  0.39999995419E+02 0.  0.
         12    1    3    3    0    0  0.20946734804E+02 -0.44166970105E+01 -0.29958422498E+02  0.36820917832E+02  0.00000000000E+00 0. -1.
         11    1    4    4    0    0  0.74914470562E+01 -0.59860071592E+01  0.87924542685E+01  0.13010046619E+02  0.51100000000E-03 0. -1.
        -11    1    4    4    0    0 -0.14059748122E+02 -0.45387914458E+01  0.81241687822E+01  0.16860583137E+02  0.51100000000E-03 0.  1.
        -12    1    4    4    0    0 -0.14378433738E+02  0.14941495615E+02  0.13041799447E+02  0.24496452412E+02  0.00000000000E+00 0.  1.
</event>
<event>
 8    1  0.2472977E-006  0.9118800E+02  0.7816164E-02  0.1184000E+00
        -11   -1    0    0    0    0  0.00000000000E+00  0.00000000000E+00  0.45593999997E+02  0.45594000000E+02  0.51100000000E-03 0. -1.
         11   -1    0    0    0    0 -0.00000000000E+00 -0.00000000000E+00 -0.45593999997E+02  0.45594000000E+02  0.51100000000E-03 0.  1.
         23    2    1    2    0    0  0.35527136788E-14  0.00000000000E+00 -0.88817841970E-15  0.91188000000E+02  0.91188000000E+02 0.  0.
    9900012    2    3    3    0    0 -0.31485580840E+02  0.17592813518E+02  0.74115531209E+01  0.54367081924E+02  0.39999994861E+02 0.  0.
        -12    1    3    3    0    0  0.31485580840E+02 -0.17592813518E+02 -0.74115531209E+01  0.36820918076E+02  0.00000000000E+00 0.  1.
         11    1    4    4    0    0 -0.23220711748E+02  0.11544638033E+02  0.12368033606E+02  0.28730617413E+02  0.51100000000E-03 0. -1.
        -11    1    4    4    0    0 -0.58534969052E+00  0.10005930524E+01 -0.13224192462E+02  0.13274904415E+02  0.51100000000E-03 0.  1.
        -12    1    4    4    0    0 -0.76795194013E+01  0.50475824326E+01  0.82677119768E+01  0.12361560095E+02  0.00000000000E+00 0.  1.
</event>
<event>
 8    1  0.2472977E-006  0.9118800E+02  0.7816164E-02  0.1184000E+00
        -11   -1    0    0    0    0  0.00000000000E+00  0.00000000000E+00  0.45593999997E+02  0.45594000000E+02  0.51100000000E-03 0.  1.
         11   -1    0    0    0    0 -0.00000000000E+00 -0.00000000000E+00 -0.45593999997E+02  0.45594000000E+02  0.51100000000E-03 0. -1.
         23    2    1    2    0    0  0.44408920985E-15 -0.35527136788E-14  0.00000000000E+00  0.91188000000E+02  0.91188000000E+02 0.  0.
    9900012    2    3    3    0    0  0.23871172212E+01 -0.28366205657E+02  0.23354678950E+02  0.54367068712E+02  0.39999964743E+02 0.  0.
         12    1    3    3    0    0 -0.23871172212E+01  0.28366205657E+02 -0.23354678950E+02  0.36820931288E+02  0.00000000000E+00 0. -1.
         11    1    4    4    0    0 -0.36023423737E+01  0.27823917844E+01  0.37623510148E+01  0.59054093879E+01  0.51100000000E-03 0. -1.
        -11    1    4    4    0    0 -0.29855819883E+01 -0.34487292538E+02  0.16858170675E+02  0.38503051375E+02  0.51100000000E-03 0.  1.
         12    1    4    4    0    0  0.89750415832E+01  0.33386950962E+01  0.27341572611E+01  0.99586079496E+01  0.00000000000E+00 0. -1.
</event>
<event>
 8    1  0.2472977E-006  0.9118800E+02  0.7816164E-02  0.1184000E+00
        -11   -1    0    0    0    0  0.00000000000E+00  0.00000000000E+00  0.45593999997E+02  0.45594000000E+02  0.51100000000E-03 0. -1.
         11   -1    0    0    0    0 -0.00000000000E+00 -0.00000000000E+00 -0.45593999997E+02  0.45594000000E+02  0.51100000000E-03 0.  1.
         23    2    1    2    0    0  0.35527136788E-14 -0.17763568394E-14  0.00000000000E+00  0.91188000000E+02  0.91188000000E+02 0.  0.
    9900012    2    3    3    0    0 -0.20598968371E+02  0.14874520896E+02 -0.26649776819E+02  0.54367089170E+02  0.40000011380E+02 0.  0.
         12    1    3    3    0    0  0.20598968371E+02 -0.14874520896E+02  0.26649776819E+02  0.36820910830E+02  0.00000000000E+00 0. -1.
         11    1    4    4    0    0 -0.20395569306E+02  0.44450644390E+01 -0.23861727627E+01  0.21010275246E+02  0.51100000000E-03 0. -1.
        -11    1    4    4    0    0  0.71590080569E+01  0.10154637284E+02 -0.62776551649E+01  0.13920381078E+02  0.51100000000E-03 0.  1.
         12    1    4    4    0    0 -0.73624071221E+01  0.27481917246E+00 -0.17985948892E+02  0.19436432845E+02  0.00000000000E+00 0. -1.
</event>
<event>
 8    1  0.2472977E-006  0.9118800E+02  0.7816164E-02  0.1184000E+00
        -11   -1    0    0    0    0  0.00000000000E+00  0.00000000000E+00  0.45593999997E+02  0.45594000000E+02  0.51100000000E-03 0. -1.
         11   -1    0    0    0    0 -0.00000000000E+00 -0.00000000000E+00 -0.45593999997E+02  0.45594000000E+02  0.51100000000E-03 0.  1.
         23    2    1    2    0    0  0.35527136788E-14  0.00000000000E+00  0.00000000000E+00  0.91188000000E+02  0.91188000000E+02 0.  0.
    9900012    2    3    3    0    0  0.21626650935E+02  0.24739397437E+02  0.16614147052E+02  0.54367086127E+02  0.40000004443E+02 0.  0.
        -12    1    3    3    0    0 -0.21626650935E+02 -0.24739397437E+02 -0.16614147052E+02  0.36820913873E+02  0.00000000000E+00 0.  1.
         11    1    4    4    0    0  0.80174887214E+01  0.40240355989E+00  0.49532529693E+01  0.94327498250E+01  0.51100000000E-03 0.  1.
        -11    1    4    4    0    0 -0.93585524132E+01 -0.61842167795E+00  0.37988666519E+01  0.10119107507E+02  0.51100000000E-03 0. -1.
         12    1    4    4    0    0  0.22967714627E+02  0.24955415555E+02  0.78620274304E+01  0.34815228795E+02  0.00000000000E+00 0. -1.
</event>
<event>
 8    1  0.2472977E-006  0.9118800E+02  0.7816164E-02  0.1184000E+00
        -11   -1    0    0    0    0  0.00000000000E+00  0.00000000000E+00  0.45593999997E+02  0.45594000000E+02  0.51100000000E-03 0.  1.
         11   -1    0    0    0    0 -0.00000000000E+00 -0.00000000000E+00 -0.45593999997E+02  0.45594000000E+02  0.51100000000E-03 0. -1.
         23    2    1    2    0    0  0.00000000000E+00 -0.44408920985E-15  0.00000000000E+00  0.91188000000E+02  0.91188000000E+02 0.  0.
    9900012    2    3    3    0    0 -0.35389490022E+02 -0.25101737125E+01  0.98529013998E+01  0.54366856046E+02  0.39999479926E+02 0.  0.
         12    1    3    3    0    0  0.35389490022E+02  0.25101737125E+01 -0.98529013998E+01  0.36821143954E+02  0.00000000000E+00 0. -1.
         11    1    4    4    0    0 -0.10965330702E+02  0.65326774504E+01 -0.72718628651E+01  0.14689940159E+02  0.51100000000E-03 0. -1.
        -11    1    4    4    0    0 -0.11102418887E+02 -0.15340348138E+02  0.28291440766E+01  0.19146645727E+02  0.51100000000E-03 0.  1.
        -12    1    4    4    0    0 -0.13321740432E+02  0.62974969750E+01  0.14295620188E+02  0.20530270160E+02  0.00000000000E+00 0.  1.
</event>
<event>
 8    1  0.2472977E-006  0.9118800E+02  0.7816164E-02  0.1184000E+00
        -11   -1    0    0    0    0  0.00000000000E+00  0.00000000000E+00  0.45593999997E+02  0.45594000000E+02  0.51100000000E-03 0.  1.
         11   -1    0    0    0    0 -0.00000000000E+00 -0.00000000000E+00 -0.45593999997E+02  0.45594000000E+02  0.51100000000E-03 0. -1.
         23    2    1    2    0    0 -0.71054273576E-14  0.00000000000E+00  0.00000000000E+00  0.91188000000E+02  0.91188000000E+02 0.  0.
    9900012    2    3    3    0    0  0.35079296709E+02  0.32746089180E+01 -0.10700469782E+02  0.54367079659E+02  0.39999989699E+02 0.  0.
        -12    1    3    3    0    0 -0.35079296709E+02 -0.32746089180E+01  0.10700469782E+02  0.36820920341E+02  0.00000000000E+00 0.  1.
         11    1    4    4    0    0  0.39677465440E+01  0.31055645426E+01 -0.15364418517E+02  0.16169505261E+02  0.51100000000E-03 0. -1.
        -11    1    4    4    0    0  0.21818707009E+00  0.52937889571E+01 -0.28173797179E+01  0.60007862698E+01  0.51100000000E-03 0.  1.
        -12    1    4    4    0    0  0.30893363095E+02 -0.51247445817E+01  0.74813284524E+01  0.32196788128E+02  0.00000000000E+00 0.  1.
</event>
<event>
 8    1  0.2472977E-006  0.9118800E+02  0.7816164E-02  0.1184000E+00
        -11   -1    0    0    0    0  0.00000000000E+00  0.00000000000E+00  0.45593999997E+02  0.45594000000E+02  0.51100000000E-03 0. -1.
         11   -1    0    0    0    0 -0.00000000000E+00 -0.00000000000E+00 -0.45593999997E+02  0.45594000000E+02  0.51100000000E-03 0.  1.
         23    2    1    2    0    0  0.17763568394E-14 -0.35527136788E-14  0.00000000000E+00  0.91188000000E+02  0.91188000000E+02 0.  0.
    9900012    2    3    3    0    0  0.55578171476E+01 -0.24352876221E+02  0.27052291662E+02  0.54367103816E+02  0.40000044769E+02 0.  0.
        -12    1    3    3    0    0 -0.55578171476E+01  0.24352876221E+02 -0.27052291662E+02  0.36820896184E+02  0.00000000000E+00 0.  1.
         11    1    4    4    0    0 -0.47822383622E+01 -0.82859908820E+01  0.97487633661E+01  0.13658910501E+02  0.51100000000E-03 0. -1.
        -11    1    4    4    0    0 -0.92048739761E+01  0.26289188321E+00  0.11234274085E+02  0.14526105174E+02  0.51100000000E-03 0.  1.
         12    1    4    4    0    0  0.19544929486E+02 -0.16329777222E+02  0.60692542108E+01  0.26182088141E+02  0.00000000000E+00 0. -1.
</event>
<event>
 8    1  0.2472977E-006  0.9118800E+02  0.7816164E-02  0.1184000E+00
        -11   -1    0    0    0    0  0.00000000000E+00  0.00000000000E+00  0.45593999997E+02  0.45594000000E+02  0.51100000000E-03 0. -1.
         11   -1    0    0    0    0 -0.00000000000E+00 -0.00000000000E+00 -0.45593999997E+02  0.45594000000E+02  0.51100000000E-03 0.  1.
         23    2    1    2    0    0 -0.35527136788E-14 -0.71054273576E-14 -0.88817841970E-15  0.91188000000E+02  0.91188000000E+02 0.  0.
    9900012    2    3    3    0    0  0.12218257264E+02  0.34393194966E+02  0.48581525440E+01  0.54367091311E+02  0.40000016262E+02 0.  0.
        -12    1    3    3    0    0 -0.12218257264E+02 -0.34393194966E+02 -0.48581525440E+01  0.36820908689E+02  0.00000000000E+00 0.  1.
         11    1    4    4    0    0  0.17171621226E+01 -0.43158330781E+00  0.81678376532E+00  0.19498835573E+01  0.51100000000E-03 0. -1.
        -11    1    4    4    0    0  0.89250500047E+01 -0.19741542031E+01 -0.94912975897E+01  0.13177197449E+02  0.51100000000E-03 0.  1.
         12    1    4    4    0    0  0.15760451368E+01  0.36798932477E+02  0.13532666368E+02  0.39240010305E+02  0.00000000000E+00 0. -1.
</event>
<event>
 8    1  0.2472977E-006  0.9118800E+02  0.7816164E-02  0.1184000E+00
        -11   -1    0    0    0    0  0.00000000000E+00  0.00000000000E+00  0.45593999997E+02  0.45594000000E+02  0.51100000000E-03 0.  1.
         11   -1    0    0    0    0 -0.00000000000E+00 -0.00000000000E+00 -0.45593999997E+02  0.45594000000E+02  0.51100000000E-03 0. -1.
         23    2    1    2    0    0  0.00000000000E+00  0.00000000000E+00  0.00000000000E+00  0.91188000000E+02  0.91188000000E+02 0.  0.
    9900012    2    3    3    0    0  0.24818247125E+02 -0.17979511415E+02  0.20410083115E+02  0.54367085918E+02  0.40000003967E+02 0.  0.
         12    1    3    3    0    0 -0.24818247125E+02  0.17979511415E+02 -0.20410083115E+02  0.36820914082E+02  0.00000000000E+00 0. -1.
         11    1    4    4    0    0 -0.10827953232E+01  0.19345856442E+01 -0.30734073086E+01  0.37895778225E+01  0.51100000000E-03 0. -1.
        -11    1    4    4    0    0  0.23924577548E+02 -0.27447928920E+02  0.15983846363E+02  0.39765029330E+02  0.51100000000E-03 0.  1.
        -12    1    4    4    0    0  0.19764649001E+01  0.75338318604E+01  0.74996440609E+01  0.10812478765E+02  0.00000000000E+00 0.  1.
</event>
<event>
 8    1  0.2472977E-006  0.9118800E+02  0.7816164E-02  0.1184000E+00
        -11   -1    0    0    0    0  0.00000000000E+00  0.00000000000E+00  0.45593999997E+02  0.45594000000E+02  0.51100000000E-03 0. -1.
         11   -1    0    0    0    0 -0.00000000000E+00 -0.00000000000E+00 -0.45593999997E+02  0.45594000000E+02  0.51100000000E-03 0.  1.
         23    2    1    2    0    0  0.00000000000E+00  0.00000000000E+00  0.00000000000E+00  0.91188000000E+02  0.91188000000E+02 0.  0.
    9900012    2    3    3    0    0 -0.17073815599E+02 -0.23923928929E+02  0.22179062431E+02  0.54367077078E+02  0.39999983815E+02 0.  0.
        -12    1    3    3    0    0  0.17073815599E+02  0.23923928929E+02 -0.22179062431E+02  0.36820922922E+02  0.00000000000E+00 0.  1.
         11    1    4    4    0    0 -0.16226549412E+02 -0.86149138071E+01 -0.15242491370E+00  0.18372285632E+02  0.51100000000E-03 0. -1.
        -11    1    4    4    0    0  0.10536550327E+02 -0.40986134116E+01  0.48206495656E+01  0.12290491739E+02  0.51100000000E-03 0.  1.
         12    1    4    4    0    0 -0.11383816514E+02 -0.11210401710E+02  0.17510837779E+02  0.23704299708E+02  0.00000000000E+00 0. -1.
</event>
<event>
 8    1  0.2472977E-006  0.9118800E+02  0.7816164E-02  0.1184000E+00
        -11   -1    0    0    0    0  0.00000000000E+00  0.00000000000E+00  0.45593999997E+02  0.45594000000E+02  0.51100000000E-03 0.  1.
         11   -1    0    0    0    0 -0.00000000000E+00 -0.00000000000E+00 -0.45593999997E+02  0.45594000000E+02  0.51100000000E-03 0. -1.
         23    2    1    2    0    0  0.00000000000E+00  0.71054273576E-14 -0.88817841970E-15  0.91188000000E+02  0.91188000000E+02 0.  0.
    9900012    2    3    3    0    0  0.10289597754E+02 -0.34780309342E+02  0.63430047487E+01  0.54367089513E+02  0.40000012162E+02 0.  0.
        -12    1    3    3    0    0 -0.10289597754E+02  0.34780309342E+02 -0.63430047487E+01  0.36820910487E+02  0.00000000000E+00 0.  1.
         11    1    4    4    0    0  0.21986333371E+01 -0.16910711943E+02  0.17180392271E+02  0.24206859479E+02  0.51100000000E-03 0. -1.
        -11    1    4    4    0    0  0.93281054225E+00  0.45326939651E+01 -0.17553902560E+01  0.49494287854E+01  0.51100000000E-03 0.  1.
         12    1    4    4    0    0  0.71581538744E+01 -0.22402291364E+02 -0.90819972665E+01  0.25210801249E+02  0.00000000000E+00 0. -1.
</event>
<event>
 8    1  0.2472977E-006  0.9118800E+02  0.7816164E-02  0.1184000E+00
        -11   -1    0    0    0    0  0.00000000000E+00  0.00000000000E+00  0.45593999997E+02  0.45594000000E+02  0.51100000000E-03 0.  1.
         11   -1    0    0    0    0 -0.00000000000E+00 -0.00000000000E+00 -0.45593999997E+02  0.45594000000E+02  0.51100000000E-03 0. -1.
         23    2    1    2    0    0 -0.35527136788E-14  0.35527136788E-14  0.88817841970E-15  0.91188000000E+02  0.91188000000E+02 0.  0.
    9900012    2    3    3    0    0  0.29953217473E+02 -0.20442654791E+02 -0.63783657371E+01  0.54367069521E+02  0.39999966587E+02 0.  0.
        -12    1    3    3    0    0 -0.29953217473E+02  0.20442654791E+02  0.63783657371E+01  0.36820930479E+02  0.00000000000E+00 0.  1.
         11    1    4    4    0    0 -0.69930540511E+01 -0.33723515469E+01  0.20545075794E+01  0.80309751321E+01  0.51100000000E-03 0. -1.
        -11    1    4    4    0    0  0.31695691867E+02 -0.13106209128E+02 -0.14638888101E+02  0.37291911264E+02  0.51100000000E-03 0.  1.
         12    1    4    4    0    0  0.52505796569E+01 -0.39640941159E+01  0.62060147843E+01  0.90441831249E+01  0.00000000000E+00 0. -1.
</event>
<event>
 8    1  0.2472977E-006  0.9118800E+02  0.7816164E-02  0.1184000E+00
        -11   -1    0    0    0    0  0.00000000000E+00  0.00000000000E+00  0.45593999997E+02  0.45594000000E+02  0.51100000000E-03 0. -1.
         11   -1    0    0    0    0 -0.00000000000E+00 -0.00000000000E+00 -0.45593999997E+02  0.45594000000E+02  0.51100000000E-03 0.  1.
         23    2    1    2    0    0 -0.71054273576E-14  0.00000000000E+00  0.00000000000E+00  0.91188000000E+02  0.91188000000E+02 0.  0.
    9900012    2    3    3    0    0 -0.17778979608E+02  0.16506077587E+02 -0.27699044534E+02  0.54367085002E+02  0.40000001878E+02 0.  0.
         12    1    3    3    0    0  0.17778979608E+02 -0.16506077587E+02  0.27699044534E+02  0.36820914998E+02  0.00000000000E+00 0. -1.
         11    1    4    4    0    0  0.30879139649E+01 -0.97442538259E+01 -0.63320100108E+01  0.12024144307E+02  0.51100000000E-03 0. -1.
        -11    1    4    4    0    0 -0.11011144969E+00  0.41376674613E+01 -0.83887038128E+01  0.93542914468E+01  0.51100000000E-03 0.  1.
         12    1    4    4    0    0 -0.20756782123E+02  0.22112663952E+02 -0.12978330711E+02  0.32988649248E+02  0.00000000000E+00 0. -1.
</event>
<event>
 8    1  0.2472977E-006  0.9118800E+02  0.7816164E-02  0.1184000E+00
        -11   -1    0    0    0    0  0.00000000000E+00  0.00000000000E+00  0.45593999997E+02  0.45594000000E+02  0.51100000000E-03 0. -1.
         11   -1    0    0    0    0 -0.00000000000E+00 -0.00000000000E+00 -0.45593999997E+02  0.45594000000E+02  0.51100000000E-03 0.  1.
         23    2    1    2    0    0  0.00000000000E+00  0.00000000000E+00  0.00000000000E+00  0.91188000000E+02  0.91188000000E+02 0.  0.
    9900012    2    3    3    0    0 -0.12337384285E+02 -0.21943691855E+02 -0.26870850726E+02  0.54367091783E+02  0.40000017337E+02 0.  0.
         12    1    3    3    0    0  0.12337384285E+02  0.21943691855E+02  0.26870850726E+02  0.36820908217E+02  0.00000000000E+00 0. -1.
         11    1    4    4    0    0  0.52229876800E+01  0.85836321176E+01 -0.64938136571E+01  0.11963609686E+02  0.51100000000E-03 0. -1.
        -11    1    4    4    0    0 -0.15904491743E+02 -0.17698384059E+02 -0.99599988120E+01  0.25795100940E+02  0.51100000000E-03 0.  1.
        -12    1    4    4    0    0 -0.16558802218E+01 -0.12828939914E+02 -0.10417038256E+02  0.16608381157E+02  0.00000000000E+00 0.  1.
</event>
<event>
 8    1  0.2472977E-006  0.9118800E+02  0.7816164E-02  0.1184000E+00
        -11   -1    0    0    0    0  0.00000000000E+00  0.00000000000E+00  0.45593999997E+02  0.45594000000E+02  0.51100000000E-03 0. -1.
         11   -1    0    0    0    0 -0.00000000000E+00 -0.00000000000E+00 -0.45593999997E+02  0.45594000000E+02  0.51100000000E-03 0.  1.
         23    2    1    2    0    0  0.00000000000E+00  0.00000000000E+00 -0.35527136788E-14  0.91188000000E+02  0.91188000000E+02 0.  0.
    9900012    2    3    3    0    0 -0.18903508477E+02  0.24708225105E+02 -0.19696292355E+02  0.54367041931E+02  0.39999903691E+02 0.  0.
         12    1    3    3    0    0  0.18903508477E+02 -0.24708225105E+02  0.19696292355E+02  0.36820958069E+02  0.00000000000E+00 0. -1.
         11    1    4    4    0    0  0.59764437581E+01  0.35574595616E+01  0.61444650680E+01  0.92805091325E+01  0.51100000000E-03 0. -1.
        -11    1    4    4    0    0 -0.88893007069E+01  0.13405815019E+02 -0.33603825973E+01  0.16432520040E+02  0.51100000000E-03 0.  1.
        -12    1    4    4    0    0 -0.15990651528E+02  0.77449505242E+01 -0.22480374826E+02  0.28654012759E+02  0.00000000000E+00 0.  1.
</event>
<event>
 8    1  0.2472977E-006  0.9118800E+02  0.7816164E-02  0.1184000E+00
        -11   -1    0    0    0    0  0.00000000000E+00  0.00000000000E+00  0.45593999997E+02  0.45594000000E+02  0.51100000000E-03 0.  1.
         11   -1    0    0    0    0 -0.00000000000E+00 -0.00000000000E+00 -0.45593999997E+02  0.45594000000E+02  0.51100000000E-03 0. -1.
         23    2    1    2    0    0 -0.17763568394E-14 -0.35527136788E-14  0.00000000000E+00  0.91188000000E+02  0.91188000000E+02 0.  0.
    9900012    2    3    3    0    0  0.13511409951E+02  0.28667148605E+02 -0.18746067912E+02  0.54367100090E+02  0.40000036275E+02 0.  0.
        -12    1    3    3    0    0 -0.13511409951E+02 -0.28667148605E+02  0.18746067912E+02  0.36820899910E+02  0.00000000000E+00 0.  1.
         11    1    4    4    0    0  0.19771083538E+01 -0.38046251835E+01  0.56147146090E+01  0.70646408706E+01  0.51100000000E-03 0. -1.
        -11    1    4    4    0    0  0.53953719719E+01  0.71182373576E+01  0.30733500241E+01  0.94458891813E+01  0.51100000000E-03 0.  1.
         12    1    4    4    0    0  0.61389296255E+01  0.25353536431E+02 -0.27434132545E+02  0.37856570038E+02  0.00000000000E+00 0. -1.
</event>
<event>
 8    1  0.2472977E-006  0.9118800E+02  0.7816164E-02  0.1184000E+00
        -11   -1    0    0    0    0  0.00000000000E+00  0.00000000000E+00  0.45593999997E+02  0.45594000000E+02  0.51100000000E-03 0.  1.
         11   -1    0    0    0    0 -0.00000000000E+00 -0.00000000000E+00 -0.45593999997E+02  0.45594000000E+02  0.51100000000E-03 0. -1.
         23    2    1    2    0    0 -0.88817841970E-15  0.00000000000E+00 -0.35527136788E-14  0.91188000000E+02  0.91188000000E+02 0.  0.
    9900012    2    3    3    0    0  0.49635156140E+01 -0.30198946622E+02  0.20473551453E+02  0.54367093257E+02  0.40000020698E+02 0.  0.
         12    1    3    3    0    0 -0.49635156140E+01  0.30198946622E+02 -0.20473551453E+02  0.36820906743E+02  0.00000000000E+00 0. -1.
         11    1    4    4    0    0  0.17540788878E+02 -0.86905867032E+01  0.21767282853E+02  0.29274906913E+02  0.51100000000E-03 0. -1.
        -11    1    4    4    0    0 -0.11619253608E+01 -0.38903025974E+01 -0.12666404964E-01  0.40601336853E+01  0.51100000000E-03 0.  1.
         12    1    4    4    0    0 -0.11415347903E+02 -0.17618057321E+02 -0.12810649951E+01  0.21032052659E+02  0.00000000000E+00 0. -1.
</event>
<event>
 8    1  0.2472977E-006  0.9118800E+02  0.7816164E-02  0.1184000E+00
        -11   -1    0    0    0    0  0.00000000000E+00  0.00000000000E+00  0.45593999997E+02  0.45594000000E+02  0.51100000000E-03 0. -1.
         11   -1    0    0    0    0 -0.00000000000E+00 -0.00000000000E+00 -0.45593999997E+02  0.45594000000E+02  0.51100000000E-03 0.  1.
         23    2    1    2    0    0  0.35527136788E-14  0.00000000000E+00  0.00000000000E+00  0.91188000000E+02  0.91188000000E+02 0.  0.
    9900012    2    3    3    0    0  0.26419061386E+02 -0.19552185915E+02  0.16598806910E+02  0.54367147628E+02  0.40000144647E+02 0.  0.
        -12    1    3    3    0    0 -0.26419061386E+02  0.19552185915E+02 -0.16598806910E+02  0.36820852372E+02  0.00000000000E+00 0.  1.
         11    1    4    4    0    0  0.18807332289E+01 -0.59616264373E+01  0.13506486742E+02  0.14882987994E+02  0.51100000000E-03 0. -1.
        -11    1    4    4    0    0  0.11145668284E+02 -0.18070376784E+02 -0.67411925695E+01  0.22275729306E+02  0.51100000000E-03 0.  1.
         12    1    4    4    0    0  0.13392659873E+02  0.44798173061E+01  0.98335127371E+01  0.17208430327E+02  0.00000000000E+00 0. -1.
</event>
<event>
 8    1  0.2472977E-006  0.9118800E+02  0.7816164E-02  0.1184000E+00
        -11   -1    0    0    0    0  0.00000000000E+00  0.00000000000E+00  0.45593999997E+02  0.45594000000E+02  0.51100000000E-03 0. -1.
         11   -1    0    0    0    0 -0.00000000000E+00 -0.00000000000E+00 -0.45593999997E+02  0.45594000000E+02  0.51100000000E-03 0.  1.
         23    2    1    2    0    0  0.88817841970E-15  0.00000000000E+00  0.35527136788E-14  0.91188000000E+02  0.91188000000E+02 0.  0.
    9900012    2    3    3    0    0 -0.56958742030E+01 -0.27429984101E+02  0.23894253483E+02  0.54367049982E+02  0.39999922043E+02 0.  0.
        -12    1    3    3    0    0  0.56958742030E+01  0.27429984101E+02 -0.23894253483E+02  0.36820950018E+02  0.00000000000E+00 0.  1.
         11    1    4    4    0    0  0.12419376372E+01 -0.12317591398E+02  0.91535644524E+01  0.15396532382E+02  0.51100000000E-03 0. -1.
        -11    1    4    4    0    0 -0.13014393063E+02 -0.22738616523E+02  0.92803477467E+01  0.27794675079E+02  0.51100000000E-03 0.  1.
        -12    1    4    4    0    0  0.60765812226E+01  0.76262238199E+01  0.54603412841E+01  0.11175842521E+02  0.00000000000E+00 0.  1.
</event>
<event>
 8    1  0.2472977E-006  0.9118800E+02  0.7816164E-02  0.1184000E+00
        -11   -1    0    0    0    0  0.00000000000E+00  0.00000000000E+00  0.45593999997E+02  0.45594000000E+02  0.51100000000E-03 0.  1.
         11   -1    0    0    0    0 -0.00000000000E+00 -0.00000000000E+00 -0.45593999997E+02  0.45594000000E+02  0.51100000000E-03 0. -1.
         23    2    1    2    0    0  0.88817841970E-15  0.00000000000E+00 -0.35527136788E-14  0.91188000000E+02  0.91188000000E+02 0.  0.
    9900012    2    3    3    0    0 -0.63029564055E+01  0.17957002901E+02  0.31521405270E+02  0.54367079278E+02  0.39999988830E+02 0.  0.
         12    1    3    3    0    0  0.63029564055E+01 -0.17957002901E+02 -0.31521405270E+02  0.36820920722E+02  0.00000000000E+00 0. -1.
         11    1    4    4    0    0 -0.13706578862E+02  0.12293355401E+02  0.15464759500E+02  0.24044868013E+02  0.51100000000E-03 0. -1.
        -11    1    4    4    0    0 -0.77638522606E+01 -0.25154275866E+01  0.29728250345E+01  0.86857623048E+01  0.51100000000E-03 0.  1.
         12    1    4    4    0    0  0.15167474717E+02  0.81790750870E+01  0.13083820735E+02  0.21636448960E+02  0.00000000000E+00 0. -1.
</event>
<event>
 8    1  0.2472977E-006  0.9118800E+02  0.7816164E-02  0.1184000E+00
        -11   -1    0    0    0    0  0.00000000000E+00  0.00000000000E+00  0.45593999997E+02  0.45594000000E+02  0.51100000000E-03 0. -1.
         11   -1    0    0    0    0 -0.00000000000E+00 -0.00000000000E+00 -0.45593999997E+02  0.45594000000E+02  0.51100000000E-03 0.  1.
         23    2    1    2    0    0 -0.17763568394E-14  0.00000000000E+00  0.00000000000E+00  0.91188000000E+02  0.91188000000E+02 0.  0.
    9900012    2    3    3    0    0  0.10334591730E+02 -0.28887609049E+01  0.35222668776E+02  0.54367012486E+02  0.39999836563E+02 0.  0.
        -12    1    3    3    0    0 -0.10334591730E+02  0.28887609049E+01 -0.35222668776E+02  0.36820987514E+02  0.00000000000E+00 0.  1.
         11    1    4    4    0    0  0.16371705927E+02 -0.83354399835E+00  0.34357106825E+02  0.38067549701E+02  0.51100000000E-03 0. -1.
        -11    1    4    4    0    0  0.21689402292E+00 -0.27020750204E+01 -0.62449224805E+01  0.68078858305E+01  0.51100000000E-03 0.  1.
         12    1    4    4    0    0 -0.62540082197E+01  0.64685811393E+00  0.71104844317E+01  0.94915769546E+01  0.00000000000E+00 0. -1.
</event>
<event>
 8    1  0.2472977E-006  0.9118800E+02  0.7816164E-02  0.1184000E+00
        -11   -1    0    0    0    0  0.00000000000E+00  0.00000000000E+00  0.45593999997E+02  0.45594000000E+02  0.51100000000E-03 0.  1.
         11   -1    0    0    0    0 -0.00000000000E+00 -0.00000000000E+00 -0.45593999997E+02  0.45594000000E+02  0.51100000000E-03 0. -1.
         23    2    1    2    0    0  0.00000000000E+00  0.71054273576E-14  0.35527136788E-14  0.91188000000E+02  0.91188000000E+02 0.  0.
    9900012    2    3    3    0    0 -0.35342343276E+01  0.32189821311E+02  0.17524383276E+02  0.54367089941E+02  0.40000013139E+02 0.  0.
         12    1    3    3    0    0  0.35342343276E+01 -0.32189821311E+02 -0.17524383276E+02  0.36820910059E+02  0.00000000000E+00 0. -1.
         11    1    4    4    0    0  0.29090432746E+01  0.11842055129E+02 -0.98901852696E+01  0.15700718690E+02  0.51100000000E-03 0. -1.
        -11    1    4    4    0    0 -0.55591478536E+00  0.20872272057E+02  0.18089791520E+02  0.27626098884E+02  0.51100000000E-03 0.  1.
         12    1    4    4    0    0 -0.58873628168E+01 -0.52450587474E+00  0.93247770262E+01  0.11040272367E+02  0.00000000000E+00 0. -1.
</event>
<event>
 8    1  0.2472977E-006  0.9118800E+02  0.7816164E-02  0.1184000E+00
        -11   -1    0    0    0    0  0.00000000000E+00  0.00000000000E+00  0.45593999997E+02  0.45594000000E+02  0.51100000000E-03 0.  1.
         11   -1    0    0    0    0 -0.00000000000E+00 -0.00000000000E+00 -0.45593999997E+02  0.45594000000E+02  0.51100000000E-03 0. -1.
         23    2    1    2    0    0 -0.88817841970E-15 -0.88817841970E-15  0.71054273576E-14  0.91188000000E+02  0.91188000000E+02 0.  0.
    9900012    2    3    3    0    0  0.25267903438E+01  0.59840348987E+01 -0.36243417958E+02  0.54367099843E+02  0.40000035712E+02 0.  0.
        -12    1    3    3    0    0 -0.25267903438E+01 -0.59840348987E+01  0.36243417958E+02  0.36820900157E+02  0.00000000000E+00 0.  1.
         11    1    4    4    0    0  0.13746114547E+01 -0.22976128840E+01 -0.17973452012E+02  0.18171779195E+02  0.51100000000E-03 0. -1.
        -11    1    4    4    0    0  0.88528443063E+01  0.90293427142E+01 -0.23617874891E+02  0.26790033535E+02  0.51100000000E-03 0.  1.
        -12    1    4    4    0    0 -0.77006654172E+01 -0.74769493154E+00  0.53479089461E+01  0.94052871128E+01  0.00000000000E+00 0.  1.
</event>
<event>
 8    1  0.2472977E-006  0.9118800E+02  0.7816164E-02  0.1184000E+00
        -11   -1    0    0    0    0  0.00000000000E+00  0.00000000000E+00  0.45593999997E+02  0.45594000000E+02  0.51100000000E-03 0.  1.
         11   -1    0    0    0    0 -0.00000000000E+00 -0.00000000000E+00 -0.45593999997E+02  0.45594000000E+02  0.51100000000E-03 0. -1.
         23    2    1    2    0    0 -0.44408920985E-15 -0.35527136788E-14  0.00000000000E+00  0.91188000000E+02  0.91188000000E+02 0.  0.
    9900012    2    3    3    0    0  0.35142099818E+01 -0.20257753485E+02 -0.30545948341E+02  0.54367065627E+02  0.39999957710E+02 0.  0.
        -12    1    3    3    0    0 -0.35142099818E+01  0.20257753485E+02  0.30545948341E+02  0.36820934373E+02  0.00000000000E+00 0.  1.
         11    1    4    4    0    0  0.28735908491E+00 -0.17561659187E+02 -0.22276505858E+02  0.28367889632E+02  0.51100000000E-03 0. -1.
        -11    1    4    4    0    0  0.74438507020E+01 -0.12053637230E+02 -0.64879332104E+01  0.15581860009E+02  0.51100000000E-03 0.  1.
        -12    1    4    4    0    0 -0.42169998051E+01  0.93575429317E+01 -0.17815092718E+01  0.10417315986E+02  0.00000000000E+00 0.  1.
</event>
<event>
 8    1  0.2472977E-006  0.9118800E+02  0.7816164E-02  0.1184000E+00
        -11   -1    0    0    0    0  0.00000000000E+00  0.00000000000E+00  0.45593999997E+02  0.45594000000E+02  0.51100000000E-03 0.  1.
         11   -1    0    0    0    0 -0.00000000000E+00 -0.00000000000E+00 -0.45593999997E+02  0.45594000000E+02  0.51100000000E-03 0. -1.
         23    2    1    2    0    0  0.35527136788E-14 -0.17763568394E-14 -0.35527136788E-14  0.91188000000E+02  0.91188000000E+02 0.  0.
    9900012    2    3    3    0    0 -0.16709780279E+02 -0.92049885505E+01  0.31493356926E+02  0.54367080652E+02  0.39999991961E+02 0.  0.
         12    1    3    3    0    0  0.16709780279E+02  0.92049885505E+01 -0.31493356926E+02  0.36820919348E+02  0.00000000000E+00 0. -1.
         11    1    4    4    0    0 -0.10447685717E+02  0.26614502028E+01  0.45694164239E+01  0.11709697722E+02  0.51100000000E-03 0. -1.
        -11    1    4    4    0    0 -0.14614632040E+02  0.15577953201E+01  0.21295262196E+02  0.25874744214E+02  0.51100000000E-03 0.  1.
        -12    1    4    4    0    0  0.83525374776E+01 -0.13424234073E+02  0.56286783065E+01  0.16782638715E+02  0.00000000000E+00 0.  1.
</event>
<event>
 8    1  0.2472977E-006  0.9118800E+02  0.7816164E-02  0.1184000E+00
        -11   -1    0    0    0    0  0.00000000000E+00  0.00000000000E+00  0.45593999997E+02  0.45594000000E+02  0.51100000000E-03 0. -1.
         11   -1    0    0    0    0 -0.00000000000E+00 -0.00000000000E+00 -0.45593999997E+02  0.45594000000E+02  0.51100000000E-03 0.  1.
         23    2    1    2    0    0  0.00000000000E+00  0.00000000000E+00  0.00000000000E+00  0.91188000000E+02  0.91188000000E+02 0.  0.
    9900012    2    3    3    0    0  0.13338645297E+02 -0.25923465184E+02 -0.22490763237E+02  0.54367082894E+02  0.39999997074E+02 0.  0.
        -12    1    3    3    0    0 -0.13338645297E+02  0.25923465184E+02  0.22490763237E+02  0.36820917106E+02  0.00000000000E+00 0.  1.
         11    1    4    4    0    0  0.59705371087E+01 -0.25254253520E+02 -0.84110027181E+01  0.27279472158E+02  0.51100000000E-03 0. -1.
        -11    1    4    4    0    0  0.14063474490E+02  0.18308943751E+01 -0.14017375440E+02  0.19940418838E+02  0.51100000000E-03 0.  1.
        -12    1    4    4    0    0 -0.66953663026E+01 -0.25001060394E+01 -0.62385078933E-01  0.71471918984E+01  0.00000000000E+00 0.  1.
</event>
<event>
 8    1  0.2472977E-006  0.9118800E+02  0.7816164E-02  0.1184000E+00
        -11   -1    0    0    0    0  0.00000000000E+00  0.00000000000E+00  0.45593999997E+02  0.45594000000E+02  0.51100000000E-03 0. -1.
         11   -1    0    0    0    0 -0.00000000000E+00 -0.00000000000E+00 -0.45593999997E+02  0.45594000000E+02  0.51100000000E-03 0.  1.
         23    2    1    2    0    0  0.00000000000E+00  0.71054273576E-14  0.00000000000E+00  0.91188000000E+02  0.91188000000E+02 0.  0.
    9900012    2    3    3    0    0  0.10841913063E+02  0.34988389743E+02 -0.37474814021E+01  0.54367107663E+02  0.40000053538E+02 0.  0.
         12    1    3    3    0    0 -0.10841913063E+02 -0.34988389743E+02  0.37474814021E+01  0.36820892337E+02  0.00000000000E+00 0. -1.
         11    1    4    4    0    0 -0.72507088147E+01 -0.28534684597E+01  0.21083590902E+01  0.80721892248E+01  0.51100000000E-03 0. -1.
        -11    1    4    4    0    0  0.17961374340E+02  0.34917573368E+02  0.53019953547E+00  0.39269950470E+02  0.51100000000E-03 0.  1.
         12    1    4    4    0    0  0.13124753766E+00  0.29242848343E+01 -0.63860400278E+01  0.70249679676E+01  0.00000000000E+00 0. -1.
</event>
<event>
 8    1  0.2472977E-006  0.9118800E+02  0.7816164E-02  0.1184000E+00
        -11   -1    0    0    0    0  0.00000000000E+00  0.00000000000E+00  0.45593999997E+02  0.45594000000E+02  0.51100000000E-03 0.  1.
         11   -1    0    0    0    0 -0.00000000000E+00 -0.00000000000E+00 -0.45593999997E+02  0.45594000000E+02  0.51100000000E-03 0. -1.
         23    2    1    2    0    0  0.00000000000E+00 -0.17763568394E-14 -0.35527136788E-14  0.91188000000E+02  0.91188000000E+02 0.  0.
    9900012    2    3    3    0    0  0.30335736661E+02  0.10246771607E+02  0.18180380779E+02  0.54367088925E+02  0.40000010823E+02 0.  0.
         12    1    3    3    0    0 -0.30335736661E+02 -0.10246771607E+02 -0.18180380779E+02  0.36820911075E+02  0.00000000000E+00 0. -1.
         11    1    4    4    0    0  0.29374239412E+01  0.74213173448E+01 -0.92507701654E+01  0.12218066928E+02  0.51100000000E-03 0.  1.
        -11    1    4    4    0    0  0.35755159529E+01 -0.56539205546E+01  0.64238002366E+01  0.92744995395E+01  0.51100000000E-03 0. -1.
        -12    1    4    4    0    0  0.23822796767E+02  0.84793748164E+01  0.21007350707E+02  0.32874522458E+02  0.00000000000E+00 0.  1.
</event>
<event>
 8    1  0.2472977E-006  0.9118800E+02  0.7816164E-02  0.1184000E+00
        -11   -1    0    0    0    0  0.00000000000E+00  0.00000000000E+00  0.45593999997E+02  0.45594000000E+02  0.51100000000E-03 0. -1.
         11   -1    0    0    0    0 -0.00000000000E+00 -0.00000000000E+00 -0.45593999997E+02  0.45594000000E+02  0.51100000000E-03 0.  1.
         23    2    1    2    0    0  0.17763568394E-14  0.88817841970E-15  0.00000000000E+00  0.91188000000E+02  0.91188000000E+02 0.  0.
    9900012    2    3    3    0    0 -0.10641753336E+02 -0.55810159852E+01  0.34804949250E+02  0.54367093632E+02  0.40000021552E+02 0.  0.
        -12    1    3    3    0    0  0.10641753336E+02  0.55810159852E+01 -0.34804949250E+02  0.36820906368E+02  0.00000000000E+00 0.  1.
         11    1    4    4    0    0  0.24049824440E+01 -0.20883334709E+01 -0.26467291071E+01  0.41412863303E+01  0.51100000000E-03 0. -1.
        -11    1    4    4    0    0 -0.59204471539E+01 -0.13859170650E+01 -0.45357299642E+01  0.75858623230E+01  0.51100000000E-03 0.  1.
         12    1    4    4    0    0 -0.71262886260E+01 -0.21067654493E+01  0.41987408321E+02  0.42639944979E+02  0.00000000000E+00 0. -1.
</event>
<event>
 8    1  0.2472977E-006  0.9118800E+02  0.7816164E-02  0.1184000E+00
        -11   -1    0    0    0    0  0.00000000000E+00  0.00000000000E+00  0.45593999997E+02  0.45594000000E+02  0.51100000000E-03 0.  1.
         11   -1    0    0    0    0 -0.00000000000E+00 -0.00000000000E+00 -0.45593999997E+02  0.45594000000E+02  0.51100000000E-03 0. -1.
         23    2    1    2    0    0  0.00000000000E+00  0.00000000000E+00  0.35527136788E-14  0.91188000000E+02  0.91188000000E+02 0.  0.
    9900012    2    3    3    0    0  0.72096048079E+01 -0.17011797098E+02 -0.31849664007E+02  0.54367071992E+02  0.39999972221E+02 0.  0.
        -12    1    3    3    0    0 -0.72096048079E+01  0.17011797098E+02  0.31849664007E+02  0.36820928008E+02  0.00000000000E+00 0.  1.
         11    1    4    4    0    0  0.33418694809E+01  0.18665991009E+01 -0.20217974163E+02  0.20577141768E+02  0.51100000000E-03 0. -1.
        -11    1    4    4    0    0  0.10835677753E+02 -0.27240304706E+01  0.22286579856E+01  0.11392943915E+02  0.51100000000E-03 0.  1.
         12    1    4    4    0    0 -0.69679424265E+01 -0.16154365729E+02 -0.13860347829E+02  0.22396986309E+02  0.00000000000E+00 0. -1.
</event>
<event>
 8    1  0.2472977E-006  0.9118800E+02  0.7816164E-02  0.1184000E+00
        -11   -1    0    0    0    0  0.00000000000E+00  0.00000000000E+00  0.45593999997E+02  0.45594000000E+02  0.51100000000E-03 0.  1.
         11   -1    0    0    0    0 -0.00000000000E+00 -0.00000000000E+00 -0.45593999997E+02  0.45594000000E+02  0.51100000000E-03 0. -1.
         23    2    1    2    0    0 -0.35527136788E-14 -0.35527136788E-14 -0.35527136788E-14  0.91188000000E+02  0.91188000000E+02 0.  0.
    9900012    2    3    3    0    0  0.36215669519E+01  0.25510518064E+02  0.26303572059E+02  0.54367079558E+02  0.39999989469E+02 0.  0.
        -12    1    3    3    0    0 -0.36215669519E+01 -0.25510518064E+02 -0.26303572059E+02  0.36820920442E+02  0.00000000000E+00 0.  1.
         11    1    4    4    0    0 -0.13361412586E+02  0.25700292751E+01  0.14550536383E+02  0.19921107049E+02  0.51100000000E-03 0. -1.
        -11    1    4    4    0    0  0.13962764930E+01 -0.16560550043E+01  0.36091272556E+01  0.42092643099E+01  0.51100000000E-03 0.  1.
         12    1    4    4    0    0  0.15586703045E+02  0.24596543793E+02  0.81439084206E+01  0.30236708200E+02  0.00000000000E+00 0. -1.
</event>
<event>
 8    1  0.2472977E-006  0.9118800E+02  0.7816164E-02  0.1184000E+00
        -11   -1    0    0    0    0  0.00000000000E+00  0.00000000000E+00  0.45593999997E+02  0.45594000000E+02  0.51100000000E-03 0.  1.
         11   -1    0    0    0    0 -0.00000000000E+00 -0.00000000000E+00 -0.45593999997E+02  0.45594000000E+02  0.51100000000E-03 0. -1.
         23    2    1    2    0    0  0.00000000000E+00 -0.17763568394E-14  0.00000000000E+00  0.91188000000E+02  0.91188000000E+02 0.  0.
    9900012    2    3    3    0    0  0.10724964683E+02  0.92365297115E+01  0.33991760723E+02  0.54367107213E+02  0.40000052514E+02 0.  0.
         12    1    3    3    0    0 -0.10724964683E+02 -0.92365297115E+01 -0.33991760723E+02  0.36820892787E+02  0.00000000000E+00 0. -1.
         11    1    4    4    0    0  0.10716391953E+02  0.17970744907E+02  0.26469953287E+02  0.33740882565E+02  0.51100000000E-03 0. -1.
        -11    1    4    4    0    0 -0.75190530118E+01 -0.84373786261E+01  0.25070485567E+01  0.11576303771E+02  0.51100000000E-03 0.  1.
        -12    1    4    4    0    0  0.75276257423E+01 -0.29683656891E+00  0.50147588794E+01  0.90499208772E+01  0.00000000000E+00 0.  1.
</event>
<event>
 8    1  0.2472977E-006  0.9118800E+02  0.7816164E-02  0.1184000E+00
        -11   -1    0    0    0    0  0.00000000000E+00  0.00000000000E+00  0.45593999997E+02  0.45594000000E+02  0.51100000000E-03 0. -1.
         11   -1    0    0    0    0 -0.00000000000E+00 -0.00000000000E+00 -0.45593999997E+02  0.45594000000E+02  0.51100000000E-03 0.  1.
         23    2    1    2    0    0 -0.17763568394E-14  0.00000000000E+00  0.88817841970E-15  0.91188000000E+02  0.91188000000E+02 0.  0.
    9900012    2    3    3    0    0  0.92905722771E+01 -0.35294919753E+02 -0.48718100199E+01  0.54367073525E+02  0.39999975716E+02 0.  0.
         12    1    3    3    0    0 -0.92905722771E+01  0.35294919753E+02  0.48718100199E+01  0.36820926475E+02  0.00000000000E+00 0. -1.
         11    1    4    4    0    0  0.91871060306E+01 -0.19568019841E+02  0.94505571135E+01  0.23592866459E+02  0.51100000000E-03 0. -1.
        -11    1    4    4    0    0  0.25916471386E+01 -0.10016004791E+02  0.42501372856E+01  0.11184840369E+02  0.51100000000E-03 0.  1.
        -12    1    4    4    0    0 -0.24881808921E+01 -0.57108951203E+01 -0.18572504419E+02  0.19589366698E+02  0.00000000000E+00 0.  1.
</event>
<event>
 8    1  0.2472977E-006  0.9118800E+02  0.7816164E-02  0.1184000E+00
        -11   -1    0    0    0    0  0.00000000000E+00  0.00000000000E+00  0.45593999997E+02  0.45594000000E+02  0.51100000000E-03 0.  1.
         11   -1    0    0    0    0 -0.00000000000E+00 -0.00000000000E+00 -0.45593999997E+02  0.45594000000E+02  0.51100000000E-03 0. -1.
         23    2    1    2    0    0 -0.17763568394E-14  0.00000000000E+00 -0.17763568394E-14  0.91188000000E+02  0.91188000000E+02 0.  0.
    9900012    2    3    3    0    0  0.10043778562E+02  0.31946161263E+02  0.15308284252E+02  0.54367105470E+02  0.40000048541E+02 0.  0.
         12    1    3    3    0    0 -0.10043778562E+02 -0.31946161263E+02 -0.15308284252E+02  0.36820894530E+02  0.00000000000E+00 0. -1.
         11    1    4    4    0    0  0.14557717822E+02  0.14106488967E+02  0.10738816784E+02  0.22939973089E+02  0.51100000000E-03 0. -1.
        -11    1    4    4    0    0  0.75756487331E+01  0.13591703397E+02 -0.39317628634E+01  0.16049411654E+02  0.51100000000E-03 0.  1.
         12    1    4    4    0    0 -0.12089587993E+02  0.42479688988E+01  0.85012303318E+01  0.15377720727E+02  0.00000000000E+00 0. -1.
</event>
<event>
 8    1  0.2472977E-006  0.9118800E+02  0.7816164E-02  0.1184000E+00
        -11   -1    0    0    0    0  0.00000000000E+00  0.00000000000E+00  0.45593999997E+02  0.45594000000E+02  0.51100000000E-03 0.  1.
         11   -1    0    0    0    0 -0.00000000000E+00 -0.00000000000E+00 -0.45593999997E+02  0.45594000000E+02  0.51100000000E-03 0. -1.
         23    2    1    2    0    0  0.35527136788E-14  0.00000000000E+00  0.00000000000E+00  0.91188000000E+02  0.91188000000E+02 0.  0.
    9900012    2    3    3    0    0  0.27940668684E+02 -0.23567908052E+02  0.44330981886E+01  0.54367087246E+02  0.40000006996E+02 0.  0.
         12    1    3    3    0    0 -0.27940668684E+02  0.23567908052E+02 -0.44330981886E+01  0.36820912754E+02  0.00000000000E+00 0. -1.
         11    1    4    4    0    0 -0.31532857526E+01 -0.27049866566E+01  0.13844943981E+02  0.14454848250E+02  0.51100000000E-03 0. -1.
        -11    1    4    4    0    0  0.10764778299E+02 -0.10762429570E+02  0.29239037359E+00  0.15224842675E+02  0.51100000000E-03 0.  1.
        -12    1    4    4    0    0  0.20329176138E+02 -0.10100491825E+02 -0.97042361658E+01  0.24687396321E+02  0.00000000000E+00 0.  1.
</event>
<event>
 8    1  0.2472977E-006  0.9118800E+02  0.7816164E-02  0.1184000E+00
        -11   -1    0    0    0    0  0.00000000000E+00  0.00000000000E+00  0.45593999997E+02  0.45594000000E+02  0.51100000000E-03 0. -1.
         11   -1    0    0    0    0 -0.00000000000E+00 -0.00000000000E+00 -0.45593999997E+02  0.45594000000E+02  0.51100000000E-03 0.  1.
         23    2    1    2    0    0  0.00000000000E+00  0.88817841970E-15 -0.35527136788E-14  0.91188000000E+02  0.91188000000E+02 0.  0.
    9900012    2    3    3    0    0 -0.31297057900E+02  0.32104485533E+01 -0.19130272145E+02  0.54367080329E+02  0.39999991226E+02 0.  0.
         12    1    3    3    0    0  0.31297057900E+02 -0.32104485533E+01  0.19130272145E+02  0.36820919671E+02  0.00000000000E+00 0. -1.
         11    1    4    4    0    0  0.22796295548E+01 -0.10880638218E+02 -0.15551302205E+01  0.11225124908E+02  0.51100000000E-03 0. -1.
        -11    1    4    4    0    0 -0.10913646383E+02  0.19768214919E+00 -0.11536515518E+02  0.15882000697E+02  0.51100000000E-03 0.  1.
         12    1    4    4    0    0 -0.22663041072E+02  0.13893404622E+02 -0.60386264065E+01  0.27259954723E+02  0.00000000000E+00 0. -1.
</event>
<event>
 8    1  0.2472977E-006  0.9118800E+02  0.7816164E-02  0.1184000E+00
        -11   -1    0    0    0    0  0.00000000000E+00  0.00000000000E+00  0.45593999997E+02  0.45594000000E+02  0.51100000000E-03 0.  1.
         11   -1    0    0    0    0 -0.00000000000E+00 -0.00000000000E+00 -0.45593999997E+02  0.45594000000E+02  0.51100000000E-03 0. -1.
         23    2    1    2    0    0  0.00000000000E+00  0.35527136788E-14  0.35527136788E-14  0.91188000000E+02  0.91188000000E+02 0.  0.
    9900012    2    3    3    0    0  0.11963446889E+02 -0.21800524832E+02  0.27154958799E+02  0.54367099254E+02  0.40000034369E+02 0.  0.
         12    1    3    3    0    0 -0.11963446889E+02  0.21800524832E+02 -0.27154958799E+02  0.36820900746E+02  0.00000000000E+00 0. -1.
         11    1    4    4    0    0 -0.54002834896E+01  0.32097353290E+01  0.25392167229E+01  0.67759194562E+01  0.51100000000E-03 0. -1.
        -11    1    4    4    0    0  0.23162198670E+02 -0.21568527135E+02  0.25689543360E+02  0.40763236480E+02  0.51100000000E-03 0.  1.
        -12    1    4    4    0    0 -0.57984682920E+01 -0.34417330257E+01 -0.10738012843E+01  0.68279433178E+01  0.00000000000E+00 0.  1.
</event>
<event>
 8    1  0.2472977E-006  0.9118800E+02  0.7816164E-02  0.1184000E+00
        -11   -1    0    0    0    0  0.00000000000E+00  0.00000000000E+00  0.45593999997E+02  0.45594000000E+02  0.51100000000E-03 0.  1.
         11   -1    0    0    0    0 -0.00000000000E+00 -0.00000000000E+00 -0.45593999997E+02  0.45594000000E+02  0.51100000000E-03 0. -1.
         23    2    1    2    0    0 -0.17763568394E-14 -0.71054273576E-14  0.35527136788E-14  0.91188000000E+02  0.91188000000E+02 0.  0.
    9900012    2    3    3    0    0  0.14241413308E+02  0.25127143182E+02 -0.22838329525E+02  0.54367075609E+02  0.39999980467E+02 0.  0.
        -12    1    3    3    0    0 -0.14241413308E+02 -0.25127143182E+02  0.22838329525E+02  0.36820924391E+02  0.00000000000E+00 0.  1.
         11    1    4    4    0    0 -0.21374403536E+01  0.11606378584E+01 -0.58802111374E+00  0.25022990618E+01  0.51100000000E-03 0. -1.
        -11    1    4    4    0    0 -0.78446837982E+01 -0.20730724704E+01  0.25520406166E+01  0.85058570957E+01  0.51100000000E-03 0.  1.
         12    1    4    4    0    0  0.24223537459E+02  0.26039577794E+02 -0.24802349028E+02  0.43358919452E+02  0.00000000000E+00 0. -1.
</event>
<event>
 8    1  0.2472977E-006  0.9118800E+02  0.7816164E-02  0.1184000E+00
        -11   -1    0    0    0    0  0.00000000000E+00  0.00000000000E+00  0.45593999997E+02  0.45594000000E+02  0.51100000000E-03 0. -1.
         11   -1    0    0    0    0 -0.00000000000E+00 -0.00000000000E+00 -0.45593999997E+02  0.45594000000E+02  0.51100000000E-03 0.  1.
         23    2    1    2    0    0  0.88817841970E-15  0.00000000000E+00  0.71054273576E-14  0.91188000000E+02  0.91188000000E+02 0.  0.
    9900012    2    3    3    0    0  0.49700850238E+01 -0.61138684620E+00  0.36478829774E+02  0.54367074418E+02  0.39999977752E+02 0.  0.
        -12    1    3    3    0    0 -0.49700850238E+01  0.61138684620E+00 -0.36478829774E+02  0.36820925582E+02  0.00000000000E+00 0.  1.
         11    1    4    4    0    0 -0.62361275897E+01 -0.67115358754E+01  0.14199486523E+02  0.16898503452E+02  0.51100000000E-03 0. -1.
        -11    1    4    4    0    0 -0.53607818295E+00  0.15161538666E+02  0.95797837087E+01  0.17942460554E+02  0.51100000000E-03 0.  1.
         12    1    4    4    0    0  0.11742290796E+02 -0.90613896373E+01  0.12699559542E+02  0.19526110413E+02  0.00000000000E+00 0. -1.
</event>
<event>
 8    1  0.2472977E-006  0.9118800E+02  0.7816164E-02  0.1184000E+00
        -11   -1    0    0    0    0  0.00000000000E+00  0.00000000000E+00  0.45593999997E+02  0.45594000000E+02  0.51100000000E-03 0.  1.
         11   -1    0    0    0    0 -0.00000000000E+00 -0.00000000000E+00 -0.45593999997E+02  0.45594000000E+02  0.51100000000E-03 0. -1.
         23    2    1    2    0    0  0.26645352591E-14  0.00000000000E+00  0.00000000000E+00  0.91188000000E+02  0.91188000000E+02 0.  0.
    9900012    2    3    3    0    0 -0.36405172598E+01  0.35346010841E+02 -0.96533335089E+01  0.54367072579E+02  0.39999973558E+02 0.  0.
        -12    1    3    3    0    0  0.36405172598E+01 -0.35346010841E+02  0.96533335089E+01  0.36820927421E+02  0.00000000000E+00 0.  1.
         11    1    4    4    0    0 -0.13770310537E+02  0.15350406610E+02 -0.80348317890E+01  0.22131763543E+02  0.51100000000E-03 0. -1.
        -11    1    4    4    0    0 -0.34605804508E+01  0.85018047420E+01  0.78468472035E+01  0.12075980798E+02  0.51100000000E-03 0.  1.
         12    1    4    4    0    0  0.13590373728E+02  0.11493799489E+02 -0.94653489234E+01  0.20159328238E+02  0.00000000000E+00 0. -1.
</event>
<event>
 8    1  0.2472977E-006  0.9118800E+02  0.7816164E-02  0.1184000E+00
        -11   -1    0    0    0    0  0.00000000000E+00  0.00000000000E+00  0.45593999997E+02  0.45594000000E+02  0.51100000000E-03 0. -1.
         11   -1    0    0    0    0 -0.00000000000E+00 -0.00000000000E+00 -0.45593999997E+02  0.45594000000E+02  0.51100000000E-03 0.  1.
         23    2    1    2    0    0  0.00000000000E+00  0.00000000000E+00  0.00000000000E+00  0.91188000000E+02  0.91188000000E+02 0.  0.
    9900012    2    3    3    0    0 -0.97439543290E+01 -0.96745309765E+01 -0.34164817983E+02  0.54367136574E+02  0.40000119448E+02 0.  0.
         12    1    3    3    0    0  0.97439543290E+01  0.96745309765E+01  0.34164817983E+02  0.36820863426E+02  0.00000000000E+00 0. -1.
         11    1    4    4    0    0 -0.11583445689E+02 -0.80737543545E+01  0.10698681130E+01  0.14160026181E+02  0.51100000000E-03 0. -1.
        -11    1    4    4    0    0 -0.69163228065E+01 -0.40060063094E+01 -0.26223444860E+02  0.27414460934E+02  0.51100000000E-03 0.  1.
         12    1    4    4    0    0  0.87558141666E+01  0.24052296874E+01 -0.90112412358E+01  0.12792649459E+02  0.00000000000E+00 0. -1.
</event>
<event>
 8    1  0.2472977E-006  0.9118800E+02  0.7816164E-02  0.1184000E+00
        -11   -1    0    0    0    0  0.00000000000E+00  0.00000000000E+00  0.45593999997E+02  0.45594000000E+02  0.51100000000E-03 0.  1.
         11   -1    0    0    0    0 -0.00000000000E+00 -0.00000000000E+00 -0.45593999997E+02  0.45594000000E+02  0.51100000000E-03 0. -1.
         23    2    1    2    0    0 -0.35527136788E-14  0.35527136788E-14  0.00000000000E+00  0.91188000000E+02  0.91188000000E+02 0.  0.
    9900012    2    3    3    0    0 -0.18813570583E+02 -0.28890045667E+02 -0.12930364573E+02  0.54367088758E+02  0.40000010441E+02 0.  0.
         12    1    3    3    0    0  0.18813570583E+02  0.28890045667E+02  0.12930364573E+02  0.36820911242E+02  0.00000000000E+00 0. -1.
         11    1    4    4    0    0 -0.32734942676E+01  0.33339718659E+01 -0.75825248311E+01  0.89065041514E+01  0.51100000000E-03 0. -1.
        -11    1    4    4    0    0 -0.19590143147E+02 -0.26743312725E+02 -0.12640850719E+02  0.35479143045E+02  0.51100000000E-03 0.  1.
         12    1    4    4    0    0  0.40500668323E+01 -0.54807048078E+01  0.72930109771E+01  0.99814415616E+01  0.00000000000E+00 0. -1.
</event>
<event>
 8    1  0.2472977E-006  0.9118800E+02  0.7816164E-02  0.1184000E+00
        -11   -1    0    0    0    0  0.00000000000E+00  0.00000000000E+00  0.45593999997E+02  0.45594000000E+02  0.51100000000E-03 0. -1.
         11   -1    0    0    0    0 -0.00000000000E+00 -0.00000000000E+00 -0.45593999997E+02  0.45594000000E+02  0.51100000000E-03 0.  1.
         23    2    1    2    0    0 -0.17763568394E-14  0.00000000000E+00  0.00000000000E+00  0.91188000000E+02  0.91188000000E+02 0.  0.
    9900012    2    3    3    0    0 -0.60952271181E+01 -0.30965302908E+02  0.18967808298E+02  0.54367088422E+02  0.40000009676E+02 0.  0.
        -12    1    3    3    0    0  0.60952271181E+01  0.30965302908E+02 -0.18967808298E+02  0.36820911578E+02  0.00000000000E+00 0.  1.
         11    1    4    4    0    0  0.22172295464E+01 -0.10302349773E+02  0.13329247127E+01  0.10622203456E+02  0.51100000000E-03 0. -1.
        -11    1    4    4    0    0 -0.13627707560E+02 -0.24116994680E+02  0.22553721352E+02  0.35721340859E+02  0.51100000000E-03 0.  1.
        -12    1    4    4    0    0  0.53152508951E+01  0.34540415448E+01 -0.49188377666E+01  0.80235441075E+01  0.00000000000E+00 0.  1.
</event>
<event>
 8    1  0.2472977E-006  0.9118800E+02  0.7816164E-02  0.1184000E+00
        -11   -1    0    0    0    0  0.00000000000E+00  0.00000000000E+00  0.45593999997E+02  0.45594000000E+02  0.51100000000E-03 0. -1.
         11   -1    0    0    0    0 -0.00000000000E+00 -0.00000000000E+00 -0.45593999997E+02  0.45594000000E+02  0.51100000000E-03 0.  1.
         23    2    1    2    0    0 -0.88817841970E-15  0.17763568394E-14  0.00000000000E+00  0.91188000000E+02  0.91188000000E+02 0.  0.
    9900012    2    3    3    0    0 -0.65542191222E+01  0.93014508419E+01  0.35018651874E+02  0.54367071778E+02  0.39999971733E+02 0.  0.
        -12    1    3    3    0    0  0.65542191222E+01 -0.93014508419E+01 -0.35018651874E+02  0.36820928222E+02  0.00000000000E+00 0.  1.
         11    1    4    4    0    0  0.52822473455E+00 -0.25458628806E+00  0.30625857442E+02  0.30631470416E+02  0.51100000000E-03 0. -1.
        -11    1    4    4    0    0 -0.13297285925E+02  0.62111876419E+01  0.69369920278E+01  0.16233253634E+02  0.51100000000E-03 0.  1.
         12    1    4    4    0    0  0.62148420682E+01  0.33448494880E+01 -0.25441975955E+01  0.75023477282E+01  0.00000000000E+00 0. -1.
</event>
<event>
 8    1  0.2472977E-006  0.9118800E+02  0.7816164E-02  0.1184000E+00
        -11   -1    0    0    0    0  0.00000000000E+00  0.00000000000E+00  0.45593999997E+02  0.45594000000E+02  0.51100000000E-03 0.  1.
         11   -1    0    0    0    0 -0.00000000000E+00 -0.00000000000E+00 -0.45593999997E+02  0.45594000000E+02  0.51100000000E-03 0. -1.
         23    2    1    2    0    0  0.00000000000E+00  0.00000000000E+00  0.00000000000E+00  0.91188000000E+02  0.91188000000E+02 0.  0.
    9900012    2    3    3    0    0  0.29275165962E+02  0.54872743050E+01  0.21647976609E+02  0.54367076429E+02  0.39999982334E+02 0.  0.
        -12    1    3    3    0    0 -0.29275165962E+02 -0.54872743050E+01 -0.21647976609E+02  0.36820923571E+02  0.00000000000E+00 0.  1.
         11    1    4    4    0    0  0.19596719987E+02  0.20983982694E+01  0.59753739252E+01  0.20594654727E+02  0.51100000000E-03 0. -1.
        -11    1    4    4    0    0  0.30382828362E+01  0.83136684081E+01  0.21769533502E+02  0.23500230512E+02  0.51100000000E-03 0.  1.
        -12    1    4    4    0    0  0.66401631390E+01 -0.49247923725E+01 -0.60969308178E+01  0.10272191189E+02  0.00000000000E+00 0.  1.
</event>
<event>
 8    1  0.2472977E-006  0.9118800E+02  0.7816164E-02  0.1184000E+00
        -11   -1    0    0    0    0  0.00000000000E+00  0.00000000000E+00  0.45593999997E+02  0.45594000000E+02  0.51100000000E-03 0. -1.
         11   -1    0    0    0    0 -0.00000000000E+00 -0.00000000000E+00 -0.45593999997E+02  0.45594000000E+02  0.51100000000E-03 0.  1.
         23    2    1    2    0    0 -0.88817841970E-15  0.00000000000E+00  0.00000000000E+00  0.91188000000E+02  0.91188000000E+02 0.  0.
    9900012    2    3    3    0    0 -0.58091576422E+01 -0.31469410763E+02  0.18212834329E+02  0.54367116515E+02  0.40000073720E+02 0.  0.
        -12    1    3    3    0    0  0.58091576422E+01  0.31469410763E+02 -0.18212834329E+02  0.36820883485E+02  0.00000000000E+00 0.  1.
         11    1    4    4    0    0 -0.87321523424E+01 -0.86832768852E+01  0.14891549979E+02  0.19323768862E+02  0.51100000000E-03 0. -1.
        -11    1    4    4    0    0  0.10660913258E+02  0.69706655243E-01  0.22088192658E+01  0.10887553138E+02  0.51100000000E-03 0.  1.
         12    1    4    4    0    0 -0.77379185582E+01 -0.22855840533E+02  0.11124650837E+01  0.24155794515E+02  0.00000000000E+00 0. -1.
</event>
<event>
 8    1  0.2472977E-006  0.9118800E+02  0.7816164E-02  0.1184000E+00
        -11   -1    0    0    0    0  0.00000000000E+00  0.00000000000E+00  0.45593999997E+02  0.45594000000E+02  0.51100000000E-03 0.  1.
         11   -1    0    0    0    0 -0.00000000000E+00 -0.00000000000E+00 -0.45593999997E+02  0.45594000000E+02  0.51100000000E-03 0. -1.
         23    2    1    2    0    0  0.44408920985E-15  0.00000000000E+00 -0.88817841970E-15  0.91188000000E+02  0.91188000000E+02 0.  0.
    9900012    2    3    3    0    0 -0.10720372345E+01 -0.36422796879E+02  0.52925536148E+01  0.54367074970E+02  0.39999979009E+02 0.  0.
         12    1    3    3    0    0  0.10720372345E+01  0.36422796879E+02 -0.52925536148E+01  0.36820925030E+02  0.00000000000E+00 0. -1.
         11    1    4    4    0    0 -0.97298434773E-01 -0.12854215176E+02  0.11753460039E+02  0.17417925764E+02  0.51100000000E-03 0. -1.
        -11    1    4    4    0    0  0.11525905954E+02 -0.11140988760E+02  0.39064860647E+01  0.16499356722E+02  0.51100000000E-03 0.  1.
         12    1    4    4    0    0 -0.12500644753E+02 -0.12427592942E+02 -0.10367392489E+02  0.20449792483E+02  0.00000000000E+00 0. -1.
</event>
<event>
 8    1  0.2472977E-006  0.9118800E+02  0.7816164E-02  0.1184000E+00
        -11   -1    0    0    0    0  0.00000000000E+00  0.00000000000E+00  0.45593999997E+02  0.45594000000E+02  0.51100000000E-03 0.  1.
         11   -1    0    0    0    0 -0.00000000000E+00 -0.00000000000E+00 -0.45593999997E+02  0.45594000000E+02  0.51100000000E-03 0. -1.
         23    2    1    2    0    0  0.35527136788E-14  0.00000000000E+00  0.35527136788E-14  0.91188000000E+02  0.91188000000E+02 0.  0.
    9900012    2    3    3    0    0  0.27770572161E+02 -0.20650868719E+02 -0.12574351222E+02  0.54367117804E+02  0.40000076658E+02 0.  0.
        -12    1    3    3    0    0 -0.27770572161E+02  0.20650868719E+02  0.12574351222E+02  0.36820882196E+02  0.00000000000E+00 0.  1.
         11    1    4    4    0    0  0.12798852541E+02 -0.75350020028E+01 -0.17857361004E+02  0.23226541366E+02  0.51100000000E-03 0. -1.
        -11    1    4    4    0    0  0.33874208139E+01 -0.25488062473E+01  0.12993418852E+02  0.13667478435E+02  0.51100000000E-03 0.  1.
        -12    1    4    4    0    0  0.11584298806E+02 -0.10567060469E+02 -0.77104090700E+01  0.17473098003E+02  0.00000000000E+00 0.  1.
</event>
<event>
 8    1  0.2472977E-006  0.9118800E+02  0.7816164E-02  0.1184000E+00
        -11   -1    0    0    0    0  0.00000000000E+00  0.00000000000E+00  0.45593999997E+02  0.45594000000E+02  0.51100000000E-03 0. -1.
         11   -1    0    0    0    0 -0.00000000000E+00 -0.00000000000E+00 -0.45593999997E+02  0.45594000000E+02  0.51100000000E-03 0.  1.
         23    2    1    2    0    0  0.17763568394E-14 -0.35527136788E-14  0.00000000000E+00  0.91188000000E+02  0.91188000000E+02 0.  0.
    9900012    2    3    3    0    0  0.12582037599E+02 -0.17537336788E+02 -0.29831442038E+02  0.54367071361E+02  0.39999970783E+02 0.  0.
         12    1    3    3    0    0 -0.12582037599E+02  0.17537336788E+02  0.29831442038E+02  0.36820928639E+02  0.00000000000E+00 0. -1.
         11    1    4    4    0    0 -0.52128582902E+01 -0.14130879295E+02 -0.90520349875E+01  0.17572563242E+02  0.51100000000E-03 0. -1.
        -11    1    4    4    0    0  0.20742876650E+02  0.46867753763E+01 -0.11668919953E+02  0.24256885379E+02  0.51100000000E-03 0.  1.
        -12    1    4    4    0    0 -0.29479807611E+01 -0.80932328697E+01 -0.91104870970E+01  0.12537622741E+02  0.00000000000E+00 0.  1.
</event>
<event>
 8    1  0.2472977E-006  0.9118800E+02  0.7816164E-02  0.1184000E+00
        -11   -1    0    0    0    0  0.00000000000E+00  0.00000000000E+00  0.45593999997E+02  0.45594000000E+02  0.51100000000E-03 0. -1.
         11   -1    0    0    0    0 -0.00000000000E+00 -0.00000000000E+00 -0.45593999997E+02  0.45594000000E+02  0.51100000000E-03 0.  1.
         23    2    1    2    0    0  0.88817841970E-15 -0.71054273576E-14  0.00000000000E+00  0.91188000000E+02  0.91188000000E+02 0.  0.
    9900012    2    3    3    0    0  0.40831918668E+01  0.29594983582E+02 -0.21523119937E+02  0.54367079305E+02  0.39999988891E+02 0.  0.
         12    1    3    3    0    0 -0.40831918668E+01 -0.29594983582E+02  0.21523119937E+02  0.36820920695E+02  0.00000000000E+00 0. -1.
         11    1    4    4    0    0 -0.80384642646E+01  0.24794596167E+01 -0.82673207755E+00  0.84526986172E+01  0.51100000000E-03 0. -1.
        -11    1    4    4    0    0  0.75434277791E+00 -0.39840946121E+01 -0.10519237656E+02  0.11273704095E+02  0.51100000000E-03 0.  1.
        -12    1    4    4    0    0  0.11367313354E+02  0.31099618577E+02 -0.10177150204E+02  0.34640676593E+02  0.00000000000E+00 0.  1.
</event>
<event>
 8    1  0.2472977E-006  0.9118800E+02  0.7816164E-02  0.1184000E+00
        -11   -1    0    0    0    0  0.00000000000E+00  0.00000000000E+00  0.45593999997E+02  0.45594000000E+02  0.51100000000E-03 0. -1.
         11   -1    0    0    0    0 -0.00000000000E+00 -0.00000000000E+00 -0.45593999997E+02  0.45594000000E+02  0.51100000000E-03 0.  1.
         23    2    1    2    0    0  0.00000000000E+00  0.00000000000E+00  0.88817841970E-15  0.91188000000E+02  0.91188000000E+02 0.  0.
    9900012    2    3    3    0    0  0.24627515189E+02  0.27253978191E+02 -0.25468517764E+01  0.54367078154E+02  0.39999986267E+02 0.  0.
        -12    1    3    3    0    0 -0.24627515189E+02 -0.27253978191E+02  0.25468517764E+01  0.36820921846E+02  0.00000000000E+00 0.  1.
         11    1    4    4    0    0  0.17292929536E+02  0.14809471234E+02 -0.41955699699E+01  0.23150996908E+02  0.51100000000E-03 0. -1.
        -11    1    4    4    0    0  0.15302584158E+02  0.36712976854E+01  0.81249719190E+01  0.17710524486E+02  0.51100000000E-03 0.  1.
         12    1    4    4    0    0 -0.79679985051E+01  0.87732092715E+01 -0.64762537256E+01  0.13505556761E+02  0.00000000000E+00 0. -1.
</event>
<event>
 8    1  0.2472977E-006  0.9118800E+02  0.7816164E-02  0.1184000E+00
        -11   -1    0    0    0    0  0.00000000000E+00  0.00000000000E+00  0.45593999997E+02  0.45594000000E+02  0.51100000000E-03 0.  1.
         11   -1    0    0    0    0 -0.00000000000E+00 -0.00000000000E+00 -0.45593999997E+02  0.45594000000E+02  0.51100000000E-03 0. -1.
         23    2    1    2    0    0 -0.88817841970E-15  0.00000000000E+00  0.00000000000E+00  0.91188000000E+02  0.91188000000E+02 0.  0.
    9900012    2    3    3    0    0  0.78201295569E+01  0.13754417130E+02  0.33248168237E+02  0.54367094145E+02  0.40000022723E+02 0.  0.
         12    1    3    3    0    0 -0.78201295569E+01 -0.13754417130E+02 -0.33248168237E+02  0.36820905855E+02  0.00000000000E+00 0. -1.
         11    1    4    4    0    0  0.16121053567E+01 -0.12524872594E+01 -0.41563299136E+01  0.46306248636E+01  0.51100000000E-03 0. -1.
        -11    1    4    4    0    0 -0.53193330283E+01 -0.61017142453E+00  0.27363731204E+02  0.27882636150E+02  0.51100000000E-03 0.  1.
        -12    1    4    4    0    0  0.11527357229E+02  0.15617075814E+02  0.10040766947E+02  0.21853833132E+02  0.00000000000E+00 0.  1.
</event>
<event>
 8    1  0.2472977E-006  0.9118800E+02  0.7816164E-02  0.1184000E+00
        -11   -1    0    0    0    0  0.00000000000E+00  0.00000000000E+00  0.45593999997E+02  0.45594000000E+02  0.51100000000E-03 0. -1.
         11   -1    0    0    0    0 -0.00000000000E+00 -0.00000000000E+00 -0.45593999997E+02  0.45594000000E+02  0.51100000000E-03 0.  1.
         23    2    1    2    0    0  0.00000000000E+00 -0.17763568394E-14  0.00000000000E+00  0.91188000000E+02  0.91188000000E+02 0.  0.
    9900012    2    3    3    0    0  0.35820136225E+02 -0.69890057796E+01 -0.48839219683E+01  0.54367067709E+02  0.39999962457E+02 0.  0.
         12    1    3    3    0    0 -0.35820136225E+02  0.69890057796E+01  0.48839219683E+01  0.36820932291E+02  0.00000000000E+00 0. -1.
         11    1    4    4    0    0  0.94506531399E+01 -0.18517833386E+02 -0.45567836203E+01  0.21283544707E+02  0.51100000000E-03 0. -1.
        -11    1    4    4    0    0  0.18331773766E+02  0.15330629514E+02 -0.21951498846E+01  0.23997933535E+02  0.51100000000E-03 0.  1.
         12    1    4    4    0    0  0.80377093195E+01 -0.38018019076E+01  0.18680115366E+01  0.90855894663E+01  0.00000000000E+00 0. -1.
</event>
<event>
 8    1  0.2472977E-006  0.9118800E+02  0.7816164E-02  0.1184000E+00
        -11   -1    0    0    0    0  0.00000000000E+00  0.00000000000E+00  0.45593999997E+02  0.45594000000E+02  0.51100000000E-03 0.  1.
         11   -1    0    0    0    0 -0.00000000000E+00 -0.00000000000E+00 -0.45593999997E+02  0.45594000000E+02  0.51100000000E-03 0. -1.
         23    2    1    2    0    0  0.22204460493E-15 -0.35527136788E-14  0.00000000000E+00  0.91188000000E+02  0.91188000000E+02 0.  0.
    9900012    2    3    3    0    0 -0.11064181877E+01  0.28162792435E+02 -0.23694174841E+02  0.54367068991E+02  0.39999965379E+02 0.  0.
        -12    1    3    3    0    0  0.11064181877E+01 -0.28162792435E+02  0.23694174841E+02  0.36820931009E+02  0.00000000000E+00 0.  1.
         11    1    4    4    0    0 -0.73726307774E+01  0.22012417720E+02 -0.19668684567E+02  0.30426294078E+02  0.51100000000E-03 0. -1.
        -11    1    4    4    0    0  0.58812204221E+01  0.12803671892E+02 -0.79787204508E+01  0.16192058173E+02  0.51100000000E-03 0.  1.
         12    1    4    4    0    0  0.38499216762E+00 -0.66532971769E+01  0.39532301764E+01  0.77487167402E+01  0.00000000000E+00 0. -1.
</event>
<event>
 8    1  0.2472977E-006  0.9118800E+02  0.7816164E-02  0.1184000E+00
        -11   -1    0    0    0    0  0.00000000000E+00  0.00000000000E+00  0.45593999997E+02  0.45594000000E+02  0.51100000000E-03 0. -1.
         11   -1    0    0    0    0 -0.00000000000E+00 -0.00000000000E+00 -0.45593999997E+02  0.45594000000E+02  0.51100000000E-03 0.  1.
         23    2    1    2    0    0  0.35527136788E-14  0.00000000000E+00 -0.17763568394E-14  0.91188000000E+02  0.91188000000E+02 0.  0.
    9900012    2    3    3    0    0 -0.30542179769E+02  0.15456877601E+02  0.13566134702E+02  0.54367084463E+02  0.40000000650E+02 0.  0.
        -12    1    3    3    0    0  0.30542179769E+02 -0.15456877601E+02 -0.13566134702E+02  0.36820915537E+02  0.00000000000E+00 0.  1.
         11    1    4    4    0    0  0.12234615785E+01  0.33771428037E+01  0.88102020024E+01  0.95142845940E+01  0.51100000000E-03 0. -1.
        -11    1    4    4    0    0  0.46889519418E+01 -0.24801239125E+01  0.11917290034E+01  0.54366812682E+01  0.51100000000E-03 0.  1.
         12    1    4    4    0    0 -0.36454593289E+02  0.14559858710E+02  0.35642036962E+01  0.39416118601E+02  0.00000000000E+00 0. -1.
</event>
<event>
 8    1  0.2472977E-006  0.9118800E+02  0.7816164E-02  0.1184000E+00
        -11   -1    0    0    0    0  0.00000000000E+00  0.00000000000E+00  0.45593999997E+02  0.45594000000E+02  0.51100000000E-03 0.  1.
         11   -1    0    0    0    0 -0.00000000000E+00 -0.00000000000E+00 -0.45593999997E+02  0.45594000000E+02  0.51100000000E-03 0. -1.
         23    2    1    2    0    0  0.00000000000E+00 -0.17763568394E-14  0.00000000000E+00  0.91188000000E+02  0.91188000000E+02 0.  0.
    9900012    2    3    3    0    0  0.18637721572E+02 -0.15042410326E+02  0.27966787109E+02  0.54367082643E+02  0.39999996501E+02 0.  0.
        -12    1    3    3    0    0 -0.18637721572E+02  0.15042410326E+02 -0.27966787109E+02  0.36820917357E+02  0.00000000000E+00 0.  1.
         11    1    4    4    0    0  0.27389036803E+02 -0.93943766333E+01  0.19079773579E+02  0.34676381147E+02  0.51100000000E-03 0. -1.
        -11    1    4    4    0    0 -0.94775653323E+00  0.45163720689E+01  0.12821832232E+01  0.47895566798E+01  0.51100000000E-03 0.  1.
        -12    1    4    4    0    0 -0.78035586979E+01 -0.10164405762E+02  0.76048303067E+01  0.14901144816E+02  0.00000000000E+00 0.  1.
</event>
<event>
 8    1  0.2472977E-006  0.9118800E+02  0.7816164E-02  0.1184000E+00
        -11   -1    0    0    0    0  0.00000000000E+00  0.00000000000E+00  0.45593999997E+02  0.45594000000E+02  0.51100000000E-03 0.  1.
         11   -1    0    0    0    0 -0.00000000000E+00 -0.00000000000E+00 -0.45593999997E+02  0.45594000000E+02  0.51100000000E-03 0. -1.
         23    2    1    2    0    0  0.00000000000E+00  0.00000000000E+00  0.74940054162E-15  0.91188000000E+02  0.91188000000E+02 0.  0.
    9900012    2    3    3    0    0  0.15752084391E+02  0.33281127318E+02 -0.13374010261E+00  0.54367089030E+02  0.40000011062E+02 0.  0.
         12    1    3    3    0    0 -0.15752084391E+02 -0.33281127318E+02  0.13374010261E+00  0.36820910970E+02  0.00000000000E+00 0. -1.
         11    1    4    4    0    0  0.15708217924E+02  0.17847978889E+02 -0.14316935922E+02  0.27753794609E+02  0.51100000000E-03 0. -1.
        -11    1    4    4    0    0 -0.73434677738E+01  0.28608853185E+01  0.40918700938E+01  0.88800104097E+01  0.51100000000E-03 0.  1.
        -12    1    4    4    0    0  0.73873342409E+01  0.12572263111E+02  0.10091325725E+02  0.17733284011E+02  0.00000000000E+00 0.  1.
</event>
<event>
 8    1  0.2472977E-006  0.9118800E+02  0.7816164E-02  0.1184000E+00
        -11   -1    0    0    0    0  0.00000000000E+00  0.00000000000E+00  0.45593999997E+02  0.45594000000E+02  0.51100000000E-03 0.  1.
         11   -1    0    0    0    0 -0.00000000000E+00 -0.00000000000E+00 -0.45593999997E+02  0.45594000000E+02  0.51100000000E-03 0. -1.
         23    2    1    2    0    0 -0.44408920985E-15 -0.35527136788E-14 -0.71054273576E-14  0.91188000000E+02  0.91188000000E+02 0.  0.
    9900012    2    3    3    0    0  0.15971172235E+01  0.12317405174E+02  0.34662816337E+02  0.54367080809E+02  0.39999992320E+02 0.  0.
         12    1    3    3    0    0 -0.15971172235E+01 -0.12317405174E+02 -0.34662816337E+02  0.36820919191E+02  0.00000000000E+00 0. -1.
         11    1    4    4    0    0 -0.49785433204E+01  0.18447226840E+02  0.29554780713E+02  0.35193339354E+02  0.51100000000E-03 0.  1.
        -11    1    4    4    0    0 -0.29255898256E+01  0.20874938737E+01  0.55410182709E+01  0.66045128692E+01  0.51100000000E-03 0. -1.
        -12    1    4    4    0    0  0.95012503694E+01 -0.82173155395E+01 -0.43298264657E+00  0.12569228585E+02  0.00000000000E+00 0.  1.
</event>
<event>
 8    1  0.2472977E-006  0.9118800E+02  0.7816164E-02  0.1184000E+00
        -11   -1    0    0    0    0  0.00000000000E+00  0.00000000000E+00  0.45593999997E+02  0.45594000000E+02  0.51100000000E-03 0.  1.
         11   -1    0    0    0    0 -0.00000000000E+00 -0.00000000000E+00 -0.45593999997E+02  0.45594000000E+02  0.51100000000E-03 0. -1.
         23    2    1    2    0    0  0.00000000000E+00 -0.35527136788E-14 -0.17763568394E-14  0.91188000000E+02  0.91188000000E+02 0.  0.
    9900012    2    3    3    0    0  0.20448647146E+02 -0.27796179948E+02  0.12845429040E+02  0.54367084246E+02  0.40000000155E+02 0.  0.
         12    1    3    3    0    0 -0.20448647146E+02  0.27796179948E+02 -0.12845429040E+02  0.36820915754E+02  0.00000000000E+00 0. -1.
         11    1    4    4    0    0  0.79129988068E+01 -0.50830532686E+01  0.54885896139E+01  0.10889334087E+02  0.51100000000E-03 0. -1.
        -11    1    4    4    0    0  0.21027399512E+02 -0.40425740782E+01  0.82513343641E+01  0.22947297324E+02  0.51100000000E-03 0.  1.
         12    1    4    4    0    0 -0.84917511730E+01 -0.18670552601E+02 -0.89449493835E+00  0.20530452835E+02  0.00000000000E+00 0. -1.
</event>
<event>
 8    1  0.2472977E-006  0.9118800E+02  0.7816164E-02  0.1184000E+00
        -11   -1    0    0    0    0  0.00000000000E+00  0.00000000000E+00  0.45593999997E+02  0.45594000000E+02  0.51100000000E-03 0. -1.
         11   -1    0    0    0    0 -0.00000000000E+00 -0.00000000000E+00 -0.45593999997E+02  0.45594000000E+02  0.51100000000E-03 0.  1.
         23    2    1    2    0    0  0.00000000000E+00  0.88817841970E-15  0.00000000000E+00  0.91188000000E+02  0.91188000000E+02 0.  0.
    9900012    2    3    3    0    0 -0.28043758662E+02  0.64542992716E+01  0.22971068412E+02  0.54367077103E+02  0.39999983871E+02 0.  0.
        -12    1    3    3    0    0  0.28043758662E+02 -0.64542992716E+01 -0.22971068412E+02  0.36820922897E+02  0.00000000000E+00 0.  1.
         11    1    4    4    0    0 -0.88809945998E+01  0.44326096429E+01  0.64113369262E+01  0.11816316464E+02  0.51100000000E-03 0. -1.
        -11    1    4    4    0    0 -0.23329878800E+02 -0.87452994966E+01  0.18247767559E+02  0.30882754561E+02  0.51100000000E-03 0.  1.
        -12    1    4    4    0    0  0.41671147374E+01  0.10766989125E+02 -0.16880360733E+01  0.11668006078E+02  0.00000000000E+00 0.  1.
</event>
<event>
 8    1  0.2472977E-006  0.9118800E+02  0.7816164E-02  0.1184000E+00
        -11   -1    0    0    0    0  0.00000000000E+00  0.00000000000E+00  0.45593999997E+02  0.45594000000E+02  0.51100000000E-03 0.  1.
         11   -1    0    0    0    0 -0.00000000000E+00 -0.00000000000E+00 -0.45593999997E+02  0.45594000000E+02  0.51100000000E-03 0. -1.
         23    2    1    2    0    0  0.88817841970E-15 -0.71054273576E-14 -0.71054273576E-14  0.91188000000E+02  0.91188000000E+02 0.  0.
    9900012    2    3    3    0    0  0.40336037307E+01  0.25228598847E+02  0.26514623128E+02  0.54367117359E+02  0.40000075644E+02 0.  0.
         12    1    3    3    0    0 -0.40336037307E+01 -0.25228598847E+02 -0.26514623128E+02  0.36820882641E+02  0.00000000000E+00 0. -1.
         11    1    4    4    0    0  0.12652776761E+02 -0.40922964496E+00  0.59233760268E+00  0.12673243183E+02  0.51100000000E-03 0. -1.
        -11    1    4    4    0    0  0.19375072688E+01  0.19405710083E+02  0.11031201834E+02  0.22405868258E+02  0.51100000000E-03 0.  1.
         12    1    4    4    0    0 -0.10556680299E+02  0.62321184090E+01  0.14891083692E+02  0.19288005919E+02  0.00000000000E+00 0. -1.
</event>
<event>
 8    1  0.2472977E-006  0.9118800E+02  0.7816164E-02  0.1184000E+00
        -11   -1    0    0    0    0  0.00000000000E+00  0.00000000000E+00  0.45593999997E+02  0.45594000000E+02  0.51100000000E-03 0. -1.
         11   -1    0    0    0    0 -0.00000000000E+00 -0.00000000000E+00 -0.45593999997E+02  0.45594000000E+02  0.51100000000E-03 0.  1.
         23    2    1    2    0    0  0.00000000000E+00  0.44408920985E-15  0.00000000000E+00  0.91188000000E+02  0.91188000000E+02 0.  0.
    9900012    2    3    3    0    0  0.15793839531E+02  0.29186161644E+01  0.33133302819E+02  0.54367089594E+02  0.40000012348E+02 0.  0.
        -12    1    3    3    0    0 -0.15793839531E+02 -0.29186161644E+01 -0.33133302819E+02  0.36820910406E+02  0.00000000000E+00 0.  1.
         11    1    4    4    0    0  0.46097847201E+01 -0.15123168068E+02  0.51038161838E+01  0.16613526642E+02  0.51100000000E-03 0. -1.
        -11    1    4    4    0    0  0.14415248103E+02  0.14187754502E+02  0.21612579732E+02  0.29600597268E+02  0.51100000000E-03 0.  1.
         12    1    4    4    0    0 -0.32311932926E+01  0.38540297303E+01  0.64169069032E+01  0.81529656849E+01  0.00000000000E+00 0. -1.
</event>
<event>
 8    1  0.2472977E-006  0.9118800E+02  0.7816164E-02  0.1184000E+00
        -11   -1    0    0    0    0  0.00000000000E+00  0.00000000000E+00  0.45593999997E+02  0.45594000000E+02  0.51100000000E-03 0.  1.
         11   -1    0    0    0    0 -0.00000000000E+00 -0.00000000000E+00 -0.45593999997E+02  0.45594000000E+02  0.51100000000E-03 0. -1.
         23    2    1    2    0    0 -0.66613381478E-15  0.71054273576E-14  0.00000000000E+00  0.91188000000E+02  0.91188000000E+02 0.  0.
    9900012    2    3    3    0    0 -0.12417843618E+01  0.36440220922E+02 -0.51330455081E+01  0.54367083588E+02  0.39999998655E+02 0.  0.
         12    1    3    3    0    0  0.12417843618E+01 -0.36440220922E+02  0.51330455081E+01  0.36820916412E+02  0.00000000000E+00 0. -1.
         11    1    4    4    0    0  0.51939962328E+01  0.51169596768E+01  0.42981558600E+01  0.84637472351E+01  0.51100000000E-03 0. -1.
        -11    1    4    4    0    0 -0.54455236637E+01 -0.54347247398E+01 -0.41896496773E+01  0.87603153853E+01  0.51100000000E-03 0.  1.
        -12    1    4    4    0    0 -0.99025693093E+00  0.36757985985E+02 -0.52415516908E+01  0.37143020967E+02  0.00000000000E+00 0.  1.
</event>
<event>
 8    1  0.2472977E-006  0.9118800E+02  0.7816164E-02  0.1184000E+00
        -11   -1    0    0    0    0  0.00000000000E+00  0.00000000000E+00  0.45593999997E+02  0.45594000000E+02  0.51100000000E-03 0.  1.
         11   -1    0    0    0    0 -0.00000000000E+00 -0.00000000000E+00 -0.45593999997E+02  0.45594000000E+02  0.51100000000E-03 0. -1.
         23    2    1    2    0    0  0.35527136788E-14 -0.35527136788E-14  0.17763568394E-14  0.91188000000E+02  0.91188000000E+02 0.  0.
    9900012    2    3    3    0    0  0.31311502525E+02 -0.18732902582E+02 -0.49445311148E+01  0.54367079079E+02  0.39999988377E+02 0.  0.
        -12    1    3    3    0    0 -0.31311502525E+02  0.18732902582E+02  0.49445311148E+01  0.36820920921E+02  0.00000000000E+00 0.  1.
         11    1    4    4    0    0 -0.40575610448E+00 -0.22516972402E+01 -0.19333837072E+01  0.29954551070E+01  0.51100000000E-03 0. -1.
        -11    1    4    4    0    0  0.39035127065E+01 -0.14406516188E+02 -0.14865621685E+02  0.21065892539E+02  0.51100000000E-03 0.  1.
         12    1    4    4    0    0  0.27813745923E+02 -0.20746891535E+01  0.11854474277E+02  0.30305731433E+02  0.00000000000E+00 0. -1.
</event>
<event>
 8    1  0.2472977E-006  0.9118800E+02  0.7816164E-02  0.1184000E+00
        -11   -1    0    0    0    0  0.00000000000E+00  0.00000000000E+00  0.45593999997E+02  0.45594000000E+02  0.51100000000E-03 0.  1.
         11   -1    0    0    0    0 -0.00000000000E+00 -0.00000000000E+00 -0.45593999997E+02  0.45594000000E+02  0.51100000000E-03 0. -1.
         23    2    1    2    0    0 -0.17763568394E-14  0.00000000000E+00  0.00000000000E+00  0.91188000000E+02  0.91188000000E+02 0.  0.
    9900012    2    3    3    0    0  0.23660474046E+01 -0.21661442788E+02 -0.29681028756E+02  0.54367085400E+02  0.40000002786E+02 0.  0.
        -12    1    3    3    0    0 -0.23660474046E+01  0.21661442788E+02  0.29681028756E+02  0.36820914600E+02  0.00000000000E+00 0.  1.
         11    1    4    4    0    0  0.38814741082E+01  0.39947699363E+01 -0.24079907555E+01  0.60681502813E+01  0.51100000000E-03 0. -1.
        -11    1    4    4    0    0 -0.12860771150E+02 -0.12465161936E+01 -0.96252463923E+01  0.16112063976E+02  0.51100000000E-03 0.  1.
        -12    1    4    4    0    0  0.11345344446E+02 -0.24409696531E+02 -0.17647791608E+02  0.32186871143E+02  0.00000000000E+00 0.  1.
</event>
<event>
 8    1  0.2472977E-006  0.9118800E+02  0.7816164E-02  0.1184000E+00
        -11   -1    0    0    0    0  0.00000000000E+00  0.00000000000E+00  0.45593999997E+02  0.45594000000E+02  0.51100000000E-03 0. -1.
         11   -1    0    0    0    0 -0.00000000000E+00 -0.00000000000E+00 -0.45593999997E+02  0.45594000000E+02  0.51100000000E-03 0.  1.
         23    2    1    2    0    0  0.00000000000E+00  0.00000000000E+00  0.00000000000E+00  0.91188000000E+02  0.91188000000E+02 0.  0.
    9900012    2    3    3    0    0  0.15474657934E+02 -0.10574531111E+02 -0.31693745324E+02  0.54367092365E+02  0.40000018665E+02 0.  0.
         12    1    3    3    0    0 -0.15474657934E+02  0.10574531111E+02  0.31693745324E+02  0.36820907635E+02  0.00000000000E+00 0. -1.
         11    1    4    4    0    0  0.16284248649E+02  0.41582000331E+01 -0.45361999054E+01  0.17408173121E+02  0.51100000000E-03 0. -1.
        -11    1    4    4    0    0  0.66996126273E+01  0.16658314506E+01 -0.92558041049E+01  0.11546848647E+02  0.51100000000E-03 0.  1.
         12    1    4    4    0    0 -0.75092033419E+01 -0.16398562595E+02 -0.17901741314E+02  0.25412070598E+02  0.00000000000E+00 0. -1.
</event>
<event>
 8    1  0.2472977E-006  0.9118800E+02  0.7816164E-02  0.1184000E+00
        -11   -1    0    0    0    0  0.00000000000E+00  0.00000000000E+00  0.45593999997E+02  0.45594000000E+02  0.51100000000E-03 0.  1.
         11   -1    0    0    0    0 -0.00000000000E+00 -0.00000000000E+00 -0.45593999997E+02  0.45594000000E+02  0.51100000000E-03 0. -1.
         23    2    1    2    0    0  0.00000000000E+00  0.71054273576E-14  0.17763568394E-14  0.91188000000E+02  0.91188000000E+02 0.  0.
    9900012    2    3    3    0    0  0.63446662352E+01 -0.33845845653E+02  0.13037801271E+02  0.54367077692E+02  0.39999985215E+02 0.  0.
        -12    1    3    3    0    0 -0.63446662352E+01  0.33845845653E+02 -0.13037801271E+02  0.36820922308E+02  0.00000000000E+00 0.  1.
         11    1    4    4    0    0 -0.32246112215E+01 -0.22386168354E+02  0.22883428257E+02  0.32174367751E+02  0.51100000000E-03 0. -1.
        -11    1    4    4    0    0  0.12900022720E+02 -0.95448078272E+01 -0.79410524124E+01  0.17904587577E+02  0.51100000000E-03 0.  1.
         12    1    4    4    0    0 -0.33307452636E+01 -0.19148694718E+01 -0.19045745734E+01  0.42881223642E+01  0.00000000000E+00 0. -1.
</event>
<event>
 8    1  0.2472977E-006  0.9118800E+02  0.7816164E-02  0.1184000E+00
        -11   -1    0    0    0    0  0.00000000000E+00  0.00000000000E+00  0.45593999997E+02  0.45594000000E+02  0.51100000000E-03 0.  1.
         11   -1    0    0    0    0 -0.00000000000E+00 -0.00000000000E+00 -0.45593999997E+02  0.45594000000E+02  0.51100000000E-03 0. -1.
         23    2    1    2    0    0  0.35527136788E-14  0.35527136788E-14  0.17763568394E-14  0.91188000000E+02  0.91188000000E+02 0.  0.
    9900012    2    3    3    0    0  0.20826723556E+02  0.25932400361E+02  0.15796784752E+02  0.54367079166E+02  0.39999988575E+02 0.  0.
         12    1    3    3    0    0 -0.20826723556E+02 -0.25932400361E+02 -0.15796784752E+02  0.36820920834E+02  0.00000000000E+00 0. -1.
         11    1    4    4    0    0  0.21217397986E+01  0.10381553878E-01 -0.55949802105E+01  0.59837857052E+01  0.51100000000E-03 0. -1.
        -11    1    4    4    0    0 -0.49330023919E+01  0.16880384455E+02  0.12428008597E+02  0.21534560360E+02  0.51100000000E-03 0.  1.
         12    1    4    4    0    0  0.23637986149E+02  0.90416343526E+01  0.89637563653E+01  0.26848733101E+02  0.00000000000E+00 0. -1.
</event>
<event>
 8    1  0.2472977E-006  0.9118800E+02  0.7816164E-02  0.1184000E+00
        -11   -1    0    0    0    0  0.00000000000E+00  0.00000000000E+00  0.45593999997E+02  0.45594000000E+02  0.51100000000E-03 0.  1.
         11   -1    0    0    0    0 -0.00000000000E+00 -0.00000000000E+00 -0.45593999997E+02  0.45594000000E+02  0.51100000000E-03 0. -1.
         23    2    1    2    0    0 -0.88817841970E-15  0.35527136788E-14 -0.35527136788E-14  0.91188000000E+02  0.91188000000E+02 0.  0.
    9900012    2    3    3    0    0 -0.56907585117E+01  0.25078863053E+02 -0.26352338197E+02  0.54367084301E+02  0.40000000281E+02 0.  0.
        -12    1    3    3    0    0  0.56907585117E+01 -0.25078863053E+02  0.26352338197E+02  0.36820915699E+02  0.00000000000E+00 0.  1.
         11    1    4    4    0    0 -0.17279347165E+01  0.12035214689E+02 -0.18623151221E+01  0.12300421491E+02  0.51100000000E-03 0. -1.
        -11    1    4    4    0    0  0.46732602155E+01 -0.45846228624E+01 -0.21168389321E+02  0.22157590901E+02  0.51100000000E-03 0.  1.
        -12    1    4    4    0    0 -0.86360840107E+01  0.17628271227E+02 -0.33216337537E+01  0.19909071909E+02  0.00000000000E+00 0.  1.
</event>
<event>
 8    1  0.2472977E-006  0.9118800E+02  0.7816164E-02  0.1184000E+00
        -11   -1    0    0    0    0  0.00000000000E+00  0.00000000000E+00  0.45593999997E+02  0.45594000000E+02  0.51100000000E-03 0. -1.
         11   -1    0    0    0    0 -0.00000000000E+00 -0.00000000000E+00 -0.45593999997E+02  0.45594000000E+02  0.51100000000E-03 0.  1.
         23    2    1    2    0    0  0.88817841970E-15 -0.35527136788E-14  0.00000000000E+00  0.91188000000E+02  0.91188000000E+02 0.  0.
    9900012    2    3    3    0    0 -0.63274714787E+01  0.15850693217E+02  0.32626650812E+02  0.54367085915E+02  0.40000003961E+02 0.  0.
        -12    1    3    3    0    0  0.63274714787E+01 -0.15850693217E+02 -0.32626650812E+02  0.36820914085E+02  0.00000000000E+00 0.  1.
         11    1    4    4    0    0 -0.51718248149E+01 -0.19583154826E+01  0.17953184713E+02  0.18785622509E+02  0.51100000000E-03 0. -1.
        -11    1    4    4    0    0  0.86108683074E+01 -0.22259203292E+01 -0.44708263931E-02  0.88939189657E+01  0.51100000000E-03 0.  1.
         12    1    4    4    0    0 -0.97665149711E+01  0.20034929029E+02  0.14677936926E+02  0.26687544441E+02  0.00000000000E+00 0. -1.
</event>
<event>
 8    1  0.2472977E-006  0.9118800E+02  0.7816164E-02  0.1184000E+00
        -11   -1    0    0    0    0  0.00000000000E+00  0.00000000000E+00  0.45593999997E+02  0.45594000000E+02  0.51100000000E-03 0.  1.
         11   -1    0    0    0    0 -0.00000000000E+00 -0.00000000000E+00 -0.45593999997E+02  0.45594000000E+02  0.51100000000E-03 0. -1.
         23    2    1    2    0    0  0.00000000000E+00  0.00000000000E+00 -0.35527136788E-14  0.91188000000E+02  0.91188000000E+02 0.  0.
    9900012    2    3    3    0    0 -0.20730106261E+02 -0.26063240880E+02 -0.15708278764E+02  0.54367084035E+02  0.39999999674E+02 0.  0.
        -12    1    3    3    0    0  0.20730106261E+02  0.26063240880E+02  0.15708278764E+02  0.36820915965E+02  0.00000000000E+00 0.  1.
         11    1    4    4    0    0 -0.14113356927E+02 -0.32635968854E+01  0.76747306316E+01  0.16393272977E+02  0.51100000000E-03 0. -1.
        -11    1    4    4    0    0 -0.31017879317E+01 -0.87004682054E+01  0.13034348608E+01  0.93283534487E+01  0.51100000000E-03 0.  1.
         12    1    4    4    0    0 -0.35149614023E+01 -0.14099175790E+02 -0.24686444257E+02  0.28645457609E+02  0.00000000000E+00 0. -1.
</event>
<event>
 8    1  0.2472977E-006  0.9118800E+02  0.7816164E-02  0.1184000E+00
        -11   -1    0    0    0    0  0.00000000000E+00  0.00000000000E+00  0.45593999997E+02  0.45594000000E+02  0.51100000000E-03 0.  1.
         11   -1    0    0    0    0 -0.00000000000E+00 -0.00000000000E+00 -0.45593999997E+02  0.45594000000E+02  0.51100000000E-03 0. -1.
         23    2    1    2    0    0  0.35527136788E-14  0.00000000000E+00  0.35527136788E-14  0.91188000000E+02  0.91188000000E+02 0.  0.
    9900012    2    3    3    0    0 -0.26319411788E+02 -0.15302080225E+02  0.20710276399E+02  0.54367073279E+02  0.39999975153E+02 0.  0.
         12    1    3    3    0    0  0.26319411788E+02  0.15302080225E+02 -0.20710276399E+02  0.36820926721E+02  0.00000000000E+00 0. -1.
         11    1    4    4    0    0 -0.32523109471E+01 -0.12423857126E+02  0.17831470562E+02  0.21974783163E+02  0.51100000000E-03 0. -1.
        -11    1    4    4    0    0 -0.33565050165E+01 -0.68816528302E+01  0.85674986541E+01  0.11490226501E+02  0.51100000000E-03 0.  1.
         12    1    4    4    0    0 -0.19710595825E+02  0.40034297316E+01 -0.56886928168E+01  0.20902063614E+02  0.00000000000E+00 0. -1.
</event>
<event>
 8    1  0.2472977E-006  0.9118800E+02  0.7816164E-02  0.1184000E+00
        -11   -1    0    0    0    0  0.00000000000E+00  0.00000000000E+00  0.45593999997E+02  0.45594000000E+02  0.51100000000E-03 0. -1.
         11   -1    0    0    0    0 -0.00000000000E+00 -0.00000000000E+00 -0.45593999997E+02  0.45594000000E+02  0.51100000000E-03 0.  1.
         23    2    1    2    0    0  0.00000000000E+00  0.00000000000E+00  0.00000000000E+00  0.91188000000E+02  0.91188000000E+02 0.  0.
    9900012    2    3    3    0    0 -0.93774603798E+01 -0.28051105564E+02 -0.21931259176E+02  0.54367062810E+02  0.39999951287E+02 0.  0.
         12    1    3    3    0    0  0.93774603798E+01  0.28051105564E+02  0.21931259176E+02  0.36820937190E+02  0.00000000000E+00 0. -1.
         11    1    4    4    0    0 -0.12239693163E+01  0.95580615789E+01 -0.40228570966E+01  0.10442127250E+02  0.51100000000E-03 0. -1.
        -11    1    4    4    0    0 -0.10034244328E+01 -0.25796715695E+02 -0.83558753120E+01  0.27134812580E+02  0.51100000000E-03 0.  1.
        -12    1    4    4    0    0 -0.71500666307E+01 -0.11812451447E+02 -0.95525267673E+01  0.16790122979E+02  0.00000000000E+00 0.  1.
</event>
<event>
 8    1  0.2472977E-006  0.9118800E+02  0.7816164E-02  0.1184000E+00
        -11   -1    0    0    0    0  0.00000000000E+00  0.00000000000E+00  0.45593999997E+02  0.45594000000E+02  0.51100000000E-03 0.  1.
         11   -1    0    0    0    0 -0.00000000000E+00 -0.00000000000E+00 -0.45593999997E+02  0.45594000000E+02  0.51100000000E-03 0. -1.
         23    2    1    2    0    0  0.00000000000E+00 -0.26645352591E-14 -0.22204460493E-15  0.91188000000E+02  0.91188000000E+02 0.  0.
    9900012    2    3    3    0    0 -0.36680478624E+02  0.25818246897E+01  0.19122069339E+01  0.54367083849E+02  0.39999999250E+02 0.  0.
         12    1    3    3    0    0  0.36680478624E+02 -0.25818246897E+01 -0.19122069339E+01  0.36820916151E+02  0.00000000000E+00 0. -1.
         11    1    4    4    0    0 -0.22711134866E+02 -0.16909730922E+02 -0.18036610189E+01  0.28372307628E+02  0.51100000000E-03 0. -1.
        -11    1    4    4    0    0 -0.12384229512E+02  0.14884327993E+02  0.64488534890E+01  0.20408333395E+02  0.51100000000E-03 0.  1.
        -12    1    4    4    0    0 -0.15851142464E+01  0.46072276190E+01 -0.27329855362E+01  0.55864428260E+01  0.00000000000E+00 0.  1.
</event>
<event>
 8    1  0.2472977E-006  0.9118800E+02  0.7816164E-02  0.1184000E+00
        -11   -1    0    0    0    0  0.00000000000E+00  0.00000000000E+00  0.45593999997E+02  0.45594000000E+02  0.51100000000E-03 0. -1.
         11   -1    0    0    0    0 -0.00000000000E+00 -0.00000000000E+00 -0.45593999997E+02  0.45594000000E+02  0.51100000000E-03 0.  1.
         23    2    1    2    0    0 -0.71054273576E-14 -0.17763568394E-14 -0.35527136788E-14  0.91188000000E+02  0.91188000000E+02 0.  0.
    9900012    2    3    3    0    0 -0.30090738435E+02 -0.13472397219E+02 -0.16395761334E+02  0.54367095393E+02  0.40000025567E+02 0.  0.
         12    1    3    3    0    0  0.30090738435E+02  0.13472397219E+02  0.16395761334E+02  0.36820904607E+02  0.00000000000E+00 0. -1.
         11    1    4    4    0    0 -0.17482427769E+02  0.66541761775E+01 -0.61640567581E+01  0.19695403963E+02  0.51100000000E-03 0. -1.
        -11    1    4    4    0    0 -0.13921697342E+02 -0.14331126452E+02  0.29651074546E+01  0.20198680767E+02  0.51100000000E-03 0.  1.
        -12    1    4    4    0    0  0.13133866761E+01 -0.57954469447E+01 -0.13196812031E+02  0.14473010662E+02  0.00000000000E+00 0.  1.
</event>
<event>
 8    1  0.2472977E-006  0.9118800E+02  0.7816164E-02  0.1184000E+00
        -11   -1    0    0    0    0  0.00000000000E+00  0.00000000000E+00  0.45593999997E+02  0.45594000000E+02  0.51100000000E-03 0.  1.
         11   -1    0    0    0    0 -0.00000000000E+00 -0.00000000000E+00 -0.45593999997E+02  0.45594000000E+02  0.51100000000E-03 0. -1.
         23    2    1    2    0    0  0.00000000000E+00  0.00000000000E+00  0.00000000000E+00  0.91188000000E+02  0.91188000000E+02 0.  0.
    9900012    2    3    3    0    0  0.26555200769E+02  0.74725782371E-01 -0.25506757684E+02  0.54367096162E+02  0.40000027322E+02 0.  0.
        -12    1    3    3    0    0 -0.26555200769E+02 -0.74725782371E-01  0.25506757684E+02  0.36820903838E+02  0.00000000000E+00 0.  1.
         11    1    4    4    0    0  0.16774241146E+02 -0.69880632673E+00 -0.69019349125E+01  0.18152140428E+02  0.51100000000E-03 0. -1.
        -11    1    4    4    0    0  0.19950116856E+02 -0.12141263063E+01 -0.84273008494E+01  0.21691027296E+02  0.51100000000E-03 0.  1.
         12    1    4    4    0    0 -0.10169157233E+02  0.19876584154E+01 -0.10177521922E+02  0.14523928439E+02  0.00000000000E+00 0. -1.
</event>
<event>
 8    1  0.2472977E-006  0.9118800E+02  0.7816164E-02  0.1184000E+00
        -11   -1    0    0    0    0  0.00000000000E+00  0.00000000000E+00  0.45593999997E+02  0.45594000000E+02  0.51100000000E-03 0.  1.
         11   -1    0    0    0    0 -0.00000000000E+00 -0.00000000000E+00 -0.45593999997E+02  0.45594000000E+02  0.51100000000E-03 0. -1.
         23    2    1    2    0    0  0.00000000000E+00  0.00000000000E+00  0.17763568394E-14  0.91188000000E+02  0.91188000000E+02 0.  0.
    9900012    2    3    3    0    0 -0.20739821251E+02 -0.28680779126E+02 -0.10151439738E+02  0.54367095536E+02  0.40000025893E+02 0.  0.
        -12    1    3    3    0    0  0.20739821251E+02  0.28680779126E+02  0.10151439738E+02  0.36820904464E+02  0.00000000000E+00 0.  1.
         11    1    4    4    0    0 -0.11062442316E+02 -0.55579215041E+01 -0.12522720336E+02  0.17609277280E+02  0.51100000000E-03 0. -1.
        -11    1    4    4    0    0 -0.18419436632E+02 -0.16339967964E+02  0.55603022955E+01  0.25242566446E+02  0.51100000000E-03 0.  1.
        -12    1    4    4    0    0  0.87420576961E+01 -0.67828896579E+01 -0.31890216974E+01  0.11515251811E+02  0.00000000000E+00 0.  1.
</event>
<event>
 8    1  0.2472977E-006  0.9118800E+02  0.7816164E-02  0.1184000E+00
        -11   -1    0    0    0    0  0.00000000000E+00  0.00000000000E+00  0.45593999997E+02  0.45594000000E+02  0.51100000000E-03 0. -1.
         11   -1    0    0    0    0 -0.00000000000E+00 -0.00000000000E+00 -0.45593999997E+02  0.45594000000E+02  0.51100000000E-03 0.  1.
         23    2    1    2    0    0 -0.71054273576E-14  0.22204460493E-15  0.71054273576E-14  0.91188000000E+02  0.91188000000E+02 0.  0.
    9900012    2    3    3    0    0 -0.32134094662E+02  0.11879709877E+01  0.17937608773E+02  0.54367229729E+02  0.40000331813E+02 0.  0.
        -12    1    3    3    0    0  0.32134094662E+02 -0.11879709877E+01 -0.17937608773E+02  0.36820770271E+02  0.00000000000E+00 0.  1.
         11    1    4    4    0    0 -0.76573311326E+01  0.41242433690E+01 -0.56084041283E+01  0.10348830879E+02  0.51100000000E-03 0. -1.
        -11    1    4    4    0    0 -0.15433550952E+01 -0.73449694398E+01 -0.35032383230E+01  0.82827048740E+01  0.51100000000E-03 0.  1.
         12    1    4    4    0    0 -0.22933408434E+02  0.44086970585E+01  0.27049251224E+02  0.35735693976E+02  0.00000000000E+00 0. -1.
</event>
<event>
 8    1  0.2472977E-006  0.9118800E+02  0.7816164E-02  0.1184000E+00
        -11   -1    0    0    0    0  0.00000000000E+00  0.00000000000E+00  0.45593999997E+02  0.45594000000E+02  0.51100000000E-03 0.  1.
         11   -1    0    0    0    0 -0.00000000000E+00 -0.00000000000E+00 -0.45593999997E+02  0.45594000000E+02  0.51100000000E-03 0. -1.
         23    2    1    2    0    0  0.00000000000E+00  0.00000000000E+00  0.00000000000E+00  0.91188000000E+02  0.91188000000E+02 0.  0.
    9900012    2    3    3    0    0 -0.23292501270E+02 -0.14460280817E+02  0.24579261633E+02  0.54367076069E+02  0.39999981514E+02 0.  0.
         12    1    3    3    0    0  0.23292501270E+02  0.14460280817E+02 -0.24579261633E+02  0.36820923931E+02  0.00000000000E+00 0. -1.
         11    1    4    4    0    0 -0.13844492237E+02 -0.11286758688E+02  0.91077788309E+01  0.20050249936E+02  0.51100000000E-03 0. -1.
        -11    1    4    4    0    0 -0.19878596666E+02 -0.63386336382E+00  0.96892687461E+01  0.22123343266E+02  0.51100000000E-03 0.  1.
        -12    1    4    4    0    0  0.10430587634E+02 -0.25396587649E+01  0.57822140563E+01  0.12193482866E+02  0.00000000000E+00 0.  1.
</event>
<event>
 8    1  0.2472977E-006  0.9118800E+02  0.7816164E-02  0.1184000E+00
        -11   -1    0    0    0    0  0.00000000000E+00  0.00000000000E+00  0.45593999997E+02  0.45594000000E+02  0.51100000000E-03 0. -1.
         11   -1    0    0    0    0 -0.00000000000E+00 -0.00000000000E+00 -0.45593999997E+02  0.45594000000E+02  0.51100000000E-03 0.  1.
         23    2    1    2    0    0  0.00000000000E+00  0.00000000000E+00 -0.17763568394E-14  0.91188000000E+02  0.91188000000E+02 0.  0.
    9900012    2    3    3    0    0  0.32784352255E+02  0.10223024100E+02 -0.13283703338E+02  0.54367071863E+02  0.39999971926E+02 0.  0.
         12    1    3    3    0    0 -0.32784352255E+02 -0.10223024100E+02  0.13283703338E+02  0.36820928137E+02  0.00000000000E+00 0. -1.
         11    1    4    4    0    0  0.13695686544E+02  0.70881026016E+01  0.11098661906E+02  0.18999824335E+02  0.51100000000E-03 0. -1.
        -11    1    4    4    0    0  0.14338464583E+02  0.98458831271E+01 -0.16835446103E+02  0.24206718631E+02  0.51100000000E-03 0.  1.
        -12    1    4    4    0    0  0.47502011277E+01 -0.67109616287E+01 -0.75469191402E+01  0.11160528896E+02  0.00000000000E+00 0.  1.
</event>
<event>
 8    1  0.2472977E-006  0.9118800E+02  0.7816164E-02  0.1184000E+00
        -11   -1    0    0    0    0  0.00000000000E+00  0.00000000000E+00  0.45593999997E+02  0.45594000000E+02  0.51100000000E-03 0. -1.
         11   -1    0    0    0    0 -0.00000000000E+00 -0.00000000000E+00 -0.45593999997E+02  0.45594000000E+02  0.51100000000E-03 0.  1.
         23    2    1    2    0    0  0.00000000000E+00  0.00000000000E+00  0.88817841970E-15  0.91188000000E+02  0.91188000000E+02 0.  0.
    9900012    2    3    3    0    0  0.12545484354E+02  0.34255002513E+02 -0.49984715784E+01  0.54367094349E+02  0.40000023187E+02 0.  0.
         12    1    3    3    0    0 -0.12545484354E+02 -0.34255002513E+02  0.49984715784E+01  0.36820905651E+02  0.00000000000E+00 0. -1.
         11    1    4    4    0    0  0.10964948720E+02  0.27677889203E+02 -0.97111690259E+01  0.31314572571E+02  0.51100000000E-03 0. -1.
        -11    1    4    4    0    0  0.28980128563E+01 -0.41069004347E+01 -0.60259948221E+01  0.78471474787E+01  0.51100000000E-03 0.  1.
         12    1    4    4    0    0 -0.13174772218E+01  0.10684013744E+02  0.10738692270E+02  0.15205374299E+02  0.00000000000E+00 0. -1.
</event>
<event>
 8    1  0.2472977E-006  0.9118800E+02  0.7816164E-02  0.1184000E+00
        -11   -1    0    0    0    0  0.00000000000E+00  0.00000000000E+00  0.45593999997E+02  0.45594000000E+02  0.51100000000E-03 0. -1.
         11   -1    0    0    0    0 -0.00000000000E+00 -0.00000000000E+00 -0.45593999997E+02  0.45594000000E+02  0.51100000000E-03 0.  1.
         23    2    1    2    0    0  0.00000000000E+00  0.00000000000E+00  0.00000000000E+00  0.91188000000E+02  0.91188000000E+02 0.  0.
    9900012    2    3    3    0    0 -0.27105578083E+02 -0.88539888062E+01  0.23295347403E+02  0.54367099799E+02  0.40000035612E+02 0.  0.
        -12    1    3    3    0    0  0.27105578083E+02  0.88539888062E+01 -0.23295347403E+02  0.36820900201E+02  0.00000000000E+00 0.  1.
         11    1    4    4    0    0 -0.13951722967E+02 -0.97668465846E+01  0.28346351108E+01  0.17264907253E+02  0.51100000000E-03 0. -1.
        -11    1    4    4    0    0 -0.16501919337E+02 -0.84553901197E+01  0.19807874773E+02  0.27132247735E+02  0.51100000000E-03 0.  1.
         12    1    4    4    0    0  0.33480642218E+01  0.93682478982E+01  0.65283751983E+00  0.99699448114E+01  0.00000000000E+00 0. -1.
</event>
<event>
 8    1  0.2472977E-006  0.9118800E+02  0.7816164E-02  0.1184000E+00
        -11   -1    0    0    0    0  0.00000000000E+00  0.00000000000E+00  0.45593999997E+02  0.45594000000E+02  0.51100000000E-03 0. -1.
         11   -1    0    0    0    0 -0.00000000000E+00 -0.00000000000E+00 -0.45593999997E+02  0.45594000000E+02  0.51100000000E-03 0.  1.
         23    2    1    2    0    0 -0.88817841970E-15  0.00000000000E+00  0.00000000000E+00  0.91188000000E+02  0.91188000000E+02 0.  0.
    9900012    2    3    3    0    0 -0.46793250535E+01  0.22358527183E+02  0.28878478345E+02  0.54367267630E+02  0.40000418214E+02 0.  0.
        -12    1    3    3    0    0  0.46793250535E+01 -0.22358527183E+02 -0.28878478345E+02  0.36820732370E+02  0.00000000000E+00 0.  1.
         11    1    4    4    0    0 -0.16306225909E+02 -0.74655450991E+00  0.69880004486E+01  0.17756196033E+02  0.51100000000E-03 0. -1.
        -11    1    4    4    0    0 -0.26430380755E+01  0.87067113657E+00  0.32434521439E+01  0.42736051019E+01  0.51100000000E-03 0.  1.
         12    1    4    4    0    0  0.14269938931E+02  0.22234410556E+02  0.18647025752E+02  0.32337466495E+02  0.00000000000E+00 0. -1.
</event>
<event>
 8    1  0.2472977E-006  0.9118800E+02  0.7816164E-02  0.1184000E+00
        -11   -1    0    0    0    0  0.00000000000E+00  0.00000000000E+00  0.45593999997E+02  0.45594000000E+02  0.51100000000E-03 0.  1.
         11   -1    0    0    0    0 -0.00000000000E+00 -0.00000000000E+00 -0.45593999997E+02  0.45594000000E+02  0.51100000000E-03 0. -1.
         23    2    1    2    0    0  0.00000000000E+00  0.17763568394E-14  0.00000000000E+00  0.91188000000E+02  0.91188000000E+02 0.  0.
    9900012    2    3    3    0    0  0.24484216703E+02 -0.13570530779E+02 -0.23919516188E+02  0.54367089801E+02  0.40000012820E+02 0.  0.
        -12    1    3    3    0    0 -0.24484216703E+02  0.13570530779E+02  0.23919516188E+02  0.36820910199E+02  0.00000000000E+00 0.  1.
         11    1    4    4    0    0  0.29660757859E+02 -0.15744217723E+02 -0.18116786918E+02  0.38155719322E+02  0.51100000000E-03 0. -1.
        -11    1    4    4    0    0  0.40536095122E+01  0.39099593872E+01 -0.12275417024E+01  0.57642338068E+01  0.51100000000E-03 0.  1.
         12    1    4    4    0    0 -0.92301506689E+01 -0.17362724439E+01 -0.45751875680E+01  0.10447136672E+02  0.00000000000E+00 0. -1.
</event>
<event>
 8    1  0.2472977E-006  0.9118800E+02  0.7816164E-02  0.1184000E+00
        -11   -1    0    0    0    0  0.00000000000E+00  0.00000000000E+00  0.45593999997E+02  0.45594000000E+02  0.51100000000E-03 0. -1.
         11   -1    0    0    0    0 -0.00000000000E+00 -0.00000000000E+00 -0.45593999997E+02  0.45594000000E+02  0.51100000000E-03 0.  1.
         23    2    1    2    0    0 -0.22204460493E-15  0.00000000000E+00  0.00000000000E+00  0.91188000000E+02  0.91188000000E+02 0.  0.
    9900012    2    3    3    0    0  0.16407192174E+01 -0.32490630924E+02  0.17246918516E+02  0.54366956348E+02  0.39999708584E+02 0.  0.
        -12    1    3    3    0    0 -0.16407192174E+01  0.32490630924E+02 -0.17246918516E+02  0.36821043652E+02  0.00000000000E+00 0.  1.
         11    1    4    4    0    0  0.10159757033E+02 -0.27686288124E+02  0.13399189508E+02  0.32392738272E+02  0.51100000000E-03 0. -1.
        -11    1    4    4    0    0  0.38367963080E+01 -0.38165082018E+01 -0.44931971306E+01  0.70338866552E+01  0.51100000000E-03 0.  1.
        -12    1    4    4    0    0 -0.12355834124E+02 -0.98783459819E+00  0.83409261383E+01  0.14940331420E+02  0.00000000000E+00 0.  1.
</event>
<event>
 8    1  0.2472977E-006  0.9118800E+02  0.7816164E-02  0.1184000E+00
        -11   -1    0    0    0    0  0.00000000000E+00  0.00000000000E+00  0.45593999997E+02  0.45594000000E+02  0.51100000000E-03 0.  1.
         11   -1    0    0    0    0 -0.00000000000E+00 -0.00000000000E+00 -0.45593999997E+02  0.45594000000E+02  0.51100000000E-03 0. -1.
         23    2    1    2    0    0 -0.88817841970E-15  0.22204460493E-15  0.00000000000E+00  0.91188000000E+02  0.91188000000E+02 0.  0.
    9900012    2    3    3    0    0 -0.63535348646E+01 -0.78634491445E+00  0.36260090716E+02  0.54367083087E+02  0.39999997513E+02 0.  0.
         12    1    3    3    0    0  0.63535348646E+01  0.78634491445E+00 -0.36260090716E+02  0.36820916913E+02  0.00000000000E+00 0. -1.
         11    1    4    4    0    0 -0.10783148050E+02 -0.65521127225E+01  0.68160218839E+01  0.14341011735E+02  0.51100000000E-03 0. -1.
        -11    1    4    4    0    0 -0.55867845695E+01 -0.81638077445E+01  0.12110453253E+02  0.15637231116E+02  0.51100000000E-03 0.  1.
         12    1    4    4    0    0  0.10016397754E+02  0.13929575553E+02  0.17333615579E+02  0.24388840237E+02  0.00000000000E+00 0. -1.
</event>
<event>
 8    1  0.2472977E-006  0.9118800E+02  0.7816164E-02  0.1184000E+00
        -11   -1    0    0    0    0  0.00000000000E+00  0.00000000000E+00  0.45593999997E+02  0.45594000000E+02  0.51100000000E-03 0.  1.
         11   -1    0    0    0    0 -0.00000000000E+00 -0.00000000000E+00 -0.45593999997E+02  0.45594000000E+02  0.51100000000E-03 0. -1.
         23    2    1    2    0    0  0.00000000000E+00 -0.17763568394E-14 -0.35527136788E-14  0.91188000000E+02  0.91188000000E+02 0.  0.
    9900012    2    3    3    0    0  0.21287115416E+02 -0.44615950609E+01  0.29710812926E+02  0.54367088578E+02  0.40000010031E+02 0.  0.
         12    1    3    3    0    0 -0.21287115416E+02  0.44615950609E+01 -0.29710812926E+02  0.36820911422E+02  0.00000000000E+00 0. -1.
         11    1    4    4    0    0 -0.86687130079E+01  0.32706633418E+01  0.14448069489E+02  0.17163639944E+02  0.51100000000E-03 0. -1.
        -11    1    4    4    0    0  0.19120190860E+02 -0.93059611455E+01  0.42720077420E+01  0.21689459693E+02  0.51100000000E-03 0.  1.
        -12    1    4    4    0    0  0.10835637564E+02  0.15737027428E+01  0.10990735695E+02  0.15513988941E+02  0.00000000000E+00 0.  1.
</event>
<event>
 8    1  0.2472977E-006  0.9118800E+02  0.7816164E-02  0.1184000E+00
        -11   -1    0    0    0    0  0.00000000000E+00  0.00000000000E+00  0.45593999997E+02  0.45594000000E+02  0.51100000000E-03 0. -1.
         11   -1    0    0    0    0 -0.00000000000E+00 -0.00000000000E+00 -0.45593999997E+02  0.45594000000E+02  0.51100000000E-03 0.  1.
         23    2    1    2    0    0 -0.35527136788E-14  0.17763568394E-14 -0.35527136788E-14  0.91188000000E+02  0.91188000000E+02 0.  0.
    9900012    2    3    3    0    0 -0.25244488957E+02 -0.11192178810E+02  0.24356336212E+02  0.54367079277E+02  0.39999988828E+02 0.  0.
        -12    1    3    3    0    0  0.25244488957E+02  0.11192178810E+02 -0.24356336212E+02  0.36820920723E+02  0.00000000000E+00 0.  1.
         11    1    4    4    0    0 -0.34813651641E+01 -0.38118187301E+01  0.61061059747E+01  0.79958986907E+01  0.51100000000E-03 0. -1.
        -11    1    4    4    0    0  0.70949102977E+01  0.69310615234E+01  0.13955907549E+01  0.10016238805E+02  0.51100000000E-03 0.  1.
        -12    1    4    4    0    0 -0.28858034091E+02 -0.14311421603E+02  0.16854639482E+02  0.36354941782E+02  0.00000000000E+00 0.  1.
</event>
<event>
 8    1  0.2472977E-006  0.9118800E+02  0.7816164E-02  0.1184000E+00
        -11   -1    0    0    0    0  0.00000000000E+00  0.00000000000E+00  0.45593999997E+02  0.45594000000E+02  0.51100000000E-03 0.  1.
         11   -1    0    0    0    0 -0.00000000000E+00 -0.00000000000E+00 -0.45593999997E+02  0.45594000000E+02  0.51100000000E-03 0. -1.
         23    2    1    2    0    0  0.35527136788E-14 -0.17763568394E-14  0.35527136788E-14  0.91188000000E+02  0.91188000000E+02 0.  0.
    9900012    2    3    3    0    0 -0.17691529696E+02  0.14139328270E+02 -0.29032189184E+02  0.54367097843E+02  0.40000031152E+02 0.  0.
        -12    1    3    3    0    0  0.17691529696E+02 -0.14139328270E+02  0.29032189184E+02  0.36820902157E+02  0.00000000000E+00 0.  1.
         11    1    4    4    0    0 -0.33977608158E+01  0.17441108308E+02 -0.19945564495E+02  0.26712592177E+02  0.51100000000E-03 0. -1.
        -11    1    4    4    0    0 -0.88555974207E+01 -0.13748803573E+00  0.64076243286E+01  0.10931521323E+02  0.51100000000E-03 0.  1.
         12    1    4    4    0    0 -0.54381714594E+01 -0.31642920020E+01 -0.15494249018E+02  0.16722984342E+02  0.00000000000E+00 0. -1.
</event>
<event>
 8    1  0.2472977E-006  0.9118800E+02  0.7816164E-02  0.1184000E+00
        -11   -1    0    0    0    0  0.00000000000E+00  0.00000000000E+00  0.45593999997E+02  0.45594000000E+02  0.51100000000E-03 0.  1.
         11   -1    0    0    0    0 -0.00000000000E+00 -0.00000000000E+00 -0.45593999997E+02  0.45594000000E+02  0.51100000000E-03 0. -1.
         23    2    1    2    0    0  0.00000000000E+00  0.00000000000E+00  0.00000000000E+00  0.91188000000E+02  0.91188000000E+02 0.  0.
    9900012    2    3    3    0    0 -0.19139487833E+02 -0.22824413417E+02  0.21645002956E+02  0.54367082096E+02  0.39999995254E+02 0.  0.
        -12    1    3    3    0    0  0.19139487833E+02  0.22824413417E+02 -0.21645002956E+02  0.36820917904E+02  0.00000000000E+00 0.  1.
         11    1    4    4    0    0 -0.38872573576E+01 -0.18925788153E+02  0.11052671519E+01  0.19352463479E+02  0.51100000000E-03 0. -1.
        -11    1    4    4    0    0 -0.17255863340E+02 -0.64218342313E+01  0.49090002063E+01  0.19055263257E+02  0.51100000000E-03 0.  1.
         12    1    4    4    0    0  0.20036328651E+01  0.25232089674E+01  0.15630735598E+02  0.15959355360E+02  0.00000000000E+00 0. -1.
</event>
<event>
 8    1  0.2472977E-006  0.9118800E+02  0.7816164E-02  0.1184000E+00
        -11   -1    0    0    0    0  0.00000000000E+00  0.00000000000E+00  0.45593999997E+02  0.45594000000E+02  0.51100000000E-03 0.  1.
         11   -1    0    0    0    0 -0.00000000000E+00 -0.00000000000E+00 -0.45593999997E+02  0.45594000000E+02  0.51100000000E-03 0. -1.
         23    2    1    2    0    0  0.00000000000E+00  0.44408920985E-15  0.71054273576E-14  0.91188000000E+02  0.91188000000E+02 0.  0.
    9900012    2    3    3    0    0  0.13661622724E+02  0.17420514387E+01  0.34148234910E+02  0.54367127847E+02  0.40000099552E+02 0.  0.
         12    1    3    3    0    0 -0.13661622724E+02 -0.17420514387E+01 -0.34148234910E+02  0.36820872153E+02  0.00000000000E+00 0. -1.
         11    1    4    4    0    0 -0.99963082563E+01  0.36810162900E+01 -0.35701717527E+00  0.10658495260E+02  0.51100000000E-03 0. -1.
        -11    1    4    4    0    0  0.72428154891E+01  0.26841522745E+01  0.38532799893E+01  0.86319648157E+01  0.51100000000E-03 0.  1.
        -12    1    4    4    0    0  0.16415115491E+02 -0.46231171259E+01  0.30651972096E+02  0.35076667771E+02  0.00000000000E+00 0.  1.
</event>
<event>
 8    1  0.2472977E-006  0.9118800E+02  0.7816164E-02  0.1184000E+00
        -11   -1    0    0    0    0  0.00000000000E+00  0.00000000000E+00  0.45593999997E+02  0.45594000000E+02  0.51100000000E-03 0. -1.
         11   -1    0    0    0    0 -0.00000000000E+00 -0.00000000000E+00 -0.45593999997E+02  0.45594000000E+02  0.51100000000E-03 0.  1.
         23    2    1    2    0    0  0.38857805862E-15  0.35527136788E-14  0.35527136788E-14  0.91188000000E+02  0.91188000000E+02 0.  0.
    9900012    2    3    3    0    0  0.44262653060E+00 -0.24877131864E+02 -0.27142441810E+02  0.54367085353E+02  0.40000002679E+02 0.  0.
         12    1    3    3    0    0 -0.44262653060E+00  0.24877131864E+02  0.27142441810E+02  0.36820914647E+02  0.00000000000E+00 0. -1.
         11    1    4    4    0    0  0.51756023742E+01 -0.42600831582E+01  0.79244446280E+01  0.10379402265E+02  0.51100000000E-03 0. -1.
        -11    1    4    4    0    0  0.17288149601E+01 -0.18533189418E+02 -0.30741190059E+02  0.35937288124E+02  0.51100000000E-03 0.  1.
        -12    1    4    4    0    0 -0.64617908037E+01 -0.20838592881E+01 -0.43256963785E+01  0.80503949643E+01  0.00000000000E+00 0.  1.
</event>
<event>
 8    1  0.2472977E-006  0.9118800E+02  0.7816164E-02  0.1184000E+00
        -11   -1    0    0    0    0  0.00000000000E+00  0.00000000000E+00  0.45593999997E+02  0.45594000000E+02  0.51100000000E-03 0.  1.
         11   -1    0    0    0    0 -0.00000000000E+00 -0.00000000000E+00 -0.45593999997E+02  0.45594000000E+02  0.51100000000E-03 0. -1.
         23    2    1    2    0    0  0.00000000000E+00  0.00000000000E+00  0.31086244690E-14  0.91188000000E+02  0.91188000000E+02 0.  0.
    9900012    2    3    3    0    0 -0.29734085691E+02  0.21352943913E+02  0.39642843335E+01  0.54367087248E+02  0.40000006999E+02 0.  0.
        -12    1    3    3    0    0  0.29734085691E+02 -0.21352943913E+02 -0.39642843335E+01  0.36820912752E+02  0.00000000000E+00 0.  1.
         11    1    4    4    0    0 -0.82018444183E+01  0.24136125333E+02 -0.91844056525E+01  0.27095684258E+02  0.51100000000E-03 0. -1.
        -11    1    4    4    0    0 -0.10980118614E+02  0.31081385085E+01  0.88615388655E+01  0.14448197157E+02  0.51100000000E-03 0.  1.
         12    1    4    4    0    0 -0.10552122658E+02 -0.58913199284E+01  0.42871511205E+01  0.12823205833E+02  0.00000000000E+00 0. -1.
</event>
<event>
 8    1  0.2472977E-006  0.9118800E+02  0.7816164E-02  0.1184000E+00
        -11   -1    0    0    0    0  0.00000000000E+00  0.00000000000E+00  0.45593999997E+02  0.45594000000E+02  0.51100000000E-03 0.  1.
         11   -1    0    0    0    0 -0.00000000000E+00 -0.00000000000E+00 -0.45593999997E+02  0.45594000000E+02  0.51100000000E-03 0. -1.
         23    2    1    2    0    0 -0.35527136788E-14 -0.35527136788E-14  0.00000000000E+00  0.91188000000E+02  0.91188000000E+02 0.  0.
    9900012    2    3    3    0    0  0.24835495605E+02  0.27133487306E+02 -0.16592065637E+01  0.54367069244E+02  0.39999965956E+02 0.  0.
         12    1    3    3    0    0 -0.24835495605E+02 -0.27133487306E+02  0.16592065637E+01  0.36820930756E+02  0.00000000000E+00 0. -1.
         11    1    4    4    0    0  0.15840069692E+01  0.72674851611E+01 -0.16018667902E+01  0.76086395709E+01  0.51100000000E-03 0.  1.
        -11    1    4    4    0    0  0.30737622836E+02  0.70885952875E+01  0.28284024214E+01  0.31670956747E+02  0.51100000000E-03 0. -1.
         12    1    4    4    0    0 -0.74861342009E+01  0.12777406857E+02 -0.28857421950E+01  0.15087472926E+02  0.00000000000E+00 0. -1.
</event>
<event>
 8    1  0.2472977E-006  0.9118800E+02  0.7816164E-02  0.1184000E+00
        -11   -1    0    0    0    0  0.00000000000E+00  0.00000000000E+00  0.45593999997E+02  0.45594000000E+02  0.51100000000E-03 0.  1.
         11   -1    0    0    0    0 -0.00000000000E+00 -0.00000000000E+00 -0.45593999997E+02  0.45594000000E+02  0.51100000000E-03 0. -1.
         23    2    1    2    0    0 -0.17763568394E-14  0.00000000000E+00  0.00000000000E+00  0.91188000000E+02  0.91188000000E+02 0.  0.
    9900012    2    3    3    0    0  0.10863331800E+02 -0.27373174854E+02 -0.22101484579E+02  0.54367105117E+02  0.40000047736E+02 0.  0.
        -12    1    3    3    0    0 -0.10863331800E+02  0.27373174854E+02  0.22101484579E+02  0.36820894883E+02  0.00000000000E+00 0.  1.
         11    1    4    4    0    0  0.15657306988E+02 -0.10691799276E+02 -0.81033847009E+01  0.20618697285E+02  0.51100000000E-03 0. -1.
        -11    1    4    4    0    0 -0.26664845484E+01  0.35704598899E+01 -0.12568369993E+02  0.13335000870E+02  0.51100000000E-03 0.  1.
        -12    1    4    4    0    0 -0.21274906395E+01 -0.20251835468E+02 -0.14297298850E+01  0.20413406962E+02  0.00000000000E+00 0.  1.
</event>
<event>
 8    1  0.2472977E-006  0.9118800E+02  0.7816164E-02  0.1184000E+00
        -11   -1    0    0    0    0  0.00000000000E+00  0.00000000000E+00  0.45593999997E+02  0.45594000000E+02  0.51100000000E-03 0.  1.
         11   -1    0    0    0    0 -0.00000000000E+00 -0.00000000000E+00 -0.45593999997E+02  0.45594000000E+02  0.51100000000E-03 0. -1.
         23    2    1    2    0    0 -0.35527136788E-14 -0.35527136788E-14  0.00000000000E+00  0.91188000000E+02  0.91188000000E+02 0.  0.
    9900012    2    3    3    0    0  0.20954127403E+02 -0.27160535139E+02  0.13379528388E+02  0.54367056176E+02  0.39999936164E+02 0.  0.
         12    1    3    3    0    0 -0.20954127403E+02  0.27160535139E+02 -0.13379528388E+02  0.36820943824E+02  0.00000000000E+00 0. -1.
         11    1    4    4    0    0  0.14230667344E+02  0.38706462731E+01  0.91418272723E+01  0.17351276661E+02  0.51100000000E-03 0. -1.
        -11    1    4    4    0    0  0.11750840060E+02 -0.29065933152E+02  0.31481818365E+01  0.31509074269E+02  0.51100000000E-03 0.  1.
         12    1    4    4    0    0 -0.50273800019E+01 -0.19652482593E+01  0.10895192792E+01  0.55067052458E+01  0.00000000000E+00 0. -1.
</event>
<event>
 8    1  0.2472977E-006  0.9118800E+02  0.7816164E-02  0.1184000E+00
        -11   -1    0    0    0    0  0.00000000000E+00  0.00000000000E+00  0.45593999997E+02  0.45594000000E+02  0.51100000000E-03 0.  1.
         11   -1    0    0    0    0 -0.00000000000E+00 -0.00000000000E+00 -0.45593999997E+02  0.45594000000E+02  0.51100000000E-03 0. -1.
         23    2    1    2    0    0  0.35527136788E-14 -0.44408920985E-15  0.00000000000E+00  0.91188000000E+02  0.91188000000E+02 0.  0.
    9900012    2    3    3    0    0 -0.18978408155E+02  0.23507752291E+01  0.31465412333E+02  0.54367105205E+02  0.40000047935E+02 0.  0.
         12    1    3    3    0    0  0.18978408155E+02 -0.23507752291E+01 -0.31465412333E+02  0.36820894795E+02  0.00000000000E+00 0. -1.
         11    1    4    4    0    0  0.37055501513E+01 -0.15562924521E+01  0.11262139900E+02  0.11957798439E+02  0.51100000000E-03 0. -1.
        -11    1    4    4    0    0 -0.18205851398E+02 -0.78529892823E+00  0.27282044442E+02  0.32808225626E+02  0.51100000000E-03 0.  1.
         12    1    4    4    0    0 -0.44781069081E+01  0.46923666094E+01 -0.70787720097E+01  0.96010811393E+01  0.00000000000E+00 0. -1.
</event>
<event>
 8    1  0.2472977E-006  0.9118800E+02  0.7816164E-02  0.1184000E+00
        -11   -1    0    0    0    0  0.00000000000E+00  0.00000000000E+00  0.45593999997E+02  0.45594000000E+02  0.51100000000E-03 0.  1.
         11   -1    0    0    0    0 -0.00000000000E+00 -0.00000000000E+00 -0.45593999997E+02  0.45594000000E+02  0.51100000000E-03 0. -1.
         23    2    1    2    0    0  0.00000000000E+00  0.00000000000E+00  0.00000000000E+00  0.91188000000E+02  0.91188000000E+02 0.  0.
    9900012    2    3    3    0    0  0.10834145922E+02  0.90121335878E+01  0.34017376753E+02  0.54367093020E+02  0.40000020159E+02 0.  0.
         12    1    3    3    0    0 -0.10834145922E+02 -0.90121335878E+01 -0.34017376753E+02  0.36820906980E+02  0.00000000000E+00 0. -1.
         11    1    4    4    0    0 -0.42225193007E+01  0.76770598500E+01  0.90472096154E+01  0.12594400314E+02  0.51100000000E-03 0. -1.
        -11    1    4    4    0    0  0.90799089808E+01 -0.46943997446E+01  0.30144490368E+02  0.31830369710E+02  0.51100000000E-03 0.  1.
         12    1    4    4    0    0  0.59767562422E+01  0.60294734824E+01 -0.51743232313E+01  0.99423229960E+01  0.00000000000E+00 0. -1.
</event>
<event>
 8    1  0.2472977E-006  0.9118800E+02  0.7816164E-02  0.1184000E+00
        -11   -1    0    0    0    0  0.00000000000E+00  0.00000000000E+00  0.45593999997E+02  0.45594000000E+02  0.51100000000E-03 0. -1.
         11   -1    0    0    0    0 -0.00000000000E+00 -0.00000000000E+00 -0.45593999997E+02  0.45594000000E+02  0.51100000000E-03 0.  1.
         23    2    1    2    0    0  0.22204460493E-15 -0.44408920985E-15  0.00000000000E+00  0.91188000000E+02  0.91188000000E+02 0.  0.
    9900012    2    3    3    0    0 -0.15944786069E+01  0.24675694854E+01 -0.36703512160E+02  0.54367094715E+02  0.40000024021E+02 0.  0.
         12    1    3    3    0    0  0.15944786069E+01 -0.24675694854E+01  0.36703512160E+02  0.36820905285E+02  0.00000000000E+00 0. -1.
         11    1    4    4    0    0 -0.78284122095E+01 -0.74745284081E+01  0.50879358979E+00  0.10835657978E+02  0.51100000000E-03 0. -1.
        -11    1    4    4    0    0 -0.23931348309E+01  0.36558677514E+01  0.44346792324E+00  0.43919389106E+01  0.51100000000E-03 0.  1.
         12    1    4    4    0    0  0.86270684335E+01  0.62862301421E+01 -0.37655773673E+02  0.39139497826E+02  0.00000000000E+00 0. -1.
</event>
<event>
 8    1  0.2472977E-006  0.9118800E+02  0.7816164E-02  0.1184000E+00
        -11   -1    0    0    0    0  0.00000000000E+00  0.00000000000E+00  0.45593999997E+02  0.45594000000E+02  0.51100000000E-03 0. -1.
         11   -1    0    0    0    0 -0.00000000000E+00 -0.00000000000E+00 -0.45593999997E+02  0.45594000000E+02  0.51100000000E-03 0.  1.
         23    2    1    2    0    0  0.88817841970E-15  0.00000000000E+00 -0.13322676296E-14  0.91188000000E+02  0.91188000000E+02 0.  0.
    9900012    2    3    3    0    0  0.41653159888E+01  0.36580978285E+02  0.51134380411E+00  0.54367091509E+02  0.40000016714E+02 0.  0.
         12    1    3    3    0    0 -0.41653159888E+01 -0.36580978285E+02 -0.51134380411E+00  0.36820908491E+02  0.00000000000E+00 0. -1.
         11    1    4    4    0    0  0.10167438619E+01  0.45054269281E+01 -0.20102376185E+01  0.50372309287E+01  0.51100000000E-03 0.  1.
        -11    1    4    4    0    0  0.89362846852E+01  0.14806499769E+02 -0.15851150791E+02  0.23459509821E+02  0.51100000000E-03 0. -1.
         12    1    4    4    0    0 -0.57877125583E+01  0.17269051588E+02  0.18372732214E+02  0.25870350760E+02  0.00000000000E+00 0. -1.
</event>
<event>
 8    1  0.2472977E-006  0.9118800E+02  0.7816164E-02  0.1184000E+00
        -11   -1    0    0    0    0  0.00000000000E+00  0.00000000000E+00  0.45593999997E+02  0.45594000000E+02  0.51100000000E-03 0.  1.
         11   -1    0    0    0    0 -0.00000000000E+00 -0.00000000000E+00 -0.45593999997E+02  0.45594000000E+02  0.51100000000E-03 0. -1.
         23    2    1    2    0    0  0.00000000000E+00  0.00000000000E+00  0.17763568394E-14  0.91188000000E+02  0.91188000000E+02 0.  0.
    9900012    2    3    3    0    0 -0.26309395664E+02 -0.21187298738E+02  0.14652455678E+02  0.54367076798E+02  0.39999983177E+02 0.  0.
        -12    1    3    3    0    0  0.26309395664E+02  0.21187298738E+02 -0.14652455678E+02  0.36820923202E+02  0.00000000000E+00 0.  1.
         11    1    4    4    0    0 -0.16480715588E+02 -0.21161142917E+02 -0.67445391090E+00  0.26830259861E+02  0.51100000000E-03 0. -1.
        -11    1    4    4    0    0  0.16379231063E+01 -0.78666753996E+01  0.95808129606E+01  0.12504373283E+02  0.51100000000E-03 0.  1.
        -12    1    4    4    0    0 -0.11466603182E+02  0.78405195782E+01  0.57460966284E+01  0.15032443655E+02  0.00000000000E+00 0.  1.
</event>
<event>
 8    1  0.2472977E-006  0.9118800E+02  0.7816164E-02  0.1184000E+00
        -11   -1    0    0    0    0  0.00000000000E+00  0.00000000000E+00  0.45593999997E+02  0.45594000000E+02  0.51100000000E-03 0. -1.
         11   -1    0    0    0    0 -0.00000000000E+00 -0.00000000000E+00 -0.45593999997E+02  0.45594000000E+02  0.51100000000E-03 0.  1.
         23    2    1    2    0    0  0.35527136788E-14 -0.35527136788E-14  0.00000000000E+00  0.91188000000E+02  0.91188000000E+02 0.  0.
    9900012    2    3    3    0    0  0.16754624805E+02 -0.11452886649E+02  0.30722853149E+02  0.54367085147E+02  0.40000002211E+02 0.  0.
        -12    1    3    3    0    0 -0.16754624805E+02  0.11452886649E+02 -0.30722853149E+02  0.36820914853E+02  0.00000000000E+00 0.  1.
         11    1    4    4    0    0  0.36993842147E+01 -0.24308548503E+02  0.20240702698E+02  0.31847716085E+02  0.51100000000E-03 0.  1.
        -11    1    4    4    0    0  0.36461373825E+01  0.47466315962E+01  0.77655428327E+01  0.98045135050E+01  0.51100000000E-03 0. -1.
        -12    1    4    4    0    0  0.94091032076E+01  0.81090302574E+01  0.27166076189E+01  0.12714855557E+02  0.00000000000E+00 0.  1.
</event>
<event>
 8    1  0.2472977E-006  0.9118800E+02  0.7816164E-02  0.1184000E+00
        -11   -1    0    0    0    0  0.00000000000E+00  0.00000000000E+00  0.45593999997E+02  0.45594000000E+02  0.51100000000E-03 0.  1.
         11   -1    0    0    0    0 -0.00000000000E+00 -0.00000000000E+00 -0.45593999997E+02  0.45594000000E+02  0.51100000000E-03 0. -1.
         23    2    1    2    0    0  0.00000000000E+00  0.00000000000E+00  0.17763568394E-14  0.91188000000E+02  0.91188000000E+02 0.  0.
    9900012    2    3    3    0    0 -0.22670612054E+02  0.27622809270E+02  0.88770682559E+01  0.54367101265E+02  0.40000038953E+02 0.  0.
         12    1    3    3    0    0  0.22670612054E+02 -0.27622809270E+02 -0.88770682559E+01  0.36820898735E+02  0.00000000000E+00 0. -1.
         11    1    4    4    0    0  0.23565899851E+01 -0.32041782230E-01  0.35316532623E+01  0.42458353783E+01  0.51100000000E-03 0.  1.
        -11    1    4    4    0    0 -0.79456569020E-01  0.71084450296E+01 -0.11618143657E+02  0.13620483339E+02  0.51100000000E-03 0. -1.
        -12    1    4    4    0    0 -0.24947745470E+02  0.20546406022E+02  0.16963558651E+02  0.36500782547E+02  0.00000000000E+00 0.  1.
</event>
<event>
 8    1  0.2472977E-006  0.9118800E+02  0.7816164E-02  0.1184000E+00
        -11   -1    0    0    0    0  0.00000000000E+00  0.00000000000E+00  0.45593999997E+02  0.45594000000E+02  0.51100000000E-03 0.  1.
         11   -1    0    0    0    0 -0.00000000000E+00 -0.00000000000E+00 -0.45593999997E+02  0.45594000000E+02  0.51100000000E-03 0. -1.
         23    2    1    2    0    0  0.35527136788E-14  0.00000000000E+00  0.35527136788E-14  0.91188000000E+02  0.91188000000E+02 0.  0.
    9900012    2    3    3    0    0 -0.24125988757E+02 -0.41170684170E+01 -0.27509433228E+02  0.54367048051E+02  0.39999917643E+02 0.  0.
        -12    1    3    3    0    0  0.24125988757E+02  0.41170684170E+01  0.27509433228E+02  0.36820951949E+02  0.00000000000E+00 0.  1.
         11    1    4    4    0    0 -0.17736055618E+02 -0.61466630956E+01 -0.99929427454E+01  0.21265183777E+02  0.51100000000E-03 0. -1.
        -11    1    4    4    0    0 -0.15362680782E+02  0.70288584074E+01 -0.14842268669E+02  0.22487991258E+02  0.51100000000E-03 0.  1.
        -12    1    4    4    0    0  0.89727476429E+01 -0.49992637288E+01 -0.26742218142E+01  0.10613873016E+02  0.00000000000E+00 0.  1.
</event>
<event>
 8    1  0.2472977E-006  0.9118800E+02  0.7816164E-02  0.1184000E+00
        -11   -1    0    0    0    0  0.00000000000E+00  0.00000000000E+00  0.45593999997E+02  0.45594000000E+02  0.51100000000E-03 0.  1.
         11   -1    0    0    0    0 -0.00000000000E+00 -0.00000000000E+00 -0.45593999997E+02  0.45594000000E+02  0.51100000000E-03 0. -1.
         23    2    1    2    0    0  0.00000000000E+00  0.00000000000E+00 -0.25535129566E-14  0.91188000000E+02  0.91188000000E+02 0.  0.
    9900012    2    3    3    0    0  0.11796944222E+02 -0.34867574849E+02 -0.92943775578E+00  0.54367088504E+02  0.40000009863E+02 0.  0.
        -12    1    3    3    0    0 -0.11796944222E+02  0.34867574849E+02  0.92943775578E+00  0.36820911496E+02  0.00000000000E+00 0.  1.
         11    1    4    4    0    0  0.95822612871E+01 -0.14912917998E+02 -0.18452146457E+02  0.25587038979E+02  0.51100000000E-03 0. -1.
        -11    1    4    4    0    0  0.15127892344E+01 -0.79456662193E+01  0.72727076535E+00  0.81210261645E+01  0.51100000000E-03 0.  1.
         12    1    4    4    0    0  0.70189370017E+00 -0.12008990632E+02  0.16795437936E+02  0.20659023361E+02  0.00000000000E+00 0. -1.
</event>
<event>
 8    1  0.2472977E-006  0.9118800E+02  0.7816164E-02  0.1184000E+00
        -11   -1    0    0    0    0  0.00000000000E+00  0.00000000000E+00  0.45593999997E+02  0.45594000000E+02  0.51100000000E-03 0.  1.
         11   -1    0    0    0    0 -0.00000000000E+00 -0.00000000000E+00 -0.45593999997E+02  0.45594000000E+02  0.51100000000E-03 0. -1.
         23    2    1    2    0    0  0.17763568394E-14 -0.35527136788E-14 -0.35527136788E-14  0.91188000000E+02  0.91188000000E+02 0.  0.
    9900012    2    3    3    0    0 -0.98651310293E+01  0.27261135314E+02  0.22699675505E+02  0.54367277888E+02  0.40000441599E+02 0.  0.
         12    1    3    3    0    0  0.98651310293E+01 -0.27261135314E+02 -0.22699675505E+02  0.36820722112E+02  0.00000000000E+00 0. -1.
         11    1    4    4    0    0  0.78595284680E+00  0.11426937613E+02  0.18338600380E+01  0.11599813274E+02  0.51100000000E-03 0. -1.
        -11    1    4    4    0    0  0.11361288638E+02  0.71684957835E+01  0.52590141687E+01  0.14426484035E+02  0.51100000000E-03 0.  1.
         12    1    4    4    0    0 -0.22012372514E+02  0.86657019170E+01  0.15606801298E+02  0.28340980579E+02  0.00000000000E+00 0. -1.
</event>
<event>
 8    1  0.2472977E-006  0.9118800E+02  0.7816164E-02  0.1184000E+00
        -11   -1    0    0    0    0  0.00000000000E+00  0.00000000000E+00  0.45593999997E+02  0.45594000000E+02  0.51100000000E-03 0.  1.
         11   -1    0    0    0    0 -0.00000000000E+00 -0.00000000000E+00 -0.45593999997E+02  0.45594000000E+02  0.51100000000E-03 0. -1.
         23    2    1    2    0    0 -0.17763568394E-14  0.00000000000E+00  0.00000000000E+00  0.91188000000E+02  0.91188000000E+02 0.  0.
    9900012    2    3    3    0    0 -0.12317199317E+02  0.32190408728E+02  0.12955492007E+02  0.54367074071E+02  0.39999976960E+02 0.  0.
        -12    1    3    3    0    0  0.12317199317E+02 -0.32190408728E+02 -0.12955492007E+02  0.36820925929E+02  0.00000000000E+00 0.  1.
         11    1    4    4    0    0 -0.96761238969E+01 -0.42724977305E+01 -0.56215409510E+01  0.11978452882E+02  0.51100000000E-03 0. -1.
        -11    1    4    4    0    0 -0.50065990042E+01  0.18811352934E+02  0.14067411211E+02  0.24017183249E+02  0.51100000000E-03 0.  1.
         12    1    4    4    0    0  0.23655235838E+01  0.17651553525E+02  0.45096217470E+01  0.18371437940E+02  0.00000000000E+00 0. -1.
</event>
<event>
 8    1  0.2472977E-006  0.9118800E+02  0.7816164E-02  0.1184000E+00
        -11   -1    0    0    0    0  0.00000000000E+00  0.00000000000E+00  0.45593999997E+02  0.45594000000E+02  0.51100000000E-03 0. -1.
         11   -1    0    0    0    0 -0.00000000000E+00 -0.00000000000E+00 -0.45593999997E+02  0.45594000000E+02  0.51100000000E-03 0.  1.
         23    2    1    2    0    0 -0.35527136788E-14  0.35527136788E-14  0.00000000000E+00  0.91188000000E+02  0.91188000000E+02 0.  0.
    9900012    2    3    3    0    0  0.22535918885E+02 -0.26469136765E+02  0.12136530359E+02  0.54367106335E+02  0.40000050513E+02 0.  0.
        -12    1    3    3    0    0 -0.22535918885E+02  0.26469136765E+02 -0.12136530359E+02  0.36820893665E+02  0.00000000000E+00 0.  1.
         11    1    4    4    0    0  0.40045794403E+00  0.62549830981E+00 -0.10521935614E+01  0.12879154679E+01  0.51100000000E-03 0. -1.
        -11    1    4    4    0    0 -0.64021399767E+01 -0.18070096617E+02 -0.24205526630E+01  0.19322910326E+02  0.51100000000E-03 0.  1.
         12    1    4    4    0    0  0.28537600918E+02 -0.90245384584E+01  0.15609276583E+02  0.33756280542E+02  0.00000000000E+00 0. -1.
</event>
<event>
 8    1  0.2472977E-006  0.9118800E+02  0.7816164E-02  0.1184000E+00
        -11   -1    0    0    0    0  0.00000000000E+00  0.00000000000E+00  0.45593999997E+02  0.45594000000E+02  0.51100000000E-03 0.  1.
         11   -1    0    0    0    0 -0.00000000000E+00 -0.00000000000E+00 -0.45593999997E+02  0.45594000000E+02  0.51100000000E-03 0. -1.
         23    2    1    2    0    0  0.00000000000E+00  0.13322676296E-14  0.00000000000E+00  0.91188000000E+02  0.91188000000E+02 0.  0.
    9900012    2    3    3    0    0 -0.36037750539E+02 -0.61247365072E+00 -0.75286980187E+01  0.54367137955E+02  0.40000122596E+02 0.  0.
        -12    1    3    3    0    0  0.36037750539E+02  0.61247365072E+00  0.75286980187E+01  0.36820862045E+02  0.00000000000E+00 0.  1.
         11    1    4    4    0    0  0.44108828877E+01  0.52964788229E+01 -0.43177771969E+01  0.81333742047E+01  0.51100000000E-03 0. -1.
        -11    1    4    4    0    0 -0.16519581430E+02  0.18574122723E+01  0.82849763424E+01  0.18573836013E+02  0.51100000000E-03 0.  1.
         12    1    4    4    0    0 -0.23929051997E+02 -0.77663647459E+01 -0.11495897164E+02  0.27659927737E+02  0.00000000000E+00 0. -1.
</event>
<event>
 8    1  0.2472977E-006  0.9118800E+02  0.7816164E-02  0.1184000E+00
        -11   -1    0    0    0    0  0.00000000000E+00  0.00000000000E+00  0.45593999997E+02  0.45594000000E+02  0.51100000000E-03 0. -1.
         11   -1    0    0    0    0 -0.00000000000E+00 -0.00000000000E+00 -0.45593999997E+02  0.45594000000E+02  0.51100000000E-03 0.  1.
         23    2    1    2    0    0  0.00000000000E+00  0.00000000000E+00  0.00000000000E+00  0.91188000000E+02  0.91188000000E+02 0.  0.
    9900012    2    3    3    0    0  0.20903277438E+02  0.18997319865E+01  0.30252655196E+02  0.54367093769E+02  0.40000021865E+02 0.  0.
        -12    1    3    3    0    0 -0.20903277438E+02 -0.18997319865E+01 -0.30252655196E+02  0.36820906231E+02  0.00000000000E+00 0.  1.
         11    1    4    4    0    0  0.12754952186E+02  0.17356895965E+01 -0.68507042561E+01  0.14581960524E+02  0.51100000000E-03 0. -1.
        -11    1    4    4    0    0 -0.29842840318E+01  0.45830828352E+00  0.54586977765E+01  0.62380589402E+01  0.51100000000E-03 0.  1.
         12    1    4    4    0    0  0.11132609283E+02 -0.29426589356E+00  0.31644661676E+02  0.33547074305E+02  0.00000000000E+00 0. -1.
</event>
<event>
 8    1  0.2472977E-006  0.9118800E+02  0.7816164E-02  0.1184000E+00
        -11   -1    0    0    0    0  0.00000000000E+00  0.00000000000E+00  0.45593999997E+02  0.45594000000E+02  0.51100000000E-03 0.  1.
         11   -1    0    0    0    0 -0.00000000000E+00 -0.00000000000E+00 -0.45593999997E+02  0.45594000000E+02  0.51100000000E-03 0. -1.
         23    2    1    2    0    0 -0.88817841970E-15 -0.71054273576E-14  0.00000000000E+00  0.91188000000E+02  0.91188000000E+02 0.  0.
    9900012    2    3    3    0    0  0.65811805183E+01 -0.35883557234E+02  0.49838875765E+01  0.54367071818E+02  0.39999971824E+02 0.  0.
         12    1    3    3    0    0 -0.65811805183E+01  0.35883557234E+02 -0.49838875765E+01  0.36820928182E+02  0.00000000000E+00 0. -1.
         11    1    4    4    0    0  0.11244035940E+02 -0.59774375290E+01  0.48079523142E+01  0.13611557932E+02  0.51100000000E-03 0. -1.
        -11    1    4    4    0    0  0.61295311466E+01 -0.28445730529E+02  0.36439838325E+01  0.29325916112E+02  0.51100000000E-03 0.  1.
        -12    1    4    4    0    0 -0.10792386568E+02 -0.14603891766E+01 -0.34680485701E+01  0.11429597774E+02  0.00000000000E+00 0.  1.
</event>
<event>
 8    1  0.2472977E-006  0.9118800E+02  0.7816164E-02  0.1184000E+00
        -11   -1    0    0    0    0  0.00000000000E+00  0.00000000000E+00  0.45593999997E+02  0.45594000000E+02  0.51100000000E-03 0. -1.
         11   -1    0    0    0    0 -0.00000000000E+00 -0.00000000000E+00 -0.45593999997E+02  0.45594000000E+02  0.51100000000E-03 0.  1.
         23    2    1    2    0    0  0.33306690739E-14  0.00000000000E+00  0.00000000000E+00  0.91188000000E+02  0.91188000000E+02 0.  0.
    9900012    2    3    3    0    0  0.89111732293E+00  0.17854536355E+02 -0.32190087193E+02  0.54367078338E+02  0.39999986687E+02 0.  0.
         12    1    3    3    0    0 -0.89111732293E+00 -0.17854536355E+02  0.32190087193E+02  0.36820921662E+02  0.00000000000E+00 0. -1.
         11    1    4    4    0    0 -0.80495708834E+01  0.21682019868E+01 -0.13616168952E+02  0.15965486164E+02  0.51100000000E-03 0. -1.
        -11    1    4    4    0    0  0.11705107263E+02  0.83415436155E+01  0.36527491235E+01  0.14830153820E+02  0.51100000000E-03 0.  1.
        -12    1    4    4    0    0 -0.27644190562E+01  0.73447907530E+01 -0.22226667364E+02  0.23571438353E+02  0.00000000000E+00 0.  1.
</event>
<event>
 8    1  0.2472977E-006  0.9118800E+02  0.7816164E-02  0.1184000E+00
        -11   -1    0    0    0    0  0.00000000000E+00  0.00000000000E+00  0.45593999997E+02  0.45594000000E+02  0.51100000000E-03 0.  1.
         11   -1    0    0    0    0 -0.00000000000E+00 -0.00000000000E+00 -0.45593999997E+02  0.45594000000E+02  0.51100000000E-03 0. -1.
         23    2    1    2    0    0  0.35527136788E-14  0.17763568394E-14  0.00000000000E+00  0.91188000000E+02  0.91188000000E+02 0.  0.
    9900012    2    3    3    0    0 -0.29352756691E+02 -0.10751986215E+02  0.19457363580E+02  0.54367101988E+02  0.40000040603E+02 0.  0.
         12    1    3    3    0    0  0.29352756691E+02  0.10751986215E+02 -0.19457363580E+02  0.36820898012E+02  0.00000000000E+00 0. -1.
         11    1    4    4    0    0  0.33989760507E+01 -0.64589727771E+01 -0.78769644604E+01  0.10738618948E+02  0.51100000000E-03 0. -1.
        -11    1    4    4    0    0 -0.57103660344E+00 -0.13069676855E+01  0.24678602793E+01  0.28503652314E+01  0.51100000000E-03 0.  1.
         12    1    4    4    0    0 -0.32180696138E+02 -0.29860457525E+01  0.24866467761E+02  0.40778117809E+02  0.00000000000E+00 0. -1.
</event>
<event>
 8    1  0.2472977E-006  0.9118800E+02  0.7816164E-02  0.1184000E+00
        -11   -1    0    0    0    0  0.00000000000E+00  0.00000000000E+00  0.45593999997E+02  0.45594000000E+02  0.51100000000E-03 0.  1.
         11   -1    0    0    0    0 -0.00000000000E+00 -0.00000000000E+00 -0.45593999997E+02  0.45594000000E+02  0.51100000000E-03 0. -1.
         23    2    1    2    0    0  0.35527136788E-14  0.00000000000E+00  0.00000000000E+00  0.91188000000E+02  0.91188000000E+02 0.  0.
    9900012    2    3    3    0    0 -0.20547526045E+02 -0.24225654884E+02  0.18619792976E+02  0.54367083776E+02  0.39999999083E+02 0.  0.
         12    1    3    3    0    0  0.20547526045E+02  0.24225654884E+02 -0.18619792976E+02  0.36820916224E+02  0.00000000000E+00 0. -1.
         11    1    4    4    0    0  0.71245420286E+01  0.17009486336E+01  0.43697969167E+01  0.85292116122E+01  0.51100000000E-03 0. -1.
        -11    1    4    4    0    0 -0.26077030203E+02 -0.16370408928E+02  0.17746473790E+02  0.35537854816E+02  0.51100000000E-03 0.  1.
        -12    1    4    4    0    0 -0.15950378699E+01 -0.95561945895E+01 -0.34964777300E+01  0.10300017347E+02  0.00000000000E+00 0.  1.
</event>
<event>
 8    1  0.2472977E-006  0.9118800E+02  0.7816164E-02  0.1184000E+00
        -11   -1    0    0    0    0  0.00000000000E+00  0.00000000000E+00  0.45593999997E+02  0.45594000000E+02  0.51100000000E-03 0.  1.
         11   -1    0    0    0    0 -0.00000000000E+00 -0.00000000000E+00 -0.45593999997E+02  0.45594000000E+02  0.51100000000E-03 0. -1.
         23    2    1    2    0    0  0.00000000000E+00  0.00000000000E+00  0.00000000000E+00  0.91188000000E+02  0.91188000000E+02 0.  0.
    9900012    2    3    3    0    0 -0.26463882800E+02 -0.23892360546E+02 -0.91977594129E+01  0.54367071664E+02  0.39999971473E+02 0.  0.
        -12    1    3    3    0    0  0.26463882800E+02  0.23892360546E+02  0.91977594129E+01  0.36820928336E+02  0.00000000000E+00 0.  1.
         11    1    4    4    0    0 -0.24246075155E+02 -0.30605455739E+02 -0.14961639327E+02  0.41814073385E+02  0.51100000000E-03 0. -1.
        -11    1    4    4    0    0  0.49200977178E+00  0.25233568540E+01  0.69619697972E+01  0.74214841606E+01  0.51100000000E-03 0.  1.
         12    1    4    4    0    0 -0.27098174160E+01  0.41897383391E+01 -0.11980898835E+01  0.51315141184E+01  0.00000000000E+00 0. -1.
</event>
<event>
 8    1  0.2472977E-006  0.9118800E+02  0.7816164E-02  0.1184000E+00
        -11   -1    0    0    0    0  0.00000000000E+00  0.00000000000E+00  0.45593999997E+02  0.45594000000E+02  0.51100000000E-03 0.  1.
         11   -1    0    0    0    0 -0.00000000000E+00 -0.00000000000E+00 -0.45593999997E+02  0.45594000000E+02  0.51100000000E-03 0. -1.
         23    2    1    2    0    0  0.35527136788E-14 -0.17763568394E-14  0.17763568394E-14  0.91188000000E+02  0.91188000000E+02 0.  0.
    9900012    2    3    3    0    0 -0.30681066668E+02 -0.15395026063E+02 -0.13320847689E+02  0.54367086615E+02  0.40000005557E+02 0.  0.
        -12    1    3    3    0    0  0.30681066668E+02  0.15395026063E+02  0.13320847689E+02  0.36820913385E+02  0.00000000000E+00 0.  1.
         11    1    4    4    0    0 -0.27918516006E+02 -0.22747620936E+01 -0.11824256067E+02  0.30404458725E+02  0.51100000000E-03 0. -1.
        -11    1    4    4    0    0 -0.98509997737E+01 -0.82187451191E+01 -0.60850054169E+01  0.14199199240E+02  0.51100000000E-03 0.  1.
         12    1    4    4    0    0  0.70884491118E+01 -0.49015188503E+01  0.45884137957E+01  0.97634286504E+01  0.00000000000E+00 0. -1.
</event>
<event>
 8    1  0.2472977E-006  0.9118800E+02  0.7816164E-02  0.1184000E+00
        -11   -1    0    0    0    0  0.00000000000E+00  0.00000000000E+00  0.45593999997E+02  0.45594000000E+02  0.51100000000E-03 0. -1.
         11   -1    0    0    0    0 -0.00000000000E+00 -0.00000000000E+00 -0.45593999997E+02  0.45594000000E+02  0.51100000000E-03 0.  1.
         23    2    1    2    0    0 -0.35527136788E-14  0.17763568394E-14  0.00000000000E+00  0.91188000000E+02  0.91188000000E+02 0.  0.
    9900012    2    3    3    0    0  0.17204051850E+02  0.12578623975E+02 -0.30026308443E+02  0.54367076874E+02  0.39999983350E+02 0.  0.
         12    1    3    3    0    0 -0.17204051850E+02 -0.12578623975E+02  0.30026308443E+02  0.36820923126E+02  0.00000000000E+00 0. -1.
         11    1    4    4    0    0  0.86425042270E+00  0.85581618056E+01  0.53589499803E+01  0.10134466312E+02  0.51100000000E-03 0. -1.
        -11    1    4    4    0    0  0.34509990865E+01  0.10765420142E+02 -0.20555318834E+02  0.23459002497E+02  0.51100000000E-03 0.  1.
         12    1    4    4    0    0  0.12888802340E+02 -0.67449579721E+01 -0.14829939589E+02  0.20773608065E+02  0.00000000000E+00 0. -1.
</event>
<event>
 8    1  0.2472977E-006  0.9118800E+02  0.7816164E-02  0.1184000E+00
        -11   -1    0    0    0    0  0.00000000000E+00  0.00000000000E+00  0.45593999997E+02  0.45594000000E+02  0.51100000000E-03 0. -1.
         11   -1    0    0    0    0 -0.00000000000E+00 -0.00000000000E+00 -0.45593999997E+02  0.45594000000E+02  0.51100000000E-03 0.  1.
         23    2    1    2    0    0  0.00000000000E+00  0.00000000000E+00 -0.17763568394E-14  0.91188000000E+02  0.91188000000E+02 0.  0.
    9900012    2    3    3    0    0  0.30199168718E+02  0.14163493089E+02 -0.15594368993E+02  0.54367100065E+02  0.40000036218E+02 0.  0.
         12    1    3    3    0    0 -0.30199168718E+02 -0.14163493089E+02  0.15594368993E+02  0.36820899935E+02  0.00000000000E+00 0. -1.
         11    1    4    4    0    0 -0.16350654867E+01 -0.30250663124E+01  0.40622543505E+01  0.53222529073E+01  0.51100000000E-03 0. -1.
        -11    1    4    4    0    0  0.97147370332E+01  0.19894533911E+02 -0.13478661748E+02  0.25919932831E+02  0.51100000000E-03 0.  1.
        -12    1    4    4    0    0  0.22119497171E+02 -0.27059745097E+01 -0.61779615955E+01  0.23124914327E+02  0.00000000000E+00 0.  1.
</event>
<event>
 8    1  0.2472977E-006  0.9118800E+02  0.7816164E-02  0.1184000E+00
        -11   -1    0    0    0    0  0.00000000000E+00  0.00000000000E+00  0.45593999997E+02  0.45594000000E+02  0.51100000000E-03 0.  1.
         11   -1    0    0    0    0 -0.00000000000E+00 -0.00000000000E+00 -0.45593999997E+02  0.45594000000E+02  0.51100000000E-03 0. -1.
         23    2    1    2    0    0  0.00000000000E+00 -0.88817841970E-15 -0.88817841970E-15  0.91188000000E+02  0.91188000000E+02 0.  0.
    9900012    2    3    3    0    0  0.35645111632E+02 -0.77607650624E+01 -0.49972710199E+01  0.54367133969E+02  0.40000113510E+02 0.  0.
        -12    1    3    3    0    0 -0.35645111632E+02  0.77607650624E+01  0.49972710199E+01  0.36820866031E+02  0.00000000000E+00 0.  1.
         11    1    4    4    0    0  0.38052349066E+02 -0.57948998462E+01 -0.44999030783E+01  0.38753209695E+02  0.51100000000E-03 0. -1.
        -11    1    4    4    0    0 -0.19315372144E+01 -0.27311114661E+01 -0.76790098891E+01  0.83759774945E+01  0.51100000000E-03 0.  1.
         12    1    4    4    0    0 -0.47570022011E+00  0.76524624983E+00  0.71816419475E+01  0.72379467796E+01  0.00000000000E+00 0. -1.
</event>
<event>
 8    1  0.2472977E-006  0.9118800E+02  0.7816164E-02  0.1184000E+00
        -11   -1    0    0    0    0  0.00000000000E+00  0.00000000000E+00  0.45593999997E+02  0.45594000000E+02  0.51100000000E-03 0.  1.
         11   -1    0    0    0    0 -0.00000000000E+00 -0.00000000000E+00 -0.45593999997E+02  0.45594000000E+02  0.51100000000E-03 0. -1.
         23    2    1    2    0    0  0.00000000000E+00 -0.88817841970E-15  0.17763568394E-14  0.91188000000E+02  0.91188000000E+02 0.  0.
    9900012    2    3    3    0    0 -0.34339967687E+02 -0.48128353088E+01 -0.12384791089E+02  0.54367084547E+02  0.40000000843E+02 0.  0.
        -12    1    3    3    0    0  0.34339967687E+02  0.48128353088E+01  0.12384791089E+02  0.36820915453E+02  0.00000000000E+00 0.  1.
         11    1    4    4    0    0 -0.10287460312E+02  0.33658026224E+01 -0.71536357545E+01  0.12974396778E+02  0.51100000000E-03 0. -1.
        -11    1    4    4    0    0  0.53600837567E+01  0.39948267129E+01  0.45559011813E+01  0.80898315298E+01  0.51100000000E-03 0.  1.
         12    1    4    4    0    0 -0.29412591131E+02 -0.12173464644E+02 -0.97870565157E+01  0.33302856240E+02  0.00000000000E+00 0. -1.
</event>
<event>
 8    1  0.2472977E-006  0.9118800E+02  0.7816164E-02  0.1184000E+00
        -11   -1    0    0    0    0  0.00000000000E+00  0.00000000000E+00  0.45593999997E+02  0.45594000000E+02  0.51100000000E-03 0.  1.
         11   -1    0    0    0    0 -0.00000000000E+00 -0.00000000000E+00 -0.45593999997E+02  0.45594000000E+02  0.51100000000E-03 0. -1.
         23    2    1    2    0    0  0.00000000000E+00  0.00000000000E+00  0.71054273576E-14  0.91188000000E+02  0.91188000000E+02 0.  0.
    9900012    2    3    3    0    0 -0.17144491704E+02 -0.61035847426E+01 -0.32009244047E+02  0.54367094973E+02  0.40000024611E+02 0.  0.
        -12    1    3    3    0    0  0.17144491704E+02  0.61035847426E+01  0.32009244047E+02  0.36820905027E+02  0.00000000000E+00 0.  1.
         11    1    4    4    0    0 -0.61771210781E+00  0.38360897950E+01 -0.26726321637E+02  0.27007284603E+02  0.51100000000E-03 0.  1.
        -11    1    4    4    0    0 -0.12422400385E+02 -0.38369693536E+01 -0.11781561716E+02  0.17545471264E+02  0.51100000000E-03 0. -1.
        -12    1    4    4    0    0 -0.41043792114E+01 -0.61027051841E+01  0.64986393052E+01  0.98143391063E+01  0.00000000000E+00 0.  1.
</event>
<event>
 8    1  0.2472977E-006  0.9118800E+02  0.7816164E-02  0.1184000E+00
        -11   -1    0    0    0    0  0.00000000000E+00  0.00000000000E+00  0.45593999997E+02  0.45594000000E+02  0.51100000000E-03 0. -1.
         11   -1    0    0    0    0 -0.00000000000E+00 -0.00000000000E+00 -0.45593999997E+02  0.45594000000E+02  0.51100000000E-03 0.  1.
         23    2    1    2    0    0  0.00000000000E+00  0.00000000000E+00  0.00000000000E+00  0.91188000000E+02  0.91188000000E+02 0.  0.
    9900012    2    3    3    0    0 -0.94295520679E+01 -0.50896670035E+01 -0.35227250066E+02  0.54367077828E+02  0.39999985525E+02 0.  0.
         12    1    3    3    0    0  0.94295520679E+01  0.50896670035E+01  0.35227250066E+02  0.36820922172E+02  0.00000000000E+00 0. -1.
         11    1    4    4    0    0  0.12839543918E+01  0.66708396022E+00 -0.32528965361E+01  0.35601792127E+01  0.51100000000E-03 0. -1.
        -11    1    4    4    0    0 -0.59328196047E+01 -0.21755690293E+02 -0.21084586516E+02  0.30871802627E+02  0.51100000000E-03 0.  1.
        -12    1    4    4    0    0 -0.47806868550E+01  0.15998939330E+02 -0.10889767013E+02  0.19935095989E+02  0.00000000000E+00 0.  1.
</event>
<event>
 8    1  0.2472977E-006  0.9118800E+02  0.7816164E-02  0.1184000E+00
        -11   -1    0    0    0    0  0.00000000000E+00  0.00000000000E+00  0.45593999997E+02  0.45594000000E+02  0.51100000000E-03 0.  1.
         11   -1    0    0    0    0 -0.00000000000E+00 -0.00000000000E+00 -0.45593999997E+02  0.45594000000E+02  0.51100000000E-03 0. -1.
         23    2    1    2    0    0 -0.35527136788E-14  0.35527136788E-14  0.00000000000E+00  0.91188000000E+02  0.91188000000E+02 0.  0.
    9900012    2    3    3    0    0 -0.24844183955E+02  0.96924873625E+01  0.25389044921E+02  0.54367063162E+02  0.39999952090E+02 0.  0.
         12    1    3    3    0    0  0.24844183955E+02 -0.96924873625E+01 -0.25389044921E+02  0.36820936838E+02  0.00000000000E+00 0. -1.
         11    1    4    4    0    0  0.10279598169E+01  0.89694955491E+01  0.10481630311E+02  0.13833767601E+02  0.51100000000E-03 0. -1.
        -11    1    4    4    0    0 -0.11578818015E+01 -0.76529118561E+01  0.11996124468E+02  0.14276370430E+02  0.51100000000E-03 0.  1.
        -12    1    4    4    0    0 -0.24714261971E+02  0.83759036695E+01  0.29112901412E+01  0.26256925131E+02  0.00000000000E+00 0.  1.
</event>
<event>
 8    1  0.2472977E-006  0.9118800E+02  0.7816164E-02  0.1184000E+00
        -11   -1    0    0    0    0  0.00000000000E+00  0.00000000000E+00  0.45593999997E+02  0.45594000000E+02  0.51100000000E-03 0. -1.
         11   -1    0    0    0    0 -0.00000000000E+00 -0.00000000000E+00 -0.45593999997E+02  0.45594000000E+02  0.51100000000E-03 0.  1.
         23    2    1    2    0    0 -0.35527136788E-14  0.00000000000E+00  0.00000000000E+00  0.91188000000E+02  0.91188000000E+02 0.  0.
    9900012    2    3    3    0    0  0.29095417454E+02 -0.83847141387E+01  0.20950748279E+02  0.54367073864E+02  0.39999976488E+02 0.  0.
        -12    1    3    3    0    0 -0.29095417454E+02  0.83847141387E+01 -0.20950748279E+02  0.36820926136E+02  0.00000000000E+00 0.  1.
         11    1    4    4    0    0  0.15588357628E+01  0.49051700953E+01  0.69227251654E+01  0.86264005573E+01  0.51100000000E-03 0. -1.
        -11    1    4    4    0    0 -0.47425870808E+01 -0.97506294481E+01  0.55444155200E+01  0.12178154646E+02  0.51100000000E-03 0.  1.
         12    1    4    4    0    0  0.32279168772E+02 -0.35392547858E+01  0.84836075940E+01  0.33562518661E+02  0.00000000000E+00 0. -1.
</event>
<event>
 8    1  0.2472977E-006  0.9118800E+02  0.7816164E-02  0.1184000E+00
        -11   -1    0    0    0    0  0.00000000000E+00  0.00000000000E+00  0.45593999997E+02  0.45594000000E+02  0.51100000000E-03 0. -1.
         11   -1    0    0    0    0 -0.00000000000E+00 -0.00000000000E+00 -0.45593999997E+02  0.45594000000E+02  0.51100000000E-03 0.  1.
         23    2    1    2    0    0  0.00000000000E+00  0.00000000000E+00  0.00000000000E+00  0.91188000000E+02  0.91188000000E+02 0.  0.
    9900012    2    3    3    0    0 -0.19904679118E+02  0.12745686590E+02 -0.28233509367E+02  0.54367084360E+02  0.40000000414E+02 0.  0.
         12    1    3    3    0    0  0.19904679118E+02 -0.12745686590E+02  0.28233509367E+02  0.36820915640E+02  0.00000000000E+00 0. -1.
         11    1    4    4    0    0 -0.26075932511E+01 -0.28423895280E+00 -0.13199505253E+02  0.13457610246E+02  0.51100000000E-03 0. -1.
        -11    1    4    4    0    0 -0.17182078323E+02  0.12720078233E+02 -0.23883507828E+02  0.32053800900E+02  0.51100000000E-03 0.  1.
        -12    1    4    4    0    0 -0.11500754370E+00  0.30984731034E+00  0.88495037136E+01  0.88556732137E+01  0.00000000000E+00 0.  1.
</event>
<event>
 8    1  0.2472977E-006  0.9118800E+02  0.7816164E-02  0.1184000E+00
        -11   -1    0    0    0    0  0.00000000000E+00  0.00000000000E+00  0.45593999997E+02  0.45594000000E+02  0.51100000000E-03 0.  1.
         11   -1    0    0    0    0 -0.00000000000E+00 -0.00000000000E+00 -0.45593999997E+02  0.45594000000E+02  0.51100000000E-03 0. -1.
         23    2    1    2    0    0  0.00000000000E+00  0.00000000000E+00  0.00000000000E+00  0.91188000000E+02  0.91188000000E+02 0.  0.
    9900012    2    3    3    0    0  0.18410023506E+02 -0.25594828034E+02 -0.19019867013E+02  0.54367088431E+02  0.40000009697E+02 0.  0.
        -12    1    3    3    0    0 -0.18410023506E+02  0.25594828034E+02  0.19019867013E+02  0.36820911569E+02  0.00000000000E+00 0.  1.
         11    1    4    4    0    0 -0.22736388748E+01 -0.10905600985E+02 -0.87991179569E+01  0.14195986886E+02  0.51100000000E-03 0.  1.
        -11    1    4    4    0    0  0.15227321423E+02 -0.20150629101E+02 -0.16543088349E+02  0.30192597491E+02  0.51100000000E-03 0. -1.
        -12    1    4    4    0    0  0.54563409577E+01  0.54614020524E+01  0.63223392931E+01  0.99785040543E+01  0.00000000000E+00 0.  1.
</event>
<event>
 8    1  0.2472977E-006  0.9118800E+02  0.7816164E-02  0.1184000E+00
        -11   -1    0    0    0    0  0.00000000000E+00  0.00000000000E+00  0.45593999997E+02  0.45594000000E+02  0.51100000000E-03 0.  1.
         11   -1    0    0    0    0 -0.00000000000E+00 -0.00000000000E+00 -0.45593999997E+02  0.45594000000E+02  0.51100000000E-03 0. -1.
         23    2    1    2    0    0 -0.71054273576E-14 -0.88817841970E-15  0.88817841970E-15  0.91188000000E+02  0.91188000000E+02 0.  0.
    9900012    2    3    3    0    0 -0.35768353596E+02  0.43543949166E+01 -0.75792647439E+01  0.54367066713E+02  0.39999960185E+02 0.  0.
        -12    1    3    3    0    0  0.35768353596E+02 -0.43543949166E+01  0.75792647439E+01  0.36820933287E+02  0.00000000000E+00 0.  1.
         11    1    4    4    0    0  0.11095743806E+01 -0.50832304346E+01 -0.40172699404E+01  0.65733435170E+01  0.51100000000E-03 0. -1.
        -11    1    4    4    0    0 -0.34892780837E+02  0.94272152050E+01 -0.12801065264E+02  0.38343784545E+02  0.51100000000E-03 0.  1.
        -12    1    4    4    0    0 -0.19851471398E+01  0.10410146296E-01  0.92390704603E+01  0.94499386510E+01  0.00000000000E+00 0.  1.
</event>
<event>
 8    1  0.2472977E-006  0.9118800E+02  0.7816164E-02  0.1184000E+00
        -11   -1    0    0    0    0  0.00000000000E+00  0.00000000000E+00  0.45593999997E+02  0.45594000000E+02  0.51100000000E-03 0.  1.
         11   -1    0    0    0    0 -0.00000000000E+00 -0.00000000000E+00 -0.45593999997E+02  0.45594000000E+02  0.51100000000E-03 0. -1.
         23    2    1    2    0    0 -0.88817841970E-15  0.00000000000E+00  0.00000000000E+00  0.91188000000E+02  0.91188000000E+02 0.  0.
    9900012    2    3    3    0    0  0.36252476513E+01  0.18385495531E+02  0.31695862089E+02  0.54366857432E+02  0.39999483084E+02 0.  0.
         12    1    3    3    0    0 -0.36252476513E+01 -0.18385495531E+02 -0.31695862089E+02  0.36821142568E+02  0.00000000000E+00 0. -1.
         11    1    4    4    0    0  0.10650105561E+02  0.84213039554E+01  0.33616670222E+01  0.13987276869E+02  0.51100000000E-03 0. -1.
        -11    1    4    4    0    0 -0.89956928782E+01  0.17942404051E+02  0.16559112236E+02  0.26020310371E+02  0.51100000000E-03 0.  1.
        -12    1    4    4    0    0  0.19708349680E+01 -0.79782124754E+01  0.11775082830E+02  0.14359270192E+02  0.00000000000E+00 0.  1.
</event>
<event>
 8    1  0.2472977E-006  0.9118800E+02  0.7816164E-02  0.1184000E+00
        -11   -1    0    0    0    0  0.00000000000E+00  0.00000000000E+00  0.45593999997E+02  0.45594000000E+02  0.51100000000E-03 0.  1.
         11   -1    0    0    0    0 -0.00000000000E+00 -0.00000000000E+00 -0.45593999997E+02  0.45594000000E+02  0.51100000000E-03 0. -1.
         23    2    1    2    0    0  0.00000000000E+00 -0.35527136788E-14 -0.35527136788E-14  0.91188000000E+02  0.91188000000E+02 0.  0.
    9900012    2    3    3    0    0 -0.21077504659E+02  0.18978773543E+02  0.23480333096E+02  0.54367067229E+02  0.39999961363E+02 0.  0.
         12    1    3    3    0    0  0.21077504659E+02 -0.18978773543E+02 -0.23480333096E+02  0.36820932771E+02  0.00000000000E+00 0. -1.
         11    1    4    4    0    0  0.46227884981E+01 -0.18701168988E+01 -0.47470921670E+01  0.68849397250E+01  0.51100000000E-03 0. -1.
        -11    1    4    4    0    0  0.35920470638E+00  0.65623609646E+01  0.11444685695E+00  0.65731809495E+01  0.51100000000E-03 0.  1.
         12    1    4    4    0    0 -0.26059497863E+02  0.14286529477E+02  0.28112978406E+02  0.40908946555E+02  0.00000000000E+00 0. -1.
</event>
<event>
 8    1  0.2472977E-006  0.9118800E+02  0.7816164E-02  0.1184000E+00
        -11   -1    0    0    0    0  0.00000000000E+00  0.00000000000E+00  0.45593999997E+02  0.45594000000E+02  0.51100000000E-03 0.  1.
         11   -1    0    0    0    0 -0.00000000000E+00 -0.00000000000E+00 -0.45593999997E+02  0.45594000000E+02  0.51100000000E-03 0. -1.
         23    2    1    2    0    0 -0.35527136788E-14 -0.35527136788E-14  0.88817841970E-15  0.91188000000E+02  0.91188000000E+02 0.  0.
    9900012    2    3    3    0    0  0.22921071580E+02  0.27878664727E+02 -0.72927894029E+01  0.54367078683E+02  0.39999987474E+02 0.  0.
        -12    1    3    3    0    0 -0.22921071580E+02 -0.27878664727E+02  0.72927894029E+01  0.36820921317E+02  0.00000000000E+00 0.  1.
         11    1    4    4    0    0  0.36401813616E+01  0.14954894881E+02  0.92225289976E+01  0.17943100140E+02  0.51100000000E-03 0. -1.
        -11    1    4    4    0    0  0.22609826317E+02  0.11448610804E+02 -0.70846015602E+01  0.26314758501E+02  0.51100000000E-03 0.  1.
        -12    1    4    4    0    0 -0.33289360989E+01  0.14751590422E+01 -0.94307168403E+01  0.10109220043E+02  0.00000000000E+00 0.  1.
</event>
<event>
 8    1  0.2472977E-006  0.9118800E+02  0.7816164E-02  0.1184000E+00
        -11   -1    0    0    0    0  0.00000000000E+00  0.00000000000E+00  0.45593999997E+02  0.45594000000E+02  0.51100000000E-03 0.  1.
         11   -1    0    0    0    0 -0.00000000000E+00 -0.00000000000E+00 -0.45593999997E+02  0.45594000000E+02  0.51100000000E-03 0. -1.
         23    2    1    2    0    0  0.00000000000E+00  0.00000000000E+00  0.00000000000E+00  0.91188000000E+02  0.91188000000E+02 0.  0.
    9900012    2    3    3    0    0 -0.89970524590E+01  0.16613263572E+02 -0.31604309088E+02  0.54367084308E+02  0.40000000296E+02 0.  0.
        -12    1    3    3    0    0  0.89970524590E+01 -0.16613263572E+02  0.31604309088E+02  0.36820915692E+02  0.00000000000E+00 0.  1.
         11    1    4    4    0    0  0.15096163802E+01  0.22534133232E+02 -0.11032160618E+02  0.25135128213E+02  0.51100000000E-03 0. -1.
        -11    1    4    4    0    0 -0.11901365476E+02 -0.48210432143E+01 -0.22929619981E+02  0.26280266943E+02  0.51100000000E-03 0.  1.
        -12    1    4    4    0    0  0.13946966373E+01 -0.10998264455E+01  0.23574715108E+01  0.29516891511E+01  0.00000000000E+00 0.  1.
</event>
<event>
 8    1  0.2472977E-006  0.9118800E+02  0.7816164E-02  0.1184000E+00
        -11   -1    0    0    0    0  0.00000000000E+00  0.00000000000E+00  0.45593999997E+02  0.45594000000E+02  0.51100000000E-03 0.  1.
         11   -1    0    0    0    0 -0.00000000000E+00 -0.00000000000E+00 -0.45593999997E+02  0.45594000000E+02  0.51100000000E-03 0. -1.
         23    2    1    2    0    0 -0.35527136788E-14  0.00000000000E+00  0.00000000000E+00  0.91188000000E+02  0.91188000000E+02 0.  0.
    9900012    2    3    3    0    0  0.27261681519E+02 -0.22022219212E+02 -0.11296106550E+02  0.54367089616E+02  0.40000012398E+02 0.  0.
        -12    1    3    3    0    0 -0.27261681519E+02  0.22022219212E+02  0.11296106550E+02  0.36820910384E+02  0.00000000000E+00 0.  1.
         11    1    4    4    0    0  0.12127662178E+02 -0.15043144045E+02 -0.14725186460E+01  0.19378975311E+02  0.51100000000E-03 0. -1.
        -11    1    4    4    0    0  0.59435556303E+00  0.95967937504E+01 -0.86082709447E+01  0.12905581651E+02  0.51100000000E-03 0.  1.
        -12    1    4    4    0    0  0.14539663778E+02 -0.16575868917E+02 -0.12153169596E+01  0.22082532655E+02  0.00000000000E+00 0.  1.
</event>
<event>
 8    1  0.2472977E-006  0.9118800E+02  0.7816164E-02  0.1184000E+00
        -11   -1    0    0    0    0  0.00000000000E+00  0.00000000000E+00  0.45593999997E+02  0.45594000000E+02  0.51100000000E-03 0.  1.
         11   -1    0    0    0    0 -0.00000000000E+00 -0.00000000000E+00 -0.45593999997E+02  0.45594000000E+02  0.51100000000E-03 0. -1.
         23    2    1    2    0    0  0.00000000000E+00  0.88817841970E-15  0.00000000000E+00  0.91188000000E+02  0.91188000000E+02 0.  0.
    9900012    2    3    3    0    0 -0.41385747414E+01  0.70508301772E+01 -0.35901782363E+02  0.54367082251E+02  0.39999995607E+02 0.  0.
        -12    1    3    3    0    0  0.41385747414E+01 -0.70508301772E+01  0.35901782363E+02  0.36820917749E+02  0.00000000000E+00 0.  1.
         11    1    4    4    0    0  0.18163544690E+01 -0.27822765003E+01  0.31607059785E+01  0.45858770834E+01  0.51100000000E-03 0. -1.
        -11    1    4    4    0    0 -0.12863095319E+00  0.25653119876E+01  0.45284320836E+01  0.52061568276E+01  0.51100000000E-03 0.  1.
         12    1    4    4    0    0 -0.58262982571E+01  0.72677946899E+01 -0.43590920425E+02  0.44575048340E+02  0.00000000000E+00 0. -1.
</event>
<event>
 8    1  0.2472977E-006  0.9118800E+02  0.7816164E-02  0.1184000E+00
        -11   -1    0    0    0    0  0.00000000000E+00  0.00000000000E+00  0.45593999997E+02  0.45594000000E+02  0.51100000000E-03 0. -1.
         11   -1    0    0    0    0 -0.00000000000E+00 -0.00000000000E+00 -0.45593999997E+02  0.45594000000E+02  0.51100000000E-03 0.  1.
         23    2    1    2    0    0  0.22204460493E-15  0.00000000000E+00 -0.71054273576E-14  0.91188000000E+02  0.91188000000E+02 0.  0.
    9900012    2    3    3    0    0 -0.83385319782E+00  0.71165362905E+01  0.36116956352E+02  0.54367150796E+02  0.40000151870E+02 0.  0.
        -12    1    3    3    0    0  0.83385319782E+00 -0.71165362905E+01 -0.36116956352E+02  0.36820849204E+02  0.00000000000E+00 0.  1.
         11    1    4    4    0    0 -0.43274974086E+01  0.71229042847E+00  0.35646807421E+02  0.35915588134E+02  0.51100000000E-03 0. -1.
        -11    1    4    4    0    0  0.47527459662E+01  0.23212783790E+01 -0.76355856020E+01  0.92886541156E+01  0.51100000000E-03 0.  1.
        -12    1    4    4    0    0 -0.12591017555E+01  0.40829674831E+01  0.81057345335E+01  0.91629085462E+01  0.00000000000E+00 0.  1.
</event>
<event>
 8    1  0.2472977E-006  0.9118800E+02  0.7816164E-02  0.1184000E+00
        -11   -1    0    0    0    0  0.00000000000E+00  0.00000000000E+00  0.45593999997E+02  0.45594000000E+02  0.51100000000E-03 0.  1.
         11   -1    0    0    0    0 -0.00000000000E+00 -0.00000000000E+00 -0.45593999997E+02  0.45594000000E+02  0.51100000000E-03 0. -1.
         23    2    1    2    0    0  0.35527136788E-14  0.17763568394E-14 -0.35527136788E-14  0.91188000000E+02  0.91188000000E+02 0.  0.
    9900012    2    3    3    0    0  0.21177394674E+02 -0.11096239406E+02 -0.28002966992E+02  0.54367153534E+02  0.40000158111E+02 0.  0.
        -12    1    3    3    0    0 -0.21177394674E+02  0.11096239406E+02  0.28002966992E+02  0.36820846466E+02  0.00000000000E+00 0.  1.
         11    1    4    4    0    0  0.61812392715E+01  0.97177576891E+01 -0.12262426933E+02  0.16822890595E+02  0.51100000000E-03 0. -1.
        -11    1    4    4    0    0 -0.17693177541E+01  0.10847449240E+01  0.33930714196E+01  0.39774477727E+01  0.51100000000E-03 0.  1.
         12    1    4    4    0    0  0.16765473156E+02 -0.21898742019E+02 -0.19133611479E+02  0.33566815166E+02  0.00000000000E+00 0. -1.
</event>
<event>
 8    1  0.2472977E-006  0.9118800E+02  0.7816164E-02  0.1184000E+00
        -11   -1    0    0    0    0  0.00000000000E+00  0.00000000000E+00  0.45593999997E+02  0.45594000000E+02  0.51100000000E-03 0.  1.
         11   -1    0    0    0    0 -0.00000000000E+00 -0.00000000000E+00 -0.45593999997E+02  0.45594000000E+02  0.51100000000E-03 0. -1.
         23    2    1    2    0    0 -0.17763568394E-14  0.00000000000E+00 -0.35527136788E-14  0.91188000000E+02  0.91188000000E+02 0.  0.
    9900012    2    3    3    0    0 -0.12288979888E+02  0.24210515112E+02  0.24872005139E+02  0.54367018097E+02  0.39999849355E+02 0.  0.
         12    1    3    3    0    0  0.12288979888E+02 -0.24210515112E+02 -0.24872005139E+02  0.36820981903E+02  0.00000000000E+00 0. -1.
         11    1    4    4    0    0  0.61729813769E+00 -0.60233916757E+01  0.19157323159E+02  0.20091424418E+02  0.51100000000E-03 0. -1.
        -11    1    4    4    0    0 -0.14712818229E+01  0.69481712516E+01  0.42839704835E+01  0.82942243344E+01  0.51100000000E-03 0.  1.
        -12    1    4    4    0    0 -0.11434996203E+02  0.23285735536E+02  0.14307114959E+01  0.25981369344E+02  0.00000000000E+00 0.  1.
</event>
<event>
 8    1  0.2472977E-006  0.9118800E+02  0.7816164E-02  0.1184000E+00
        -11   -1    0    0    0    0  0.00000000000E+00  0.00000000000E+00  0.45593999997E+02  0.45594000000E+02  0.51100000000E-03 0.  1.
         11   -1    0    0    0    0 -0.00000000000E+00 -0.00000000000E+00 -0.45593999997E+02  0.45594000000E+02  0.51100000000E-03 0. -1.
         23    2    1    2    0    0  0.35527136788E-14  0.35527136788E-14  0.00000000000E+00  0.91188000000E+02  0.91188000000E+02 0.  0.
    9900012    2    3    3    0    0  0.22630719220E+02 -0.28332462627E+02  0.63953914441E+01  0.54367096662E+02  0.40000028460E+02 0.  0.
         12    1    3    3    0    0 -0.22630719220E+02  0.28332462627E+02 -0.63953914441E+01  0.36820903338E+02  0.00000000000E+00 0. -1.
         11    1    4    4    0    0  0.26782692696E+01  0.44849511076E+01  0.68010943567E+01  0.85757097332E+01  0.51100000000E-03 0.  1.
        -11    1    4    4    0    0  0.22395779235E+02 -0.16612645973E+02  0.54053412633E+01  0.28403673146E+02  0.51100000000E-03 0. -1.
         12    1    4    4    0    0 -0.24433292842E+01 -0.16204767761E+02 -0.58110441758E+01  0.17387713783E+02  0.00000000000E+00 0. -1.
</event>
<event>
 8    1  0.2472977E-006  0.9118800E+02  0.7816164E-02  0.1184000E+00
        -11   -1    0    0    0    0  0.00000000000E+00  0.00000000000E+00  0.45593999997E+02  0.45594000000E+02  0.51100000000E-03 0.  1.
         11   -1    0    0    0    0 -0.00000000000E+00 -0.00000000000E+00 -0.45593999997E+02  0.45594000000E+02  0.51100000000E-03 0. -1.
         23    2    1    2    0    0 -0.35527136788E-14  0.71054273576E-14 -0.27807617320E-14  0.91188000000E+02  0.91188000000E+02 0.  0.
    9900012    2    3    3    0    0  0.17941948991E+02 -0.32153789228E+02 -0.10103601201E-01  0.54367084784E+02  0.40000001382E+02 0.  0.
         12    1    3    3    0    0 -0.17941948991E+02  0.32153789228E+02  0.10103601201E-01  0.36820915216E+02  0.00000000000E+00 0. -1.
         11    1    4    4    0    0  0.22216522636E+02 -0.11377748842E+02 -0.11776371185E+02  0.27599093559E+02  0.51100000000E-03 0. -1.
        -11    1    4    4    0    0  0.10546098167E+01 -0.15016618440E+02  0.11452787774E+02  0.18915004079E+02  0.51100000000E-03 0.  1.
         12    1    4    4    0    0 -0.53291834620E+01 -0.57594219461E+01  0.31347981041E+00  0.78529871461E+01  0.00000000000E+00 0. -1.
</event>
<event>
 8    1  0.2472977E-006  0.9118800E+02  0.7816164E-02  0.1184000E+00
        -11   -1    0    0    0    0  0.00000000000E+00  0.00000000000E+00  0.45593999997E+02  0.45594000000E+02  0.51100000000E-03 0. -1.
         11   -1    0    0    0    0 -0.00000000000E+00 -0.00000000000E+00 -0.45593999997E+02  0.45594000000E+02  0.51100000000E-03 0.  1.
         23    2    1    2    0    0  0.00000000000E+00  0.00000000000E+00  0.00000000000E+00  0.91188000000E+02  0.91188000000E+02 0.  0.
    9900012    2    3    3    0    0  0.11699528701E+02  0.88215648243E+01 -0.33779892451E+02  0.54367080514E+02  0.39999991649E+02 0.  0.
         12    1    3    3    0    0 -0.11699528701E+02 -0.88215648243E+01  0.33779892451E+02  0.36820919486E+02  0.00000000000E+00 0. -1.
         11    1    4    4    0    0  0.34195589794E+01  0.17897691798E+02 -0.24875100038E+01  0.18390444845E+02  0.51100000000E-03 0. -1.
        -11    1    4    4    0    0  0.10987052716E+02 -0.34644174730E+01 -0.20199949578E+02  0.23254149716E+02  0.51100000000E-03 0.  1.
        -12    1    4    4    0    0 -0.27070829948E+01 -0.56117095012E+01 -0.11092432869E+02  0.12722485953E+02  0.00000000000E+00 0.  1.
</event>
<event>
 8    1  0.2472977E-006  0.9118800E+02  0.7816164E-02  0.1184000E+00
        -11   -1    0    0    0    0  0.00000000000E+00  0.00000000000E+00  0.45593999997E+02  0.45594000000E+02  0.51100000000E-03 0. -1.
         11   -1    0    0    0    0 -0.00000000000E+00 -0.00000000000E+00 -0.45593999997E+02  0.45594000000E+02  0.51100000000E-03 0.  1.
         23    2    1    2    0    0  0.00000000000E+00 -0.17763568394E-14  0.00000000000E+00  0.91188000000E+02  0.91188000000E+02 0.  0.
    9900012    2    3    3    0    0 -0.35311632185E+02  0.87678938909E+01  0.56555604432E+01  0.54367181231E+02  0.40000221252E+02 0.  0.
        -12    1    3    3    0    0  0.35311632185E+02 -0.87678938909E+01 -0.56555604432E+01  0.36820818769E+02  0.00000000000E+00 0.  1.
         11    1    4    4    0    0  0.35823541302E+01 -0.46886996086E+01 -0.60017094818E+01  0.84165124666E+01  0.51100000000E-03 0. -1.
        -11    1    4    4    0    0 -0.16593135900E+02 -0.13215875300E+01 -0.29699200553E+00  0.16648331961E+02  0.51100000000E-03 0.  1.
         12    1    4    4    0    0 -0.22300850416E+02  0.14778181030E+02  0.11954261931E+02  0.29302336803E+02  0.00000000000E+00 0. -1.
</event>
<event>
 8    1  0.2472977E-006  0.9118800E+02  0.7816164E-02  0.1184000E+00
        -11   -1    0    0    0    0  0.00000000000E+00  0.00000000000E+00  0.45593999997E+02  0.45594000000E+02  0.51100000000E-03 0. -1.
         11   -1    0    0    0    0 -0.00000000000E+00 -0.00000000000E+00 -0.45593999997E+02  0.45594000000E+02  0.51100000000E-03 0.  1.
         23    2    1    2    0    0  0.00000000000E+00  0.00000000000E+00  0.00000000000E+00  0.91188000000E+02  0.91188000000E+02 0.  0.
    9900012    2    3    3    0    0  0.30132950140E+02  0.17464562424E+02  0.11948760831E+02  0.54367102263E+02  0.40000041229E+02 0.  0.
        -12    1    3    3    0    0 -0.30132950140E+02 -0.17464562424E+02 -0.11948760831E+02  0.36820897737E+02  0.00000000000E+00 0.  1.
         11    1    4    4    0    0 -0.19121831986E+01 -0.44465539494E+01  0.77851023061E+01  0.91671208559E+01  0.51100000000E-03 0. -1.
        -11    1    4    4    0    0  0.22372807919E+02  0.22469697637E+02 -0.47167323736E+01  0.32057408046E+02  0.51100000000E-03 0.  1.
        -12    1    4    4    0    0  0.96723254189E+01 -0.55858126351E+00  0.88803908987E+01  0.13142573361E+02  0.00000000000E+00 0.  1.
</event>
<event>
 8    1  0.2472977E-006  0.9118800E+02  0.7816164E-02  0.1184000E+00
        -11   -1    0    0    0    0  0.00000000000E+00  0.00000000000E+00  0.45593999997E+02  0.45594000000E+02  0.51100000000E-03 0.  1.
         11   -1    0    0    0    0 -0.00000000000E+00 -0.00000000000E+00 -0.45593999997E+02  0.45594000000E+02  0.51100000000E-03 0. -1.
         23    2    1    2    0    0  0.00000000000E+00 -0.35527136788E-14  0.00000000000E+00  0.91188000000E+02  0.91188000000E+02 0.  0.
    9900012    2    3    3    0    0  0.16661324224E+02  0.21029583906E+02 -0.25217784179E+02  0.54367085250E+02  0.40000002443E+02 0.  0.
         12    1    3    3    0    0 -0.16661324224E+02 -0.21029583906E+02  0.25217784179E+02  0.36820914750E+02  0.00000000000E+00 0. -1.
         11    1    4    4    0    0  0.90183057927E+01  0.17038496686E+02 -0.15094641531E+02  0.24484452453E+02  0.51100000000E-03 0. -1.
        -11    1    4    4    0    0 -0.20474884136E+01  0.10236443391E+02 -0.14226317237E+02  0.17645540074E+02  0.51100000000E-03 0.  1.
        -12    1    4    4    0    0  0.96905068447E+01 -0.62453561708E+01  0.41031745891E+01  0.12237092723E+02  0.00000000000E+00 0.  1.
</event>
<event>
 8    1  0.2472977E-006  0.9118800E+02  0.7816164E-02  0.1184000E+00
        -11   -1    0    0    0    0  0.00000000000E+00  0.00000000000E+00  0.45593999997E+02  0.45594000000E+02  0.51100000000E-03 0. -1.
         11   -1    0    0    0    0 -0.00000000000E+00 -0.00000000000E+00 -0.45593999997E+02  0.45594000000E+02  0.51100000000E-03 0.  1.
         23    2    1    2    0    0  0.19984014443E-14  0.00000000000E+00  0.17763568394E-14  0.91188000000E+02  0.91188000000E+02 0.  0.
    9900012    2    3    3    0    0 -0.10666108478E+01  0.35053837972E+02 -0.11219176097E+02  0.54367093879E+02  0.40000022117E+02 0.  0.
         12    1    3    3    0    0  0.10666108478E+01 -0.35053837972E+02  0.11219176097E+02  0.36820906121E+02  0.00000000000E+00 0. -1.
         11    1    4    4    0    0 -0.65425232183E+01  0.16937494183E+02  0.29593485755E+00  0.18159595176E+02  0.51100000000E-03 0. -1.
        -11    1    4    4    0    0  0.11434805454E+02 -0.29701359323E+01 -0.86974352186E+00  0.11846220379E+02  0.51100000000E-03 0.  1.
        -12    1    4    4    0    0 -0.59588930832E+01  0.21086479721E+02 -0.10645367433E+02  0.24361278324E+02  0.00000000000E+00 0.  1.
</event>
<event>
 8    1  0.2472977E-006  0.9118800E+02  0.7816164E-02  0.1184000E+00
        -11   -1    0    0    0    0  0.00000000000E+00  0.00000000000E+00  0.45593999997E+02  0.45594000000E+02  0.51100000000E-03 0. -1.
         11   -1    0    0    0    0 -0.00000000000E+00 -0.00000000000E+00 -0.45593999997E+02  0.45594000000E+02  0.51100000000E-03 0.  1.
         23    2    1    2    0    0  0.35527136788E-14 -0.27755575616E-15  0.35527136788E-14  0.91188000000E+02  0.91188000000E+02 0.  0.
    9900012    2    3    3    0    0 -0.21210890864E+02 -0.34589611058E+00 -0.30095621529E+02  0.54367245382E+02  0.40000367496E+02 0.  0.
         12    1    3    3    0    0  0.21210890864E+02  0.34589611058E+00  0.30095621529E+02  0.36820754618E+02  0.00000000000E+00 0. -1.
         11    1    4    4    0    0 -0.16927273049E+02  0.91921604073E+01 -0.16263831411E+01  0.19330636519E+02  0.51100000000E-03 0. -1.
        -11    1    4    4    0    0  0.18799784976E+00 -0.12918775906E+02 -0.11976515583E+02  0.17617237011E+02  0.51100000000E-03 0.  1.
        -12    1    4    4    0    0 -0.44716156651E+01  0.33807193883E+01 -0.16492722805E+02  0.17419371853E+02  0.00000000000E+00 0.  1.
</event>
<event>
 8    1  0.2472977E-006  0.9118800E+02  0.7816164E-02  0.1184000E+00
        -11   -1    0    0    0    0  0.00000000000E+00  0.00000000000E+00  0.45593999997E+02  0.45594000000E+02  0.51100000000E-03 0. -1.
         11   -1    0    0    0    0 -0.00000000000E+00 -0.00000000000E+00 -0.45593999997E+02  0.45594000000E+02  0.51100000000E-03 0.  1.
         23    2    1    2    0    0 -0.35527136788E-14  0.00000000000E+00  0.00000000000E+00  0.91188000000E+02  0.91188000000E+02 0.  0.
    9900012    2    3    3    0    0 -0.18398288238E+02  0.31272146619E+02  0.62718224488E+01  0.54367083103E+02  0.39999997551E+02 0.  0.
        -12    1    3    3    0    0  0.18398288238E+02 -0.31272146619E+02 -0.62718224488E+01  0.36820916897E+02  0.00000000000E+00 0.  1.
         11    1    4    4    0    0  0.53314592885E+01  0.39914704132E+01  0.22532650789E+01  0.70308959586E+01  0.51100000000E-03 0. -1.
        -11    1    4    4    0    0 -0.22570605093E+02  0.46902041817E+01  0.79334850767E+01  0.24379713191E+02  0.51100000000E-03 0.  1.
        -12    1    4    4    0    0 -0.11591424340E+01  0.22590472024E+02 -0.39149277068E+01  0.22956473954E+02  0.00000000000E+00 0.  1.
</event>
<event>
 8    1  0.2472977E-006  0.9118800E+02  0.7816164E-02  0.1184000E+00
        -11   -1    0    0    0    0  0.00000000000E+00  0.00000000000E+00  0.45593999997E+02  0.45594000000E+02  0.51100000000E-03 0. -1.
         11   -1    0    0    0    0 -0.00000000000E+00 -0.00000000000E+00 -0.45593999997E+02  0.45594000000E+02  0.51100000000E-03 0.  1.
         23    2    1    2    0    0  0.11102230246E-14  0.00000000000E+00  0.35527136788E-14  0.91188000000E+02  0.91188000000E+02 0.  0.
    9900012    2    3    3    0    0 -0.14550135083E+01  0.24839337448E+02 -0.27141610288E+02  0.54367126054E+02  0.40000095465E+02 0.  0.
         12    1    3    3    0    0  0.14550135083E+01 -0.24839337448E+02  0.27141610288E+02  0.36820873946E+02  0.00000000000E+00 0. -1.
         11    1    4    4    0    0  0.42066981014E+01  0.90453268512E+01 -0.12556484934E+02  0.16036818915E+02  0.51100000000E-03 0.  1.
        -11    1    4    4    0    0  0.49378827667E+01 -0.17685037949E+01  0.68722280614E+01  0.86451032775E+01  0.51100000000E-03 0. -1.
        -12    1    4    4    0    0 -0.10599594376E+02  0.17562514392E+02 -0.21457353415E+02  0.29685203861E+02  0.00000000000E+00 0.  1.
</event>
<event>
 8    1  0.2472977E-006  0.9118800E+02  0.7816164E-02  0.1184000E+00
        -11   -1    0    0    0    0  0.00000000000E+00  0.00000000000E+00  0.45593999997E+02  0.45594000000E+02  0.51100000000E-03 0. -1.
         11   -1    0    0    0    0 -0.00000000000E+00 -0.00000000000E+00 -0.45593999997E+02  0.45594000000E+02  0.51100000000E-03 0.  1.
         23    2    1    2    0    0  0.00000000000E+00  0.00000000000E+00 -0.35527136788E-14  0.91188000000E+02  0.91188000000E+02 0.  0.
    9900012    2    3    3    0    0 -0.25235032477E+02 -0.86398036640E+01 -0.25383367883E+02  0.54367239055E+02  0.40000353072E+02 0.  0.
         12    1    3    3    0    0  0.25235032477E+02  0.86398036640E+01  0.25383367883E+02  0.36820760945E+02  0.00000000000E+00 0. -1.
         11    1    4    4    0    0 -0.14029845476E+02 -0.42995122078E+00 -0.11401314559E+02  0.18083456419E+02  0.51100000000E-03 0. -1.
        -11    1    4    4    0    0 -0.27471516987E+00 -0.76856850892E+01 -0.21614524960E+02  0.22941946588E+02  0.51100000000E-03 0.  1.
        -12    1    4    4    0    0 -0.10930471831E+02 -0.52416735400E+00  0.76324716360E+01  0.13341836048E+02  0.00000000000E+00 0.  1.
</event>
<event>
 8    1  0.2472977E-006  0.9118800E+02  0.7816164E-02  0.1184000E+00
        -11   -1    0    0    0    0  0.00000000000E+00  0.00000000000E+00  0.45593999997E+02  0.45594000000E+02  0.51100000000E-03 0. -1.
         11   -1    0    0    0    0 -0.00000000000E+00 -0.00000000000E+00 -0.45593999997E+02  0.45594000000E+02  0.51100000000E-03 0.  1.
         23    2    1    2    0    0  0.00000000000E+00  0.00000000000E+00 -0.35527136788E-14  0.91188000000E+02  0.91188000000E+02 0.  0.
    9900012    2    3    3    0    0  0.17653142906E+02  0.12960369688E+02 -0.29600268550E+02  0.54367074765E+02  0.39999978542E+02 0.  0.
         12    1    3    3    0    0 -0.17653142906E+02 -0.12960369688E+02  0.29600268550E+02  0.36820925235E+02  0.00000000000E+00 0. -1.
         11    1    4    4    0    0  0.79995153627E+01  0.15431139265E+02 -0.72910695348E+01  0.18848660438E+02  0.51100000000E-03 0.  1.
        -11    1    4    4    0    0  0.14043636606E+02 -0.10277625813E+02 -0.93216768545E+01  0.19742010564E+02  0.51100000000E-03 0. -1.
         12    1    4    4    0    0 -0.43900090626E+01  0.78068562352E+01 -0.12987522161E+02  0.15776403764E+02  0.00000000000E+00 0. -1.
</event>
<event>
 8    1  0.2472977E-006  0.9118800E+02  0.7816164E-02  0.1184000E+00
        -11   -1    0    0    0    0  0.00000000000E+00  0.00000000000E+00  0.45593999997E+02  0.45594000000E+02  0.51100000000E-03 0.  1.
         11   -1    0    0    0    0 -0.00000000000E+00 -0.00000000000E+00 -0.45593999997E+02  0.45594000000E+02  0.51100000000E-03 0. -1.
         23    2    1    2    0    0  0.00000000000E+00  0.00000000000E+00  0.00000000000E+00  0.91188000000E+02  0.91188000000E+02 0.  0.
    9900012    2    3    3    0    0  0.92428731745E+01 -0.31356981162E+02 -0.16943715332E+02  0.54367075767E+02  0.39999980825E+02 0.  0.
        -12    1    3    3    0    0 -0.92428731745E+01  0.31356981162E+02  0.16943715332E+02  0.36820924233E+02  0.00000000000E+00 0.  1.
         11    1    4    4    0    0 -0.80867183963E+01 -0.15783940774E+02 -0.57885694553E+01  0.18655705224E+02  0.51100000000E-03 0. -1.
        -11    1    4    4    0    0  0.77959335609E+01 -0.10584709902E+02 -0.18491788347E+02  0.22688298754E+02  0.51100000000E-03 0.  1.
        -12    1    4    4    0    0  0.95336580099E+01 -0.49883304861E+01  0.73366424703E+01  0.13023071789E+02  0.00000000000E+00 0.  1.
</event>
<event>
 8    1  0.2472977E-006  0.9118800E+02  0.7816164E-02  0.1184000E+00
        -11   -1    0    0    0    0  0.00000000000E+00  0.00000000000E+00  0.45593999997E+02  0.45594000000E+02  0.51100000000E-03 0. -1.
         11   -1    0    0    0    0 -0.00000000000E+00 -0.00000000000E+00 -0.45593999997E+02  0.45594000000E+02  0.51100000000E-03 0.  1.
         23    2    1    2    0    0  0.00000000000E+00  0.00000000000E+00 -0.19984014443E-14  0.91188000000E+02  0.91188000000E+02 0.  0.
    9900012    2    3    3    0    0  0.36777995222E+02 -0.17487170324E+01  0.31783619848E+00  0.54367082526E+02  0.39999996234E+02 0.  0.
        -12    1    3    3    0    0 -0.36777995222E+02  0.17487170324E+01 -0.31783619848E+00  0.36820917474E+02  0.00000000000E+00 0.  1.
         11    1    4    4    0    0  0.89050773220E+01 -0.17997011933E+01 -0.12886795155E+02  0.15767333831E+02  0.51100000000E-03 0. -1.
        -11    1    4    4    0    0  0.12286112525E+02 -0.11230052339E+02  0.33380049908E+01  0.16976599015E+02  0.51100000000E-03 0.  1.
         12    1    4    4    0    0  0.15586805375E+02  0.11281036500E+02  0.98666263631E+01  0.21623149680E+02  0.00000000000E+00 0. -1.
</event>
<event>
 8    1  0.2472977E-006  0.9118800E+02  0.7816164E-02  0.1184000E+00
        -11   -1    0    0    0    0  0.00000000000E+00  0.00000000000E+00  0.45593999997E+02  0.45594000000E+02  0.51100000000E-03 0.  1.
         11   -1    0    0    0    0 -0.00000000000E+00 -0.00000000000E+00 -0.45593999997E+02  0.45594000000E+02  0.51100000000E-03 0. -1.
         23    2    1    2    0    0  0.00000000000E+00  0.71054273576E-14  0.00000000000E+00  0.91188000000E+02  0.91188000000E+02 0.  0.
    9900012    2    3    3    0    0  0.10091056038E+02  0.31396918393E+02  0.16376316455E+02  0.54367086959E+02  0.40000006340E+02 0.  0.
         12    1    3    3    0    0 -0.10091056038E+02 -0.31396918393E+02 -0.16376316455E+02  0.36820913041E+02  0.00000000000E+00 0. -1.
         11    1    4    4    0    0 -0.50839385238E+01 -0.48534287344E+00 -0.10240454315E+01  0.52087098139E+01  0.51100000000E-03 0. -1.
        -11    1    4    4    0    0  0.21909241086E+02  0.15093182811E+02  0.46034135164E+01  0.27000193121E+02  0.51100000000E-03 0.  1.
        -12    1    4    4    0    0 -0.67342465237E+01  0.16789078456E+02  0.12796948370E+02  0.22158184024E+02  0.00000000000E+00 0.  1.
</event>
<event>
 8    1  0.2472977E-006  0.9118800E+02  0.7816164E-02  0.1184000E+00
        -11   -1    0    0    0    0  0.00000000000E+00  0.00000000000E+00  0.45593999997E+02  0.45594000000E+02  0.51100000000E-03 0. -1.
         11   -1    0    0    0    0 -0.00000000000E+00 -0.00000000000E+00 -0.45593999997E+02  0.45594000000E+02  0.51100000000E-03 0.  1.
         23    2    1    2    0    0  0.00000000000E+00  0.17763568394E-14  0.35527136788E-14  0.91188000000E+02  0.91188000000E+02 0.  0.
    9900012    2    3    3    0    0 -0.28721245505E+02 -0.15106121773E+02 -0.17397547503E+02  0.54367088584E+02  0.40000010045E+02 0.  0.
         12    1    3    3    0    0  0.28721245505E+02  0.15106121773E+02  0.17397547503E+02  0.36820911416E+02  0.00000000000E+00 0. -1.
         11    1    4    4    0    0  0.55459892127E+01 -0.15234356286E+01  0.61696031253E+01  0.84346224247E+01  0.51100000000E-03 0. -1.
        -11    1    4    4    0    0 -0.24617367628E+02 -0.25287749499E+01 -0.15158727423E+02  0.29020622134E+02  0.51100000000E-03 0.  1.
        -12    1    4    4    0    0 -0.96498670896E+01 -0.11053911194E+02 -0.84084232051E+01  0.16911844025E+02  0.00000000000E+00 0.  1.
</event>
<event>
 8    1  0.2472977E-006  0.9118800E+02  0.7816164E-02  0.1184000E+00
        -11   -1    0    0    0    0  0.00000000000E+00  0.00000000000E+00  0.45593999997E+02  0.45594000000E+02  0.51100000000E-03 0.  1.
         11   -1    0    0    0    0 -0.00000000000E+00 -0.00000000000E+00 -0.45593999997E+02  0.45594000000E+02  0.51100000000E-03 0. -1.
         23    2    1    2    0    0 -0.35527136788E-14  0.00000000000E+00  0.35527136788E-14  0.91188000000E+02  0.91188000000E+02 0.  0.
    9900012    2    3    3    0    0 -0.16115752678E+02  0.20971915587E+02  0.25617234741E+02  0.54367062430E+02  0.39999950422E+02 0.  0.
         12    1    3    3    0    0  0.16115752678E+02 -0.20971915587E+02 -0.25617234741E+02  0.36820937570E+02  0.00000000000E+00 0. -1.
         11    1    4    4    0    0 -0.67789139379E+01  0.10898650116E+02 -0.64154682980E+01  0.14348954048E+02  0.51100000000E-03 0. -1.
        -11    1    4    4    0    0  0.55672384288E+01  0.23293867228E+00  0.43266735594E+01  0.70546799006E+01  0.51100000000E-03 0.  1.
        -12    1    4    4    0    0 -0.14904077168E+02  0.98403267987E+01  0.27706029479E+02  0.32963428481E+02  0.00000000000E+00 0.  1.
</event>
<event>
 8    1  0.2472977E-006  0.9118800E+02  0.7816164E-02  0.1184000E+00
        -11   -1    0    0    0    0  0.00000000000E+00  0.00000000000E+00  0.45593999997E+02  0.45594000000E+02  0.51100000000E-03 0.  1.
         11   -1    0    0    0    0 -0.00000000000E+00 -0.00000000000E+00 -0.45593999997E+02  0.45594000000E+02  0.51100000000E-03 0. -1.
         23    2    1    2    0    0  0.13322676296E-14  0.00000000000E+00 -0.17763568394E-14  0.91188000000E+02  0.91188000000E+02 0.  0.
    9900012    2    3    3    0    0  0.23253574793E+01  0.34590491484E+02 -0.12404397254E+02  0.54367102948E+02  0.40000042790E+02 0.  0.
        -12    1    3    3    0    0 -0.23253574793E+01 -0.34590491484E+02  0.12404397254E+02  0.36820897052E+02  0.00000000000E+00 0.  1.
         11    1    4    4    0    0 -0.50622466337E+01  0.31181719733E+02  0.74685826101E+01  0.32460833522E+02  0.51100000000E-03 0. -1.
        -11    1    4    4    0    0  0.36729325140E+01 -0.19098878965E+00 -0.11405190707E+02  0.11983542269E+02  0.51100000000E-03 0.  1.
         12    1    4    4    0    0  0.37146715989E+01  0.35997605404E+01 -0.84677891567E+01  0.99227271573E+01  0.00000000000E+00 0. -1.
</event>
<event>
 8    1  0.2472977E-006  0.9118800E+02  0.7816164E-02  0.1184000E+00
        -11   -1    0    0    0    0  0.00000000000E+00  0.00000000000E+00  0.45593999997E+02  0.45594000000E+02  0.51100000000E-03 0.  1.
         11   -1    0    0    0    0 -0.00000000000E+00 -0.00000000000E+00 -0.45593999997E+02  0.45594000000E+02  0.51100000000E-03 0. -1.
         23    2    1    2    0    0 -0.35527136788E-14  0.35527136788E-14  0.00000000000E+00  0.91188000000E+02  0.91188000000E+02 0.  0.
    9900012    2    3    3    0    0  0.13350111542E+02 -0.30183304230E+02  0.16325506885E+02  0.54367088720E+02  0.40000010355E+02 0.  0.
        -12    1    3    3    0    0 -0.13350111542E+02  0.30183304230E+02 -0.16325506885E+02  0.36820911280E+02  0.00000000000E+00 0.  1.
         11    1    4    4    0    0  0.14152919441E+02 -0.18307161886E+02  0.14565552989E+02  0.27342506088E+02  0.51100000000E-03 0. -1.
        -11    1    4    4    0    0  0.12423929759E+01 -0.86138231142E+01  0.12717474757E+02  0.15410245079E+02  0.51100000000E-03 0.  1.
        -12    1    4    4    0    0 -0.20452008749E+01 -0.32623192297E+01 -0.10957520861E+02  0.11614337553E+02  0.00000000000E+00 0.  1.
</event>
<event>
 8    1  0.2472977E-006  0.9118800E+02  0.7816164E-02  0.1184000E+00
        -11   -1    0    0    0    0  0.00000000000E+00  0.00000000000E+00  0.45593999997E+02  0.45594000000E+02  0.51100000000E-03 0.  1.
         11   -1    0    0    0    0 -0.00000000000E+00 -0.00000000000E+00 -0.45593999997E+02  0.45594000000E+02  0.51100000000E-03 0. -1.
         23    2    1    2    0    0 -0.35527136788E-14  0.00000000000E+00  0.00000000000E+00  0.91188000000E+02  0.91188000000E+02 0.  0.
    9900012    2    3    3    0    0 -0.18792079134E+02 -0.20565314210E+02 -0.24077062442E+02  0.54367091231E+02  0.40000016079E+02 0.  0.
        -12    1    3    3    0    0  0.18792079134E+02  0.20565314210E+02  0.24077062442E+02  0.36820908769E+02  0.00000000000E+00 0.  1.
         11    1    4    4    0    0  0.58203845647E+01 -0.17790299093E+02 -0.77693418700E+01  0.20266580660E+02  0.51100000000E-03 0. -1.
        -11    1    4    4    0    0  0.37875668415E+00  0.39727083733E+01 -0.14035895851E+01  0.42303584280E+01  0.51100000000E-03 0.  1.
         12    1    4    4    0    0 -0.24991220383E+02 -0.67477234903E+01 -0.14904130987E+02  0.29870152143E+02  0.00000000000E+00 0. -1.
</event>
<event>
 8    1  0.2472977E-006  0.9118800E+02  0.7816164E-02  0.1184000E+00
        -11   -1    0    0    0    0  0.00000000000E+00  0.00000000000E+00  0.45593999997E+02  0.45594000000E+02  0.51100000000E-03 0. -1.
         11   -1    0    0    0    0 -0.00000000000E+00 -0.00000000000E+00 -0.45593999997E+02  0.45594000000E+02  0.51100000000E-03 0.  1.
         23    2    1    2    0    0 -0.71054273576E-14  0.00000000000E+00  0.00000000000E+00  0.91188000000E+02  0.91188000000E+02 0.  0.
    9900012    2    3    3    0    0  0.33556504617E+02 -0.14503407714E+02 -0.44035617784E+01  0.54367092980E+02  0.40000020066E+02 0.  0.
         12    1    3    3    0    0 -0.33556504617E+02  0.14503407714E+02  0.44035617784E+01  0.36820907020E+02  0.00000000000E+00 0. -1.
         11    1    4    4    0    0 -0.37534942785E+01 -0.69881317722E+00  0.36152040297E+01  0.52580185996E+01  0.51100000000E-03 0. -1.
        -11    1    4    4    0    0  0.21528506424E+02  0.67141528380E+01 -0.31663623814E+01  0.22772401897E+02  0.51100000000E-03 0.  1.
        -12    1    4    4    0    0  0.15781492472E+02 -0.20518747375E+02 -0.48524034267E+01  0.26336672483E+02  0.00000000000E+00 0.  1.
</event>
<event>
 8    1  0.2472977E-006  0.9118800E+02  0.7816164E-02  0.1184000E+00
        -11   -1    0    0    0    0  0.00000000000E+00  0.00000000000E+00  0.45593999997E+02  0.45594000000E+02  0.51100000000E-03 0.  1.
         11   -1    0    0    0    0 -0.00000000000E+00 -0.00000000000E+00 -0.45593999997E+02  0.45594000000E+02  0.51100000000E-03 0. -1.
         23    2    1    2    0    0 -0.88817841970E-15  0.00000000000E+00  0.00000000000E+00  0.91188000000E+02  0.91188000000E+02 0.  0.
    9900012    2    3    3    0    0 -0.22829091170E+01  0.13594385062E+02  0.34143200401E+02  0.54367121237E+02  0.40000084484E+02 0.  0.
         12    1    3    3    0    0  0.22829091170E+01 -0.13594385062E+02 -0.34143200401E+02  0.36820878763E+02  0.00000000000E+00 0. -1.
         11    1    4    4    0    0  0.10414305785E+02  0.13693900553E+02  0.84929657245E+01  0.19186222776E+02  0.51100000000E-03 0. -1.
        -11    1    4    4    0    0 -0.85380931604E+00 -0.91352686751E+01  0.10174319063E+02  0.13700324550E+02  0.51100000000E-03 0.  1.
         12    1    4    4    0    0 -0.11843405586E+02  0.90357531836E+01  0.15475915613E+02  0.21480573911E+02  0.00000000000E+00 0. -1.
</event>
<event>
 8    1  0.2472977E-006  0.9118800E+02  0.7816164E-02  0.1184000E+00
        -11   -1    0    0    0    0  0.00000000000E+00  0.00000000000E+00  0.45593999997E+02  0.45594000000E+02  0.51100000000E-03 0.  1.
         11   -1    0    0    0    0 -0.00000000000E+00 -0.00000000000E+00 -0.45593999997E+02  0.45594000000E+02  0.51100000000E-03 0. -1.
         23    2    1    2    0    0  0.17763568394E-14  0.35527136788E-14  0.35527136788E-14  0.91188000000E+02  0.91188000000E+02 0.  0.
    9900012    2    3    3    0    0  0.11301888290E+02  0.22468105508E+02  0.26892971013E+02  0.54367077498E+02  0.39999984772E+02 0.  0.
         12    1    3    3    0    0 -0.11301888290E+02 -0.22468105508E+02 -0.26892971013E+02  0.36820922502E+02  0.00000000000E+00 0. -1.
         11    1    4    4    0    0  0.49809633157E+01  0.10665658670E+02 -0.34753176919E+01  0.12273715971E+02  0.51100000000E-03 0. -1.
        -11    1    4    4    0    0  0.11911548699E+02  0.15822916673E+02  0.13765775646E+02  0.24119416740E+02  0.51100000000E-03 0.  1.
         12    1    4    4    0    0 -0.55906237254E+01 -0.40204698360E+01  0.16602513059E+02  0.17973944787E+02  0.00000000000E+00 0. -1.
</event>
<event>
 8    1  0.2472977E-006  0.9118800E+02  0.7816164E-02  0.1184000E+00
        -11   -1    0    0    0    0  0.00000000000E+00  0.00000000000E+00  0.45593999997E+02  0.45594000000E+02  0.51100000000E-03 0.  1.
         11   -1    0    0    0    0 -0.00000000000E+00 -0.00000000000E+00 -0.45593999997E+02  0.45594000000E+02  0.51100000000E-03 0. -1.
         23    2    1    2    0    0  0.88817841970E-15 -0.88817841970E-15  0.00000000000E+00  0.91188000000E+02  0.91188000000E+02 0.  0.
    9900012    2    3    3    0    0  0.73608247526E+01 -0.28167372571E+01 -0.35967537215E+02  0.54367089051E+02  0.40000011110E+02 0.  0.
        -12    1    3    3    0    0 -0.73608247526E+01  0.28167372571E+01  0.35967537215E+02  0.36820910949E+02  0.00000000000E+00 0.  1.
         11    1    4    4    0    0 -0.75900208605E+01  0.71962301344E+01 -0.17261351659E+02  0.20182874081E+02  0.51100000000E-03 0. -1.
        -11    1    4    4    0    0 -0.52411899080E+01  0.92410275975E+00 -0.56773016466E+01  0.77817601999E+01  0.51100000000E-03 0.  1.
        -12    1    4    4    0    0  0.20192035521E+02 -0.10937070151E+02 -0.13028883909E+02  0.26402454770E+02  0.00000000000E+00 0.  1.
</event>
<event>
 8    1  0.2472977E-006  0.9118800E+02  0.7816164E-02  0.1184000E+00
        -11   -1    0    0    0    0  0.00000000000E+00  0.00000000000E+00  0.45593999997E+02  0.45594000000E+02  0.51100000000E-03 0.  1.
         11   -1    0    0    0    0 -0.00000000000E+00 -0.00000000000E+00 -0.45593999997E+02  0.45594000000E+02  0.51100000000E-03 0. -1.
         23    2    1    2    0    0  0.00000000000E+00  0.00000000000E+00  0.00000000000E+00  0.91188000000E+02  0.91188000000E+02 0.  0.
    9900012    2    3    3    0    0 -0.12988745785E+02 -0.34315860107E+02 -0.30813002416E+01  0.54367079545E+02  0.39999989439E+02 0.  0.
         12    1    3    3    0    0  0.12988745785E+02  0.34315860107E+02  0.30813002416E+01  0.36820920455E+02  0.00000000000E+00 0. -1.
         11    1    4    4    0    0 -0.96693766441E+00 -0.10675535455E+01 -0.12924907835E+02  0.13004917602E+02  0.51100000000E-03 0. -1.
        -11    1    4    4    0    0  0.42409727177E+01 -0.15631456125E+02  0.37890737754E+01  0.16633861564E+02  0.51100000000E-03 0.  1.
         12    1    4    4    0    0 -0.16262780838E+02 -0.17616850436E+02  0.60545338183E+01  0.24728300379E+02  0.00000000000E+00 0. -1.
</event>
<event>
 8    1  0.2472977E-006  0.9118800E+02  0.7816164E-02  0.1184000E+00
        -11   -1    0    0    0    0  0.00000000000E+00  0.00000000000E+00  0.45593999997E+02  0.45594000000E+02  0.51100000000E-03 0.  1.
         11   -1    0    0    0    0 -0.00000000000E+00 -0.00000000000E+00 -0.45593999997E+02  0.45594000000E+02  0.51100000000E-03 0. -1.
         23    2    1    2    0    0 -0.88817841970E-15  0.71054273576E-14  0.44408920985E-15  0.91188000000E+02  0.91188000000E+02 0.  0.
    9900012    2    3    3    0    0 -0.46216091633E+01 -0.36489783522E+02 -0.17075618249E+01  0.54367090993E+02  0.40000015536E+02 0.  0.
        -12    1    3    3    0    0  0.46216091633E+01  0.36489783522E+02  0.17075618249E+01  0.36820909007E+02  0.00000000000E+00 0.  1.
         11    1    4    4    0    0 -0.27979025073E+01  0.71102233936E+00  0.28435279590E+01  0.40520936221E+01  0.51100000000E-03 0. -1.
        -11    1    4    4    0    0 -0.16470285843E+02 -0.12124706265E+02 -0.57668524887E+01  0.21249362476E+02  0.51100000000E-03 0.  1.
         12    1    4    4    0    0  0.14646579187E+02 -0.25076099597E+02  0.12157627047E+01  0.29065634895E+02  0.00000000000E+00 0. -1.
</event>
<event>
 8    1  0.2472977E-006  0.9118800E+02  0.7816164E-02  0.1184000E+00
        -11   -1    0    0    0    0  0.00000000000E+00  0.00000000000E+00  0.45593999997E+02  0.45594000000E+02  0.51100000000E-03 0. -1.
         11   -1    0    0    0    0 -0.00000000000E+00 -0.00000000000E+00 -0.45593999997E+02  0.45594000000E+02  0.51100000000E-03 0.  1.
         23    2    1    2    0    0  0.00000000000E+00 -0.17763568394E-14  0.00000000000E+00  0.91188000000E+02  0.91188000000E+02 0.  0.
    9900012    2    3    3    0    0  0.36113891499E+02  0.68479140356E+01 -0.21614435774E+01  0.54367096641E+02  0.40000028413E+02 0.  0.
         12    1    3    3    0    0 -0.36113891499E+02 -0.68479140356E+01  0.21614435774E+01  0.36820903359E+02  0.00000000000E+00 0. -1.
         11    1    4    4    0    0  0.17152582559E+02  0.14802122557E+02  0.23852216041E+01  0.22781641797E+02  0.51100000000E-03 0. -1.
        -11    1    4    4    0    0  0.20343323591E+02 -0.14174107430E+02 -0.26384755010E+01  0.24934267372E+02  0.51100000000E-03 0.  1.
        -12    1    4    4    0    0 -0.13820146505E+01  0.62198989085E+01 -0.19081896805E+01  0.66511874716E+01  0.00000000000E+00 0.  1.
</event>
<event>
 8    1  0.2472977E-006  0.9118800E+02  0.7816164E-02  0.1184000E+00
        -11   -1    0    0    0    0  0.00000000000E+00  0.00000000000E+00  0.45593999997E+02  0.45594000000E+02  0.51100000000E-03 0.  1.
         11   -1    0    0    0    0 -0.00000000000E+00 -0.00000000000E+00 -0.45593999997E+02  0.45594000000E+02  0.51100000000E-03 0. -1.
         23    2    1    2    0    0 -0.35527136788E-14  0.17763568394E-14  0.00000000000E+00  0.91188000000E+02  0.91188000000E+02 0.  0.
    9900012    2    3    3    0    0  0.21412761044E+01  0.14482950629E+02  0.33785178146E+02  0.54367093104E+02  0.40000020349E+02 0.  0.
         12    1    3    3    0    0 -0.21412761044E+01 -0.14482950629E+02 -0.33785178146E+02  0.36820906896E+02  0.00000000000E+00 0. -1.
         11    1    4    4    0    0 -0.18440547344E+02  0.70217303529E+01  0.14313748541E+02  0.24377076959E+02  0.51100000000E-03 0. -1.
        -11    1    4    4    0    0  0.13527420956E+02  0.60220644556E+01  0.16584959187E+02  0.22233246491E+02  0.51100000000E-03 0.  1.
         12    1    4    4    0    0  0.70544024920E+01  0.14391558206E+01  0.28864704187E+01  0.77567696545E+01  0.00000000000E+00 0. -1.
</event>
<event>
 8    1  0.2472977E-006  0.9118800E+02  0.7816164E-02  0.1184000E+00
        -11   -1    0    0    0    0  0.00000000000E+00  0.00000000000E+00  0.45593999997E+02  0.45594000000E+02  0.51100000000E-03 0. -1.
         11   -1    0    0    0    0 -0.00000000000E+00 -0.00000000000E+00 -0.45593999997E+02  0.45594000000E+02  0.51100000000E-03 0.  1.
         23    2    1    2    0    0 -0.66613381478E-15  0.00000000000E+00  0.00000000000E+00  0.91188000000E+02  0.91188000000E+02 0.  0.
    9900012    2    3    3    0    0 -0.16680116143E+01  0.35642390104E+02  0.90894133931E+01  0.54367086501E+02  0.40000005297E+02 0.  0.
         12    1    3    3    0    0  0.16680116143E+01 -0.35642390104E+02 -0.90894133931E+01  0.36820913499E+02  0.00000000000E+00 0. -1.
         11    1    4    4    0    0  0.87131798023E+01  0.34417937255E+01  0.58305469011E+01  0.11034524174E+02  0.51100000000E-03 0. -1.
        -11    1    4    4    0    0 -0.42064467749E+01  0.23976814865E+02 -0.10200736802E+02  0.26393879539E+02  0.51100000000E-03 0.  1.
         12    1    4    4    0    0 -0.61747446416E+01  0.82237815128E+01  0.13459603294E+02  0.16938682788E+02  0.00000000000E+00 0. -1.
</event>
<event>
 8    1  0.2472977E-006  0.9118800E+02  0.7816164E-02  0.1184000E+00
        -11   -1    0    0    0    0  0.00000000000E+00  0.00000000000E+00  0.45593999997E+02  0.45594000000E+02  0.51100000000E-03 0.  1.
         11   -1    0    0    0    0 -0.00000000000E+00 -0.00000000000E+00 -0.45593999997E+02  0.45594000000E+02  0.51100000000E-03 0. -1.
         23    2    1    2    0    0  0.00000000000E+00  0.35527136788E-14  0.00000000000E+00  0.91188000000E+02  0.91188000000E+02 0.  0.
    9900012    2    3    3    0    0  0.19682063218E+02  0.28189259540E+02 -0.13181841858E+02  0.54367096688E+02  0.40000028520E+02 0.  0.
        -12    1    3    3    0    0 -0.19682063218E+02 -0.28189259540E+02  0.13181841858E+02  0.36820903312E+02  0.00000000000E+00 0.  1.
         11    1    4    4    0    0 -0.80184146405E+01  0.67328474433E+01 -0.16224536609E+01  0.10595214211E+02  0.51100000000E-03 0. -1.
        -11    1    4    4    0    0  0.69273023150E+01  0.14480067719E+01 -0.13099317045E+02  0.14888799424E+02  0.51100000000E-03 0.  1.
        -12    1    4    4    0    0  0.20773175543E+02  0.20008405325E+02  0.15399288475E+01  0.28883083053E+02  0.00000000000E+00 0.  1.
</event>
<event>
 8    1  0.2472977E-006  0.9118800E+02  0.7816164E-02  0.1184000E+00
        -11   -1    0    0    0    0  0.00000000000E+00  0.00000000000E+00  0.45593999997E+02  0.45594000000E+02  0.51100000000E-03 0.  1.
         11   -1    0    0    0    0 -0.00000000000E+00 -0.00000000000E+00 -0.45593999997E+02  0.45594000000E+02  0.51100000000E-03 0. -1.
         23    2    1    2    0    0  0.35527136788E-14  0.00000000000E+00  0.00000000000E+00  0.91188000000E+02  0.91188000000E+02 0.  0.
    9900012    2    3    3    0    0  0.20133135287E+02  0.71909357443E+01  0.29978776901E+02  0.54367085320E+02  0.40000002605E+02 0.  0.
        -12    1    3    3    0    0 -0.20133135287E+02 -0.71909357443E+01 -0.29978776901E+02  0.36820914680E+02  0.00000000000E+00 0.  1.
         11    1    4    4    0    0 -0.90938684779E+01 -0.17810995132E+01  0.14926653289E+01  0.93860966016E+01  0.51100000000E-03 0. -1.
        -11    1    4    4    0    0  0.42151131977E+01  0.84442839248E+01  0.50646769305E+01  0.10710931936E+02  0.51100000000E-03 0.  1.
         12    1    4    4    0    0  0.25011890567E+02  0.52775133265E+00  0.23421434641E+02  0.34270056783E+02  0.00000000000E+00 0. -1.
</event>
<event>
 8    1  0.2472977E-006  0.9118800E+02  0.7816164E-02  0.1184000E+00
        -11   -1    0    0    0    0  0.00000000000E+00  0.00000000000E+00  0.45593999997E+02  0.45594000000E+02  0.51100000000E-03 0.  1.
         11   -1    0    0    0    0 -0.00000000000E+00 -0.00000000000E+00 -0.45593999997E+02  0.45594000000E+02  0.51100000000E-03 0. -1.
         23    2    1    2    0    0 -0.17763568394E-14  0.00000000000E+00  0.88817841970E-15  0.91188000000E+02  0.91188000000E+02 0.  0.
    9900012    2    3    3    0    0 -0.13456136695E+02  0.33876478520E+02  0.52053613127E+01  0.54367092921E+02  0.40000019932E+02 0.  0.
        -12    1    3    3    0    0  0.13456136695E+02 -0.33876478520E+02 -0.52053613127E+01  0.36820907079E+02  0.00000000000E+00 0.  1.
         11    1    4    4    0    0 -0.62937050585E+01  0.29794688081E+02 -0.12040122791E+02  0.32745972551E+02  0.51100000000E-03 0. -1.
        -11    1    4    4    0    0 -0.96108399942E+01  0.19872050349E+01  0.12729546067E+02  0.16073536406E+02  0.51100000000E-03 0.  1.
         12    1    4    4    0    0  0.24484083573E+01  0.20945854046E+01  0.45159380361E+01  0.55475839648E+01  0.00000000000E+00 0. -1.
</event>
<event>
 8    1  0.2472977E-006  0.9118800E+02  0.7816164E-02  0.1184000E+00
        -11   -1    0    0    0    0  0.00000000000E+00  0.00000000000E+00  0.45593999997E+02  0.45594000000E+02  0.51100000000E-03 0.  1.
         11   -1    0    0    0    0 -0.00000000000E+00 -0.00000000000E+00 -0.45593999997E+02  0.45594000000E+02  0.51100000000E-03 0. -1.
         23    2    1    2    0    0  0.00000000000E+00 -0.88817841970E-15  0.00000000000E+00  0.91188000000E+02  0.91188000000E+02 0.  0.
    9900012    2    3    3    0    0  0.16925068341E+02 -0.40004437714E+01  0.32454834953E+02  0.54367111899E+02  0.40000063197E+02 0.  0.
         12    1    3    3    0    0 -0.16925068341E+02  0.40004437714E+01 -0.32454834953E+02  0.36820888101E+02  0.00000000000E+00 0. -1.
         11    1    4    4    0    0  0.16616199756E+02 -0.18356478925E+01  0.22456447391E+02  0.27995709086E+02  0.51100000000E-03 0.  1.
        -11    1    4    4    0    0  0.88746336762E+01  0.74018557142E+01  0.44638480764E+01  0.12388403078E+02  0.51100000000E-03 0. -1.
         12    1    4    4    0    0 -0.85657650913E+01 -0.95666515931E+01  0.55345394853E+01  0.13982999736E+02  0.00000000000E+00 0. -1.
</event>
<event>
 8    1  0.2472977E-006  0.9118800E+02  0.7816164E-02  0.1184000E+00
        -11   -1    0    0    0    0  0.00000000000E+00  0.00000000000E+00  0.45593999997E+02  0.45594000000E+02  0.51100000000E-03 0.  1.
         11   -1    0    0    0    0 -0.00000000000E+00 -0.00000000000E+00 -0.45593999997E+02  0.45594000000E+02  0.51100000000E-03 0. -1.
         23    2    1    2    0    0  0.00000000000E+00  0.33306690739E-15 -0.35527136788E-14  0.91188000000E+02  0.91188000000E+02 0.  0.
    9900012    2    3    3    0    0 -0.33868589293E+02 -0.88956583916E+00 -0.14418972213E+02  0.54367089802E+02  0.40000012822E+02 0.  0.
        -12    1    3    3    0    0  0.33868589293E+02  0.88956583916E+00  0.14418972213E+02  0.36820910198E+02  0.00000000000E+00 0.  1.
         11    1    4    4    0    0 -0.15463294715E+02 -0.13337804738E+01  0.68959021942E+01  0.16983695744E+02  0.51100000000E-03 0. -1.
        -11    1    4    4    0    0 -0.28540494233E+01  0.10953387640E+02 -0.44902918684E+01  0.12177233685E+02  0.51100000000E-03 0.  1.
        -12    1    4    4    0    0 -0.15551245155E+02 -0.10509173005E+02 -0.16824582539E+02  0.25206160373E+02  0.00000000000E+00 0.  1.
</event>
<event>
 8    1  0.2472977E-006  0.9118800E+02  0.7816164E-02  0.1184000E+00
        -11   -1    0    0    0    0  0.00000000000E+00  0.00000000000E+00  0.45593999997E+02  0.45594000000E+02  0.51100000000E-03 0.  1.
         11   -1    0    0    0    0 -0.00000000000E+00 -0.00000000000E+00 -0.45593999997E+02  0.45594000000E+02  0.51100000000E-03 0. -1.
         23    2    1    2    0    0 -0.88817841970E-15  0.00000000000E+00  0.17763568394E-14  0.91188000000E+02  0.91188000000E+02 0.  0.
    9900012    2    3    3    0    0 -0.79585343674E+01  0.33437588393E+02 -0.13204886502E+02  0.54367087269E+02  0.40000007047E+02 0.  0.
        -12    1    3    3    0    0  0.79585343674E+01 -0.33437588393E+02  0.13204886502E+02  0.36820912731E+02  0.00000000000E+00 0.  1.
         11    1    4    4    0    0 -0.39304814233E+01  0.29154752338E+02  0.41332028890E+01  0.29707433994E+02  0.51100000000E-03 0. -1.
        -11    1    4    4    0    0 -0.49453693553E+01 -0.38318052690E+01 -0.92093002739E+00  0.63235687753E+01  0.51100000000E-03 0.  1.
         12    1    4    4    0    0  0.91731641124E+00  0.81146413236E+01 -0.16417159363E+02  0.18336084499E+02  0.00000000000E+00 0. -1.
</event>
<event>
 8    1  0.2472977E-006  0.9118800E+02  0.7816164E-02  0.1184000E+00
        -11   -1    0    0    0    0  0.00000000000E+00  0.00000000000E+00  0.45593999997E+02  0.45594000000E+02  0.51100000000E-03 0.  1.
         11   -1    0    0    0    0 -0.00000000000E+00 -0.00000000000E+00 -0.45593999997E+02  0.45594000000E+02  0.51100000000E-03 0. -1.
         23    2    1    2    0    0  0.00000000000E+00  0.35527136788E-14  0.00000000000E+00  0.91188000000E+02  0.91188000000E+02 0.  0.
    9900012    2    3    3    0    0  0.25305010441E+02 -0.17512118279E+02 -0.20218030191E+02  0.54366992615E+02  0.39999791263E+02 0.  0.
        -12    1    3    3    0    0 -0.25305010441E+02  0.17512118279E+02  0.20218030191E+02  0.36821007385E+02  0.00000000000E+00 0.  1.
         11    1    4    4    0    0  0.13714970117E+02 -0.24921598891E+02 -0.14541459131E+02  0.31947465165E+02  0.51100000000E-03 0. -1.
        -11    1    4    4    0    0  0.11662985587E+02  0.62763690750E+01 -0.10851001045E+02  0.17121981939E+02  0.51100000000E-03 0.  1.
        -12    1    4    4    0    0 -0.72945262399E-01  0.11331115367E+01  0.51744299851E+01  0.52975455105E+01  0.00000000000E+00 0.  1.
</event>
<event>
 8    1  0.2472977E-006  0.9118800E+02  0.7816164E-02  0.1184000E+00
        -11   -1    0    0    0    0  0.00000000000E+00  0.00000000000E+00  0.45593999997E+02  0.45594000000E+02  0.51100000000E-03 0. -1.
         11   -1    0    0    0    0 -0.00000000000E+00 -0.00000000000E+00 -0.45593999997E+02  0.45594000000E+02  0.51100000000E-03 0.  1.
         23    2    1    2    0    0  0.00000000000E+00 -0.17763568394E-14  0.00000000000E+00  0.91188000000E+02  0.91188000000E+02 0.  0.
    9900012    2    3    3    0    0  0.29906992998E+01 -0.93635681777E+01  0.35484637679E+02  0.54367079281E+02  0.39999988838E+02 0.  0.
        -12    1    3    3    0    0 -0.29906992998E+01  0.93635681777E+01 -0.35484637679E+02  0.36820920719E+02  0.00000000000E+00 0.  1.
         11    1    4    4    0    0 -0.13786503771E+02 -0.10918857703E+02  0.17722805179E+02  0.24967718427E+02  0.51100000000E-03 0. -1.
        -11    1    4    4    0    0  0.16288964034E+01  0.68371074170E+01  0.31589011775E+01  0.77057120524E+01  0.51100000000E-03 0.  1.
         12    1    4    4    0    0  0.15148306667E+02 -0.52818178918E+01  0.14602931323E+02  0.21693648803E+02  0.00000000000E+00 0. -1.
</event>
<event>
 8    1  0.2472977E-006  0.9118800E+02  0.7816164E-02  0.1184000E+00
        -11   -1    0    0    0    0  0.00000000000E+00  0.00000000000E+00  0.45593999997E+02  0.45594000000E+02  0.51100000000E-03 0. -1.
         11   -1    0    0    0    0 -0.00000000000E+00 -0.00000000000E+00 -0.45593999997E+02  0.45594000000E+02  0.51100000000E-03 0.  1.
         23    2    1    2    0    0  0.00000000000E+00  0.00000000000E+00  0.00000000000E+00  0.91188000000E+02  0.91188000000E+02 0.  0.
    9900012    2    3    3    0    0 -0.36449782925E+02  0.42849790496E+01  0.29718935755E+01  0.54367083768E+02  0.39999999066E+02 0.  0.
        -12    1    3    3    0    0  0.36449782925E+02 -0.42849790496E+01 -0.29718935755E+01  0.36820916232E+02  0.00000000000E+00 0.  1.
         11    1    4    4    0    0 -0.15255946075E+02 -0.77046464659E+01  0.51744260121E+01  0.17857215702E+02  0.51100000000E-03 0. -1.
        -11    1    4    4    0    0 -0.12403361486E+01  0.69343575753E+01  0.10261230163E+02  0.12446549460E+02  0.51100000000E-03 0.  1.
        -12    1    4    4    0    0 -0.19953500702E+02  0.50552679402E+01 -0.12463762600E+02  0.24063318606E+02  0.00000000000E+00 0.  1.
</event>
<event>
 8    1  0.2472977E-006  0.9118800E+02  0.7816164E-02  0.1184000E+00
        -11   -1    0    0    0    0  0.00000000000E+00  0.00000000000E+00  0.45593999997E+02  0.45594000000E+02  0.51100000000E-03 0. -1.
         11   -1    0    0    0    0 -0.00000000000E+00 -0.00000000000E+00 -0.45593999997E+02  0.45594000000E+02  0.51100000000E-03 0.  1.
         23    2    1    2    0    0 -0.35527136788E-14  0.88817841970E-15  0.00000000000E+00  0.91188000000E+02  0.91188000000E+02 0.  0.
    9900012    2    3    3    0    0  0.30803241678E+02  0.53421977871E+01 -0.19452539801E+02  0.54367080949E+02  0.39999992640E+02 0.  0.
         12    1    3    3    0    0 -0.30803241678E+02 -0.53421977871E+01  0.19452539801E+02  0.36820919051E+02  0.00000000000E+00 0. -1.
         11    1    4    4    0    0 -0.12535245903E+01 -0.98229096312E+00 -0.17242274541E+02  0.17315664903E+02  0.51100000000E-03 0. -1.
        -11    1    4    4    0    0  0.37915465491E+01 -0.50689573050E+01 -0.17708151365E+01  0.65731225382E+01  0.51100000000E-03 0.  1.
         12    1    4    4    0    0  0.28265219719E+02  0.11393446055E+02 -0.43945012369E+00  0.30478293508E+02  0.00000000000E+00 0. -1.
</event>
<event>
 8    1  0.2472977E-006  0.9118800E+02  0.7816164E-02  0.1184000E+00
        -11   -1    0    0    0    0  0.00000000000E+00  0.00000000000E+00  0.45593999997E+02  0.45594000000E+02  0.51100000000E-03 0. -1.
         11   -1    0    0    0    0 -0.00000000000E+00 -0.00000000000E+00 -0.45593999997E+02  0.45594000000E+02  0.51100000000E-03 0.  1.
         23    2    1    2    0    0  0.00000000000E+00  0.35527136788E-14  0.35527136788E-14  0.91188000000E+02  0.91188000000E+02 0.  0.
    9900012    2    3    3    0    0  0.16361480570E+02  0.27344500034E+02  0.18448855103E+02  0.54367082261E+02  0.39999995630E+02 0.  0.
        -12    1    3    3    0    0 -0.16361480570E+02 -0.27344500034E+02 -0.18448855103E+02  0.36820917739E+02  0.00000000000E+00 0.  1.
         11    1    4    4    0    0 -0.60651737422E+01 -0.19417620207E+01  0.20572147817E+01  0.66924513586E+01  0.51100000000E-03 0. -1.
        -11    1    4    4    0    0  0.60434421020E+01  0.88227558336E+01  0.18508054217E+02  0.21375506640E+02  0.51100000000E-03 0.  1.
         12    1    4    4    0    0  0.16383212210E+02  0.20463506221E+02 -0.21164138958E+01  0.26299124262E+02  0.00000000000E+00 0. -1.
</event>
<event>
 8    1  0.2472977E-006  0.9118800E+02  0.7816164E-02  0.1184000E+00
        -11   -1    0    0    0    0  0.00000000000E+00  0.00000000000E+00  0.45593999997E+02  0.45594000000E+02  0.51100000000E-03 0.  1.
         11   -1    0    0    0    0 -0.00000000000E+00 -0.00000000000E+00 -0.45593999997E+02  0.45594000000E+02  0.51100000000E-03 0. -1.
         23    2    1    2    0    0 -0.12073675393E-14  0.00000000000E+00  0.00000000000E+00  0.91188000000E+02  0.91188000000E+02 0.  0.
    9900012    2    3    3    0    0  0.64700623567E-01  0.34534668628E+02 -0.12772343070E+02  0.54367078353E+02  0.39999986722E+02 0.  0.
         12    1    3    3    0    0 -0.64700623567E-01 -0.34534668628E+02  0.12772343070E+02  0.36820921647E+02  0.00000000000E+00 0. -1.
         11    1    4    4    0    0 -0.10599134334E+02  0.77276185877E+01 -0.18404986282E+02  0.22600912768E+02  0.51100000000E-03 0. -1.
        -11    1    4    4    0    0  0.61089173540E+01  0.25081497310E+02  0.24126490418E+01  0.25927229975E+02  0.51100000000E-03 0.  1.
         12    1    4    4    0    0  0.45549176032E+01  0.17255527307E+01  0.32199941698E+01  0.58389356095E+01  0.00000000000E+00 0. -1.
</event>
<event>
 8    1  0.2472977E-006  0.9118800E+02  0.7816164E-02  0.1184000E+00
        -11   -1    0    0    0    0  0.00000000000E+00  0.00000000000E+00  0.45593999997E+02  0.45594000000E+02  0.51100000000E-03 0.  1.
         11   -1    0    0    0    0 -0.00000000000E+00 -0.00000000000E+00 -0.45593999997E+02  0.45594000000E+02  0.51100000000E-03 0. -1.
         23    2    1    2    0    0 -0.71054273576E-14  0.00000000000E+00  0.00000000000E+00  0.91188000000E+02  0.91188000000E+02 0.  0.
    9900012    2    3    3    0    0 -0.29630137958E+02 -0.17969890130E+02 -0.12446630444E+02  0.54367073394E+02  0.39999975417E+02 0.  0.
        -12    1    3    3    0    0  0.29630137958E+02  0.17969890130E+02  0.12446630444E+02  0.36820926606E+02  0.00000000000E+00 0.  1.
         11    1    4    4    0    0 -0.19376073888E+02 -0.34699416000E+01 -0.17794722374E+02  0.26535351489E+02  0.51100000000E-03 0. -1.
        -11    1    4    4    0    0 -0.13001529487E+02 -0.48472104961E+01 -0.36551524325E+01  0.14349054260E+02  0.51100000000E-03 0.  1.
        -12    1    4    4    0    0  0.27474654171E+01 -0.96527380335E+01  0.90032443628E+01  0.13482667645E+02  0.00000000000E+00 0.  1.
</event>
<event>
 8    1  0.2472977E-006  0.9118800E+02  0.7816164E-02  0.1184000E+00
        -11   -1    0    0    0    0  0.00000000000E+00  0.00000000000E+00  0.45593999997E+02  0.45594000000E+02  0.51100000000E-03 0. -1.
         11   -1    0    0    0    0 -0.00000000000E+00 -0.00000000000E+00 -0.45593999997E+02  0.45594000000E+02  0.51100000000E-03 0.  1.
         23    2    1    2    0    0 -0.35527136788E-14  0.00000000000E+00  0.00000000000E+00  0.91188000000E+02  0.91188000000E+02 0.  0.
    9900012    2    3    3    0    0 -0.31145261955E+02 -0.18673901363E+02 -0.60856214782E+01  0.54367126529E+02  0.40000096549E+02 0.  0.
         12    1    3    3    0    0  0.31145261955E+02  0.18673901363E+02  0.60856214782E+01  0.36820873471E+02  0.00000000000E+00 0. -1.
         11    1    4    4    0    0 -0.20578035451E+02 -0.44592508454E+01 -0.16831149161E+01  0.21122815560E+02  0.51100000000E-03 0. -1.
        -11    1    4    4    0    0  0.23691507125E+01 -0.13937134985E+02  0.71999279969E+01  0.15864916329E+02  0.51100000000E-03 0.  1.
        -12    1    4    4    0    0 -0.12936377217E+02 -0.27751553274E+00 -0.11602434559E+02  0.17379394640E+02  0.00000000000E+00 0.  1.
</event>
<event>
 8    1  0.2472977E-006  0.9118800E+02  0.7816164E-02  0.1184000E+00
        -11   -1    0    0    0    0  0.00000000000E+00  0.00000000000E+00  0.45593999997E+02  0.45594000000E+02  0.51100000000E-03 0.  1.
         11   -1    0    0    0    0 -0.00000000000E+00 -0.00000000000E+00 -0.45593999997E+02  0.45594000000E+02  0.51100000000E-03 0. -1.
         23    2    1    2    0    0  0.00000000000E+00 -0.88817841970E-15  0.00000000000E+00  0.91188000000E+02  0.91188000000E+02 0.  0.
    9900012    2    3    3    0    0  0.14988115275E+02 -0.47381725165E+01  0.33296965942E+02  0.54367057328E+02  0.39999938790E+02 0.  0.
         12    1    3    3    0    0 -0.14988115275E+02  0.47381725165E+01 -0.33296965942E+02  0.36820942672E+02  0.00000000000E+00 0. -1.
         11    1    4    4    0    0  0.34394598330E+01 -0.12835113389E+02  0.16355387048E+02  0.21072937750E+02  0.51100000000E-03 0. -1.
        -11    1    4    4    0    0 -0.72581163168E+01  0.59721896404E+01  0.80842287406E+01  0.12397663335E+02  0.51100000000E-03 0.  1.
        -12    1    4    4    0    0  0.18806771759E+02  0.21247512323E+01  0.88573501536E+01  0.20896456243E+02  0.00000000000E+00 0.  1.
</event>
<event>
 8    1  0.2472977E-006  0.9118800E+02  0.7816164E-02  0.1184000E+00
        -11   -1    0    0    0    0  0.00000000000E+00  0.00000000000E+00  0.45593999997E+02  0.45594000000E+02  0.51100000000E-03 0. -1.
         11   -1    0    0    0    0 -0.00000000000E+00 -0.00000000000E+00 -0.45593999997E+02  0.45594000000E+02  0.51100000000E-03 0.  1.
         23    2    1    2    0    0 -0.13322676296E-14  0.71054273576E-14 -0.17763568394E-14  0.91188000000E+02  0.91188000000E+02 0.  0.
    9900012    2    3    3    0    0 -0.33531288870E+01  0.33138057200E+02 -0.15697313154E+02  0.54367082730E+02  0.39999996700E+02 0.  0.
         12    1    3    3    0    0  0.33531288870E+01 -0.33138057200E+02  0.15697313154E+02  0.36820917270E+02  0.00000000000E+00 0. -1.
         11    1    4    4    0    0  0.27191863255E+00 -0.94186828668E+00 -0.54323425537E+01  0.55200907143E+01  0.51100000000E-03 0. -1.
        -11    1    4    4    0    0  0.44376036808E+01 -0.47836647769E+01 -0.61097715474E+01  0.89389643555E+01  0.51100000000E-03 0.  1.
        -12    1    4    4    0    0 -0.80626512004E+01  0.38863590264E+02 -0.41551990526E+01  0.39908027660E+02  0.00000000000E+00 0.  1.
</event>
<event>
 8    1  0.2472977E-006  0.9118800E+02  0.7816164E-02  0.1184000E+00
        -11   -1    0    0    0    0  0.00000000000E+00  0.00000000000E+00  0.45593999997E+02  0.45594000000E+02  0.51100000000E-03 0. -1.
         11   -1    0    0    0    0 -0.00000000000E+00 -0.00000000000E+00 -0.45593999997E+02  0.45594000000E+02  0.51100000000E-03 0.  1.
         23    2    1    2    0    0 -0.71054273576E-14 -0.66613381478E-15  0.55511151231E-16  0.91188000000E+02  0.91188000000E+02 0.  0.
    9900012    2    3    3    0    0 -0.36816761285E+02  0.42407987830E+00  0.35506097572E+00  0.54367084428E+02  0.40000000571E+02 0.  0.
         12    1    3    3    0    0  0.36816761285E+02 -0.42407987830E+00 -0.35506097572E+00  0.36820915572E+02  0.00000000000E+00 0. -1.
         11    1    4    4    0    0 -0.26691167333E+01 -0.52993605538E+01  0.96046199716E+01  0.11289647093E+02  0.51100000000E-03 0. -1.
        -11    1    4    4    0    0 -0.13610170027E+01  0.66061993754E+01  0.38423132443E+01  0.77625774584E+01  0.51100000000E-03 0.  1.
        -12    1    4    4    0    0 -0.32786627549E+02 -0.88275894326E+00 -0.13091872240E+02  0.35314859877E+02  0.00000000000E+00 0.  1.
</event>
<event>
 8    1  0.2472977E-006  0.9118800E+02  0.7816164E-02  0.1184000E+00
        -11   -1    0    0    0    0  0.00000000000E+00  0.00000000000E+00  0.45593999997E+02  0.45594000000E+02  0.51100000000E-03 0. -1.
         11   -1    0    0    0    0 -0.00000000000E+00 -0.00000000000E+00 -0.45593999997E+02  0.45594000000E+02  0.51100000000E-03 0.  1.
         23    2    1    2    0    0  0.00000000000E+00  0.17763568394E-14 -0.35527136788E-14  0.91188000000E+02  0.91188000000E+02 0.  0.
    9900012    2    3    3    0    0  0.23665523619E+02 -0.12235874175E+02  0.25416425334E+02  0.54367240886E+02  0.40000357246E+02 0.  0.
        -12    1    3    3    0    0 -0.23665523619E+02  0.12235874175E+02 -0.25416425334E+02  0.36820759114E+02  0.00000000000E+00 0.  1.
         11    1    4    4    0    0  0.30475731974E+02 -0.49901775882E+01  0.13452445215E+02  0.33684423614E+02  0.51100000000E-03 0. -1.
        -11    1    4    4    0    0 -0.89927375967E+00  0.32804832474E+01 -0.37295114822E+00  0.34218936938E+01  0.51100000000E-03 0.  1.
         12    1    4    4    0    0 -0.59109345948E+01 -0.10526179834E+02  0.12336931267E+02  0.17260923578E+02  0.00000000000E+00 0. -1.
</event>
<event>
 8    1  0.2472977E-006  0.9118800E+02  0.7816164E-02  0.1184000E+00
        -11   -1    0    0    0    0  0.00000000000E+00  0.00000000000E+00  0.45593999997E+02  0.45594000000E+02  0.51100000000E-03 0. -1.
         11   -1    0    0    0    0 -0.00000000000E+00 -0.00000000000E+00 -0.45593999997E+02  0.45594000000E+02  0.51100000000E-03 0.  1.
         23    2    1    2    0    0 -0.35527136788E-14  0.00000000000E+00 -0.17763568394E-14  0.91188000000E+02  0.91188000000E+02 0.  0.
    9900012    2    3    3    0    0 -0.29130241922E+02 -0.19427822060E+02  0.11391606533E+02  0.54367082523E+02  0.39999996229E+02 0.  0.
        -12    1    3    3    0    0  0.29130241922E+02  0.19427822060E+02 -0.11391606533E+02  0.36820917477E+02  0.00000000000E+00 0.  1.
         11    1    4    4    0    0 -0.82402632068E+01  0.94136924830E+00 -0.36450792314E+01  0.90595097352E+01  0.51100000000E-03 0. -1.
        -11    1    4    4    0    0  0.50541356169E+01 -0.45355970863E+01  0.13216476274E+02  0.14859043480E+02  0.51100000000E-03 0.  1.
         12    1    4    4    0    0 -0.25944114332E+02 -0.15833594222E+02  0.18202094901E+01  0.30448529308E+02  0.00000000000E+00 0. -1.
</event>
<event>
 8    1  0.2472977E-006  0.9118800E+02  0.7816164E-02  0.1184000E+00
        -11   -1    0    0    0    0  0.00000000000E+00  0.00000000000E+00  0.45593999997E+02  0.45594000000E+02  0.51100000000E-03 0.  1.
         11   -1    0    0    0    0 -0.00000000000E+00 -0.00000000000E+00 -0.45593999997E+02  0.45594000000E+02  0.51100000000E-03 0. -1.
         23    2    1    2    0    0  0.00000000000E+00  0.00000000000E+00  0.88817841970E-15  0.91188000000E+02  0.91188000000E+02 0.  0.
    9900012    2    3    3    0    0 -0.35675459293E+02 -0.68666683462E+01 -0.59908532947E+01  0.54367084026E+02  0.39999999654E+02 0.  0.
        -12    1    3    3    0    0  0.35675459293E+02  0.68666683462E+01  0.59908532947E+01  0.36820915974E+02  0.00000000000E+00 0.  1.
         11    1    4    4    0    0 -0.13754383208E+02 -0.21106564540E+01 -0.10428387031E+02  0.17389341116E+02  0.51100000000E-03 0. -1.
        -11    1    4    4    0    0 -0.10569989426E+02 -0.14790678649E+02 -0.53383487503E+01  0.18946947486E+02  0.51100000000E-03 0.  1.
         12    1    4    4    0    0 -0.11351086659E+02  0.10034666757E+02  0.97758824866E+01  0.18030795425E+02  0.00000000000E+00 0. -1.
</event>
<event>
 8    1  0.2472977E-006  0.9118800E+02  0.7816164E-02  0.1184000E+00
        -11   -1    0    0    0    0  0.00000000000E+00  0.00000000000E+00  0.45593999997E+02  0.45594000000E+02  0.51100000000E-03 0. -1.
         11   -1    0    0    0    0 -0.00000000000E+00 -0.00000000000E+00 -0.45593999997E+02  0.45594000000E+02  0.51100000000E-03 0.  1.
         23    2    1    2    0    0  0.17763568394E-14  0.00000000000E+00  0.00000000000E+00  0.91188000000E+02  0.91188000000E+02 0.  0.
    9900012    2    3    3    0    0 -0.87720470983E+01 -0.18363972088E+02  0.30685519753E+02  0.54367008655E+02  0.39999827830E+02 0.  0.
        -12    1    3    3    0    0  0.87720470983E+01  0.18363972088E+02 -0.30685519753E+02  0.36820991345E+02  0.00000000000E+00 0.  1.
         11    1    4    4    0    0  0.18386653925E+01 -0.22935133419E+00  0.15000197433E+02  0.15114205759E+02  0.51100000000E-03 0. -1.
        -11    1    4    4    0    0 -0.20521683727E+01 -0.18275515263E+02  0.21957160434E+02  0.28641276992E+02  0.51100000000E-03 0.  1.
        -12    1    4    4    0    0 -0.85585441181E+01  0.14089450920E+00 -0.62718381132E+01  0.10611525904E+02  0.00000000000E+00 0.  1.
</event>
<event>
 8    1  0.2472977E-006  0.9118800E+02  0.7816164E-02  0.1184000E+00
        -11   -1    0    0    0    0  0.00000000000E+00  0.00000000000E+00  0.45593999997E+02  0.45594000000E+02  0.51100000000E-03 0.  1.
         11   -1    0    0    0    0 -0.00000000000E+00 -0.00000000000E+00 -0.45593999997E+02  0.45594000000E+02  0.51100000000E-03 0. -1.
         23    2    1    2    0    0  0.00000000000E+00  0.35527136788E-14 -0.35527136788E-14  0.91188000000E+02  0.91188000000E+02 0.  0.
    9900012    2    3    3    0    0 -0.95879360818E+01 -0.24635135304E+02  0.25631264583E+02  0.54367080214E+02  0.39999990964E+02 0.  0.
         12    1    3    3    0    0  0.95879360818E+01  0.24635135304E+02 -0.25631264583E+02  0.36820919786E+02  0.00000000000E+00 0. -1.
         11    1    4    4    0    0  0.81548808899E+01 -0.20592858071E+02  0.10877639930E+02  0.24675715523E+02  0.51100000000E-03 0. -1.
        -11    1    4    4    0    0 -0.50836438705E+01 -0.35021179674E+01  0.15814192164E+02  0.16976364137E+02  0.51100000000E-03 0.  1.
         12    1    4    4    0    0 -0.12659173101E+02 -0.54015926504E+00 -0.10605675107E+01  0.12715000554E+02  0.00000000000E+00 0. -1.
</event>
<event>
 8    1  0.2472977E-006  0.9118800E+02  0.7816164E-02  0.1184000E+00
        -11   -1    0    0    0    0  0.00000000000E+00  0.00000000000E+00  0.45593999997E+02  0.45594000000E+02  0.51100000000E-03 0. -1.
         11   -1    0    0    0    0 -0.00000000000E+00 -0.00000000000E+00 -0.45593999997E+02  0.45594000000E+02  0.51100000000E-03 0.  1.
         23    2    1    2    0    0  0.00000000000E+00 -0.43454823073E-15  0.00000000000E+00  0.91188000000E+02  0.91188000000E+02 0.  0.
    9900012    2    3    3    0    0 -0.10782175806E+02 -0.65361650144E-02 -0.35206873407E+02  0.54367091634E+02  0.40000016998E+02 0.  0.
         12    1    3    3    0    0  0.10782175806E+02  0.65361650144E-02  0.35206873407E+02  0.36820908366E+02  0.00000000000E+00 0. -1.
         11    1    4    4    0    0 -0.20805211104E+01  0.14623775524E+01 -0.50905622618E+00  0.25935024000E+01  0.51100000000E-03 0. -1.
        -11    1    4    4    0    0 -0.18649076210E+02 -0.64812703333E+01 -0.35484238095E+02  0.40606970610E+02  0.51100000000E-03 0.  1.
        -12    1    4    4    0    0  0.99474215147E+01  0.50123566159E+01  0.78642091497E+00  0.11166618624E+02  0.00000000000E+00 0.  1.
</event>
<event>
 8    1  0.2472977E-006  0.9118800E+02  0.7816164E-02  0.1184000E+00
        -11   -1    0    0    0    0  0.00000000000E+00  0.00000000000E+00  0.45593999997E+02  0.45594000000E+02  0.51100000000E-03 0.  1.
         11   -1    0    0    0    0 -0.00000000000E+00 -0.00000000000E+00 -0.45593999997E+02  0.45594000000E+02  0.51100000000E-03 0. -1.
         23    2    1    2    0    0  0.00000000000E+00 -0.88817841970E-15  0.00000000000E+00  0.91188000000E+02  0.91188000000E+02 0.  0.
    9900012    2    3    3    0    0 -0.12598199452E+02 -0.32773645806E+01  0.34443061617E+02  0.54367078751E+02  0.39999987629E+02 0.  0.
         12    1    3    3    0    0  0.12598199452E+02  0.32773645806E+01 -0.34443061617E+02  0.36820921249E+02  0.00000000000E+00 0. -1.
         11    1    4    4    0    0 -0.22365744337E+01  0.42418715246E+01  0.41014977538E+01  0.63101524002E+01  0.51100000000E-03 0. -1.
        -11    1    4    4    0    0 -0.12386062043E+02  0.33196917586E+01 -0.28033359204E+01  0.13126064865E+02  0.51100000000E-03 0.  1.
        -12    1    4    4    0    0  0.20244370238E+01 -0.10838927864E+02  0.33144899784E+02  0.34930861486E+02  0.00000000000E+00 0.  1.
</event>
<event>
 8    1  0.2472977E-006  0.9118800E+02  0.7816164E-02  0.1184000E+00
        -11   -1    0    0    0    0  0.00000000000E+00  0.00000000000E+00  0.45593999997E+02  0.45594000000E+02  0.51100000000E-03 0.  1.
         11   -1    0    0    0    0 -0.00000000000E+00 -0.00000000000E+00 -0.45593999997E+02  0.45594000000E+02  0.51100000000E-03 0. -1.
         23    2    1    2    0    0  0.00000000000E+00  0.71054273576E-14  0.00000000000E+00  0.91188000000E+02  0.91188000000E+02 0.  0.
    9900012    2    3    3    0    0  0.13151386169E+02 -0.29202364298E+02  0.18167063295E+02  0.54367092522E+02  0.40000019023E+02 0.  0.
         12    1    3    3    0    0 -0.13151386169E+02  0.29202364298E+02 -0.18167063295E+02  0.36820907478E+02  0.00000000000E+00 0. -1.
         11    1    4    4    0    0  0.49861241917E+01 -0.69733041157E+00  0.21597451122E+02  0.22176510081E+02  0.51100000000E-03 0. -1.
        -11    1    4    4    0    0  0.45724759315E+01 -0.12399174359E+02  0.43954644061E+01  0.13927209646E+02  0.51100000000E-03 0.  1.
         12    1    4    4    0    0  0.35927860459E+01 -0.16105859527E+02 -0.78258522328E+01  0.18263372795E+02  0.00000000000E+00 0. -1.
</event>
<event>
 8    1  0.2472977E-006  0.9118800E+02  0.7816164E-02  0.1184000E+00
        -11   -1    0    0    0    0  0.00000000000E+00  0.00000000000E+00  0.45593999997E+02  0.45594000000E+02  0.51100000000E-03 0. -1.
         11   -1    0    0    0    0 -0.00000000000E+00 -0.00000000000E+00 -0.45593999997E+02  0.45594000000E+02  0.51100000000E-03 0.  1.
         23    2    1    2    0    0  0.00000000000E+00  0.00000000000E+00  0.00000000000E+00  0.91188000000E+02  0.91188000000E+02 0.  0.
    9900012    2    3    3    0    0  0.23681468726E+02  0.13699293563E+02  0.24643416325E+02  0.54367074247E+02  0.39999977360E+02 0.  0.
        -12    1    3    3    0    0 -0.23681468726E+02 -0.13699293563E+02 -0.24643416325E+02  0.36820925753E+02  0.00000000000E+00 0.  1.
         11    1    4    4    0    0  0.10226016629E+02  0.10454655917E+02  0.19763929062E+02  0.24586259144E+02  0.51100000000E-03 0. -1.
        -11    1    4    4    0    0  0.97417365444E+01 -0.10918681473E+02  0.11905402199E+01  0.14681158751E+02  0.51100000000E-03 0.  1.
        -12    1    4    4    0    0  0.37137155529E+01  0.14163319118E+02  0.36889470432E+01  0.15099656352E+02  0.00000000000E+00 0.  1.
</event>
<event>
 8    1  0.2472977E-006  0.9118800E+02  0.7816164E-02  0.1184000E+00
        -11   -1    0    0    0    0  0.00000000000E+00  0.00000000000E+00  0.45593999997E+02  0.45594000000E+02  0.51100000000E-03 0.  1.
         11   -1    0    0    0    0 -0.00000000000E+00 -0.00000000000E+00 -0.45593999997E+02  0.45594000000E+02  0.51100000000E-03 0. -1.
         23    2    1    2    0    0  0.22204460493E-15  0.00000000000E+00  0.00000000000E+00  0.91188000000E+02  0.91188000000E+02 0.  0.
    9900012    2    3    3    0    0 -0.70277805046E+00 -0.13104458220E+02  0.34402897183E+02  0.54367081260E+02  0.39999993349E+02 0.  0.
         12    1    3    3    0    0  0.70277805046E+00  0.13104458220E+02 -0.34402897183E+02  0.36820918740E+02  0.00000000000E+00 0. -1.
         11    1    4    4    0    0  0.52125879431E+01 -0.12892999771E+02  0.46226121140E+01  0.14655001166E+02  0.51100000000E-03 0. -1.
        -11    1    4    4    0    0  0.24997383902E+01  0.10680272767E+02  0.20056148338E+02  0.22859702641E+02  0.51100000000E-03 0.  1.
         12    1    4    4    0    0 -0.84151043837E+01 -0.10891731216E+02  0.97241367316E+01  0.16852377454E+02  0.00000000000E+00 0. -1.
</event>
<event>
 8    1  0.2472977E-006  0.9118800E+02  0.7816164E-02  0.1184000E+00
        -11   -1    0    0    0    0  0.00000000000E+00  0.00000000000E+00  0.45593999997E+02  0.45594000000E+02  0.51100000000E-03 0.  1.
         11   -1    0    0    0    0 -0.00000000000E+00 -0.00000000000E+00 -0.45593999997E+02  0.45594000000E+02  0.51100000000E-03 0. -1.
         23    2    1    2    0    0  0.00000000000E+00  0.00000000000E+00  0.00000000000E+00  0.91188000000E+02  0.91188000000E+02 0.  0.
    9900012    2    3    3    0    0  0.29259525719E+02 -0.90027160287E+01 -0.20459999730E+02  0.54367077549E+02  0.39999984889E+02 0.  0.
        -12    1    3    3    0    0 -0.29259525719E+02  0.90027160287E+01  0.20459999730E+02  0.36820922451E+02  0.00000000000E+00 0.  1.
         11    1    4    4    0    0  0.59542405773E+01  0.59946757384E+00 -0.11624447721E+02  0.13074407340E+02  0.51100000000E-03 0. -1.
        -11    1    4    4    0    0  0.18364201212E+02 -0.18061310635E+02 -0.14913864382E+02  0.29763705735E+02  0.51100000000E-03 0.  1.
        -12    1    4    4    0    0  0.49410839299E+01  0.84591270325E+01  0.60783123724E+01  0.11528964474E+02  0.00000000000E+00 0.  1.
</event>
<event>
 8    1  0.2472977E-006  0.9118800E+02  0.7816164E-02  0.1184000E+00
        -11   -1    0    0    0    0  0.00000000000E+00  0.00000000000E+00  0.45593999997E+02  0.45594000000E+02  0.51100000000E-03 0. -1.
         11   -1    0    0    0    0 -0.00000000000E+00 -0.00000000000E+00 -0.45593999997E+02  0.45594000000E+02  0.51100000000E-03 0.  1.
         23    2    1    2    0    0  0.00000000000E+00  0.35527136788E-14 -0.71054273576E-14  0.91188000000E+02  0.91188000000E+02 0.  0.
    9900012    2    3    3    0    0  0.81051669216E+01 -0.13131510160E+02 -0.33431248362E+02  0.54367100270E+02  0.40000036685E+02 0.  0.
         12    1    3    3    0    0 -0.81051669216E+01  0.13131510160E+02  0.33431248362E+02  0.36820899730E+02  0.00000000000E+00 0. -1.
         11    1    4    4    0    0 -0.12797673120E+01  0.68236055985E+01  0.28718919827E+01  0.75131326062E+01  0.51100000000E-03 0. -1.
        -11    1    4    4    0    0 -0.13093238926E+01  0.27789498614E+01 -0.10080747070E+02  0.10538422706E+02  0.51100000000E-03 0.  1.
        -12    1    4    4    0    0  0.10694258126E+02 -0.22734065620E+02 -0.26222393275E+02  0.36315544957E+02  0.00000000000E+00 0.  1.
</event>
<event>
 8    1  0.2472977E-006  0.9118800E+02  0.7816164E-02  0.1184000E+00
        -11   -1    0    0    0    0  0.00000000000E+00  0.00000000000E+00  0.45593999997E+02  0.45594000000E+02  0.51100000000E-03 0.  1.
         11   -1    0    0    0    0 -0.00000000000E+00 -0.00000000000E+00 -0.45593999997E+02  0.45594000000E+02  0.51100000000E-03 0. -1.
         23    2    1    2    0    0  0.88817841970E-15 -0.17763568394E-14  0.00000000000E+00  0.91188000000E+02  0.91188000000E+02 0.  0.
    9900012    2    3    3    0    0  0.42836205102E+01 -0.11590985103E+02 -0.34685436361E+02  0.54367084260E+02  0.40000000188E+02 0.  0.
        -12    1    3    3    0    0 -0.42836205102E+01  0.11590985103E+02  0.34685436361E+02  0.36820915740E+02  0.00000000000E+00 0.  1.
         11    1    4    4    0    0 -0.41990173482E+01 -0.16253563962E+02 -0.18529999266E+02  0.25003418990E+02  0.51100000000E-03 0. -1.
        -11    1    4    4    0    0 -0.75197126592E+01  0.36730979692E+00 -0.26284309927E+01  0.79743115507E+01  0.51100000000E-03 0.  1.
         12    1    4    4    0    0  0.16002350518E+02  0.42952690620E+01 -0.13527006103E+02  0.21389353719E+02  0.00000000000E+00 0. -1.
</event>
<event>
 8    1  0.2472977E-006  0.9118800E+02  0.7816164E-02  0.1184000E+00
        -11   -1    0    0    0    0  0.00000000000E+00  0.00000000000E+00  0.45593999997E+02  0.45594000000E+02  0.51100000000E-03 0.  1.
         11   -1    0    0    0    0 -0.00000000000E+00 -0.00000000000E+00 -0.45593999997E+02  0.45594000000E+02  0.51100000000E-03 0. -1.
         23    2    1    2    0    0  0.00000000000E+00  0.00000000000E+00  0.11102230246E-15  0.91188000000E+02  0.91188000000E+02 0.  0.
    9900012    2    3    3    0    0 -0.29281403644E+02 -0.22309685130E+02  0.81096190488E+00  0.54367077834E+02  0.39999985537E+02 0.  0.
         12    1    3    3    0    0  0.29281403644E+02  0.22309685130E+02 -0.81096190488E+00  0.36820922166E+02  0.00000000000E+00 0. -1.
         11    1    4    4    0    0  0.68299010654E+01 -0.73382997070E+01 -0.33756391711E+01  0.10577954964E+02  0.51100000000E-03 0. -1.
        -11    1    4    4    0    0 -0.12748209125E+02 -0.13399857649E+02  0.78430657220E+01  0.20089467417E+02  0.51100000000E-03 0.  1.
        -12    1    4    4    0    0 -0.23363095585E+02 -0.15715277734E+01 -0.36564646460E+01  0.23699655452E+02  0.00000000000E+00 0.  1.
</event>
<event>
 8    1  0.2472977E-006  0.9118800E+02  0.7816164E-02  0.1184000E+00
        -11   -1    0    0    0    0  0.00000000000E+00  0.00000000000E+00  0.45593999997E+02  0.45594000000E+02  0.51100000000E-03 0. -1.
         11   -1    0    0    0    0 -0.00000000000E+00 -0.00000000000E+00 -0.45593999997E+02  0.45594000000E+02  0.51100000000E-03 0.  1.
         23    2    1    2    0    0 -0.24424906542E-14  0.00000000000E+00  0.35527136788E-14  0.91188000000E+02  0.91188000000E+02 0.  0.
    9900012    2    3    3    0    0 -0.12134245674E+01 -0.24656905170E+02 -0.27319302691E+02  0.54367086496E+02  0.40000005284E+02 0.  0.
         12    1    3    3    0    0  0.12134245674E+01  0.24656905170E+02  0.27319302691E+02  0.36820913504E+02  0.00000000000E+00 0. -1.
         11    1    4    4    0    0  0.10255198865E+02 -0.16119355901E+01 -0.20565362307E+01  0.10582853190E+02  0.51100000000E-03 0. -1.
        -11    1    4    4    0    0 -0.18276978179E+02 -0.13875747545E+02 -0.10816375555E+02  0.25368844706E+02  0.51100000000E-03 0.  1.
        -12    1    4    4    0    0  0.68083547472E+01 -0.91692220349E+01 -0.14446390905E+02  0.18415388600E+02  0.00000000000E+00 0.  1.
</event>
<event>
 8    1  0.2472977E-006  0.9118800E+02  0.7816164E-02  0.1184000E+00
        -11   -1    0    0    0    0  0.00000000000E+00  0.00000000000E+00  0.45593999997E+02  0.45594000000E+02  0.51100000000E-03 0. -1.
         11   -1    0    0    0    0 -0.00000000000E+00 -0.00000000000E+00 -0.45593999997E+02  0.45594000000E+02  0.51100000000E-03 0.  1.
         23    2    1    2    0    0  0.00000000000E+00  0.35527136788E-14  0.00000000000E+00  0.91188000000E+02  0.91188000000E+02 0.  0.
    9900012    2    3    3    0    0  0.29326493363E+02  0.20128184234E+02 -0.95179921742E+01  0.54367093051E+02  0.40000020229E+02 0.  0.
         12    1    3    3    0    0 -0.29326493363E+02 -0.20128184234E+02  0.95179921742E+01  0.36820906949E+02  0.00000000000E+00 0. -1.
         11    1    4    4    0    0  0.36461507640E+02  0.17450785276E+02 -0.17973513877E+01  0.40462351864E+02  0.51100000000E-03 0. -1.
        -11    1    4    4    0    0 -0.71428350996E+01  0.28037900055E+01 -0.94486883536E+01  0.12172059954E+02  0.51100000000E-03 0.  1.
         12    1    4    4    0    0  0.78208227868E-02 -0.12639104712E+00  0.17280475672E+01  0.17326812333E+01  0.00000000000E+00 0. -1.
</event>
<event>
 8    1  0.2472977E-006  0.9118800E+02  0.7816164E-02  0.1184000E+00
        -11   -1    0    0    0    0  0.00000000000E+00  0.00000000000E+00  0.45593999997E+02  0.45594000000E+02  0.51100000000E-03 0. -1.
         11   -1    0    0    0    0 -0.00000000000E+00 -0.00000000000E+00 -0.45593999997E+02  0.45594000000E+02  0.51100000000E-03 0.  1.
         23    2    1    2    0    0  0.00000000000E+00  0.00000000000E+00 -0.35527136788E-14  0.91188000000E+02  0.91188000000E+02 0.  0.
    9900012    2    3    3    0    0 -0.21596153246E+02 -0.91124222298E+01  0.28396303083E+02  0.54367080637E+02  0.39999991929E+02 0.  0.
        -12    1    3    3    0    0  0.21596153246E+02  0.91124222298E+01 -0.28396303083E+02  0.36820919363E+02  0.00000000000E+00 0.  1.
         11    1    4    4    0    0 -0.49303892596E+01 -0.17376662322E+02  0.49075481627E+01  0.18717402622E+02  0.51100000000E-03 0. -1.
        -11    1    4    4    0    0 -0.19649506730E+01 -0.53537299816E+01  0.14944825235E+01  0.58955011777E+01  0.51100000000E-03 0.  1.
         12    1    4    4    0    0 -0.14700813314E+02  0.13617970073E+02  0.21994272397E+02  0.29754176837E+02  0.00000000000E+00 0. -1.
</event>
<event>
 8    1  0.2472977E-006  0.9118800E+02  0.7816164E-02  0.1184000E+00
        -11   -1    0    0    0    0  0.00000000000E+00  0.00000000000E+00  0.45593999997E+02  0.45594000000E+02  0.51100000000E-03 0.  1.
         11   -1    0    0    0    0 -0.00000000000E+00 -0.00000000000E+00 -0.45593999997E+02  0.45594000000E+02  0.51100000000E-03 0. -1.
         23    2    1    2    0    0  0.00000000000E+00  0.00000000000E+00  0.00000000000E+00  0.91188000000E+02  0.91188000000E+02 0.  0.
    9900012    2    3    3    0    0 -0.27549270362E+02 -0.20506791578E+02 -0.13277317999E+02  0.54367109577E+02  0.40000057903E+02 0.  0.
        -12    1    3    3    0    0  0.27549270362E+02  0.20506791578E+02  0.13277317999E+02  0.36820890423E+02  0.00000000000E+00 0.  1.
         11    1    4    4    0    0 -0.14937169685E+02 -0.31547437532E+01 -0.25414143489E+02  0.29647093211E+02  0.51100000000E-03 0. -1.
        -11    1    4    4    0    0 -0.23733291703E+01 -0.29402740278E+01  0.13615231595E+01  0.40164223239E+01  0.51100000000E-03 0.  1.
         12    1    4    4    0    0 -0.10238771507E+02 -0.14411773797E+02  0.10775302330E+02  0.20703594042E+02  0.00000000000E+00 0. -1.
</event>
<event>
 8    1  0.2472977E-006  0.9118800E+02  0.7816164E-02  0.1184000E+00
        -11   -1    0    0    0    0  0.00000000000E+00  0.00000000000E+00  0.45593999997E+02  0.45594000000E+02  0.51100000000E-03 0. -1.
         11   -1    0    0    0    0 -0.00000000000E+00 -0.00000000000E+00 -0.45593999997E+02  0.45594000000E+02  0.51100000000E-03 0.  1.
         23    2    1    2    0    0  0.00000000000E+00  0.00000000000E+00  0.17763568394E-14  0.91188000000E+02  0.91188000000E+02 0.  0.
    9900012    2    3    3    0    0 -0.13886318094E+02  0.34008588296E+02  0.25230608678E+01  0.54367085505E+02  0.40000003026E+02 0.  0.
        -12    1    3    3    0    0  0.13886318094E+02 -0.34008588296E+02 -0.25230608678E+01  0.36820914495E+02  0.00000000000E+00 0.  1.
         11    1    4    4    0    0 -0.49822939220E+01  0.14472422745E+02 -0.13436837859E+02  0.20367201201E+02  0.51100000000E-03 0.  1.
        -11    1    4    4    0    0 -0.94100256212E+01  0.23861749454E+02  0.14028122396E+02  0.29235592818E+02  0.51100000000E-03 0. -1.
        -12    1    4    4    0    0  0.50600144932E+00 -0.43255839035E+01  0.19317763312E+01  0.47642914864E+01  0.00000000000E+00 0.  1.
</event>
<event>
 8    1  0.2472977E-006  0.9118800E+02  0.7816164E-02  0.1184000E+00
        -11   -1    0    0    0    0  0.00000000000E+00  0.00000000000E+00  0.45593999997E+02  0.45594000000E+02  0.51100000000E-03 0.  1.
         11   -1    0    0    0    0 -0.00000000000E+00 -0.00000000000E+00 -0.45593999997E+02  0.45594000000E+02  0.51100000000E-03 0. -1.
         23    2    1    2    0    0  0.35527136788E-14  0.35527136788E-14 -0.17763568394E-14  0.91188000000E+02  0.91188000000E+02 0.  0.
    9900012    2    3    3    0    0  0.30673409246E+02  0.17029760334E+02 -0.11176269373E+02  0.54367085170E+02  0.40000002262E+02 0.  0.
        -12    1    3    3    0    0 -0.30673409246E+02 -0.17029760334E+02  0.11176269373E+02  0.36820914830E+02  0.00000000000E+00 0.  1.
         11    1    4    4    0    0  0.12039621203E+02  0.27257682407E+02 -0.81083016557E+01  0.30881682029E+02  0.51100000000E-03 0. -1.
        -11    1    4    4    0    0  0.85690345879E+01 -0.98603743007E+01 -0.41372785946E+00  0.13070061443E+02  0.51100000000E-03 0.  1.
         12    1    4    4    0    0  0.10064753455E+02 -0.36754777205E+00 -0.26542398575E+01  0.10415341699E+02  0.00000000000E+00 0. -1.
</event>
<event>
 8    1  0.2472977E-006  0.9118800E+02  0.7816164E-02  0.1184000E+00
        -11   -1    0    0    0    0  0.00000000000E+00  0.00000000000E+00  0.45593999997E+02  0.45594000000E+02  0.51100000000E-03 0.  1.
         11   -1    0    0    0    0 -0.00000000000E+00 -0.00000000000E+00 -0.45593999997E+02  0.45594000000E+02  0.51100000000E-03 0. -1.
         23    2    1    2    0    0  0.00000000000E+00  0.00000000000E+00  0.00000000000E+00  0.91188000000E+02  0.91188000000E+02 0.  0.
    9900012    2    3    3    0    0 -0.16351495444E+02 -0.11428403065E+01  0.32971234153E+02  0.54367085172E+02  0.40000002267E+02 0.  0.
         12    1    3    3    0    0  0.16351495444E+02  0.11428403065E+01 -0.32971234153E+02  0.36820914828E+02  0.00000000000E+00 0. -1.
         11    1    4    4    0    0 -0.16298565450E+01  0.12759909995E+02  0.26333594185E+01  0.13130358621E+02  0.51100000000E-03 0. -1.
        -11    1    4    4    0    0  0.13531698948E+00 -0.16955302913E+01  0.18664813715E+02  0.18742155824E+02  0.51100000000E-03 0.  1.
         12    1    4    4    0    0 -0.14856955888E+02 -0.12207220010E+02  0.11673061019E+02  0.22494570727E+02  0.00000000000E+00 0. -1.
</event>
<event>
 8    1  0.2472977E-006  0.9118800E+02  0.7816164E-02  0.1184000E+00
        -11   -1    0    0    0    0  0.00000000000E+00  0.00000000000E+00  0.45593999997E+02  0.45594000000E+02  0.51100000000E-03 0.  1.
         11   -1    0    0    0    0 -0.00000000000E+00 -0.00000000000E+00 -0.45593999997E+02  0.45594000000E+02  0.51100000000E-03 0. -1.
         23    2    1    2    0    0  0.00000000000E+00 -0.38857805862E-15  0.00000000000E+00  0.91188000000E+02  0.91188000000E+02 0.  0.
    9900012    2    3    3    0    0  0.15646784312E+02 -0.27403431239E+00  0.33329907573E+02  0.54367086202E+02  0.40000004615E+02 0.  0.
         12    1    3    3    0    0 -0.15646784312E+02  0.27403431239E+00 -0.33329907573E+02  0.36820913798E+02  0.00000000000E+00 0. -1.
         11    1    4    4    0    0  0.36263187723E+01 -0.28243955852E+01  0.27658852130E+01  0.53644682432E+01  0.51100000000E-03 0. -1.
        -11    1    4    4    0    0  0.17439402117E+01  0.10310663459E+02  0.34084540409E+02  0.35652587615E+02  0.51100000000E-03 0.  1.
         12    1    4    4    0    0  0.10276525328E+02 -0.77603021865E+01 -0.35205180498E+01  0.13350030344E+02  0.00000000000E+00 0. -1.
</event>
<event>
 8    1  0.2472977E-006  0.9118800E+02  0.7816164E-02  0.1184000E+00
        -11   -1    0    0    0    0  0.00000000000E+00  0.00000000000E+00  0.45593999997E+02  0.45594000000E+02  0.51100000000E-03 0. -1.
         11   -1    0    0    0    0 -0.00000000000E+00 -0.00000000000E+00 -0.45593999997E+02  0.45594000000E+02  0.51100000000E-03 0.  1.
         23    2    1    2    0    0 -0.88817841970E-15  0.00000000000E+00  0.35527136788E-14  0.91188000000E+02  0.91188000000E+02 0.  0.
    9900012    2    3    3    0    0 -0.57542747573E+01 -0.33480732486E+02  0.14202435006E+02  0.54367078150E+02  0.39999986258E+02 0.  0.
         12    1    3    3    0    0  0.57542747573E+01  0.33480732486E+02 -0.14202435006E+02  0.36820921850E+02  0.00000000000E+00 0. -1.
         11    1    4    4    0    0 -0.12657118671E+02 -0.24447593469E+02 -0.26001168612E+01  0.27652270927E+02  0.51100000000E-03 0. -1.
        -11    1    4    4    0    0  0.58533796323E+01 -0.40231375983E+01 -0.18771019925E+01  0.73465094709E+01  0.51100000000E-03 0.  1.
         12    1    4    4    0    0  0.10494642813E+01 -0.50100014194E+01  0.18679653859E+02  0.19368297752E+02  0.00000000000E+00 0. -1.
</event>
<event>
 8    1  0.2472977E-006  0.9118800E+02  0.7816164E-02  0.1184000E+00
        -11   -1    0    0    0    0  0.00000000000E+00  0.00000000000E+00  0.45593999997E+02  0.45594000000E+02  0.51100000000E-03 0. -1.
         11   -1    0    0    0    0 -0.00000000000E+00 -0.00000000000E+00 -0.45593999997E+02  0.45594000000E+02  0.51100000000E-03 0.  1.
         23    2    1    2    0    0  0.35527136788E-14  0.00000000000E+00  0.35527136788E-14  0.91188000000E+02  0.91188000000E+02 0.  0.
    9900012    2    3    3    0    0 -0.20924170859E+02  0.24212002137E+02 -0.18213706712E+02  0.54367067288E+02  0.39999961496E+02 0.  0.
         12    1    3    3    0    0  0.20924170859E+02 -0.24212002137E+02  0.18213706712E+02  0.36820932712E+02  0.00000000000E+00 0. -1.
         11    1    4    4    0    0 -0.19525976744E+02  0.21558454024E+02 -0.11943493208E+02  0.31443246302E+02  0.51100000000E-03 0. -1.
        -11    1    4    4    0    0 -0.95420693980E+00  0.53669944449E+01 -0.13837495744E+02  0.14872505807E+02  0.51100000000E-03 0.  1.
         12    1    4    4    0    0 -0.44398717461E+00 -0.27134463325E+01  0.75672822396E+01  0.80513151786E+01  0.00000000000E+00 0. -1.
</event>
<event>
 8    1  0.2472977E-006  0.9118800E+02  0.7816164E-02  0.1184000E+00
        -11   -1    0    0    0    0  0.00000000000E+00  0.00000000000E+00  0.45593999997E+02  0.45594000000E+02  0.51100000000E-03 0. -1.
         11   -1    0    0    0    0 -0.00000000000E+00 -0.00000000000E+00 -0.45593999997E+02  0.45594000000E+02  0.51100000000E-03 0.  1.
         23    2    1    2    0    0  0.00000000000E+00  0.00000000000E+00  0.00000000000E+00  0.91188000000E+02  0.91188000000E+02 0.  0.
    9900012    2    3    3    0    0  0.27116723561E+02 -0.16387775269E+02  0.18759098996E+02  0.54367086512E+02  0.40000005321E+02 0.  0.
        -12    1    3    3    0    0 -0.27116723561E+02  0.16387775269E+02 -0.18759098996E+02  0.36820913488E+02  0.00000000000E+00 0.  1.
         11    1    4    4    0    0  0.14938846783E+02 -0.12826066459E+02  0.28346351604E+02  0.34513660680E+02  0.51100000000E-03 0. -1.
        -11    1    4    4    0    0  0.67839139451E+01  0.38341521525E+01 -0.66371195830E+01  0.10235896041E+02  0.51100000000E-03 0.  1.
         12    1    4    4    0    0  0.53939628322E+01 -0.73958609624E+01 -0.29501330247E+01  0.96175297907E+01  0.00000000000E+00 0. -1.
</event>
<event>
 8    1  0.2472977E-006  0.9118800E+02  0.7816164E-02  0.1184000E+00
        -11   -1    0    0    0    0  0.00000000000E+00  0.00000000000E+00  0.45593999997E+02  0.45594000000E+02  0.51100000000E-03 0. -1.
         11   -1    0    0    0    0 -0.00000000000E+00 -0.00000000000E+00 -0.45593999997E+02  0.45594000000E+02  0.51100000000E-03 0.  1.
         23    2    1    2    0    0  0.00000000000E+00  0.17763568394E-14  0.35527136788E-14  0.91188000000E+02  0.91188000000E+02 0.  0.
    9900012    2    3    3    0    0  0.28318718146E+02  0.14770336177E+02 -0.18321258777E+02  0.54367066397E+02  0.39999959465E+02 0.  0.
         12    1    3    3    0    0 -0.28318718146E+02 -0.14770336177E+02  0.18321258777E+02  0.36820933603E+02  0.00000000000E+00 0. -1.
         11    1    4    4    0    0  0.84142812855E+01 -0.10417786388E+02 -0.98733856060E+01  0.16637732609E+02  0.51100000000E-03 0. -1.
        -11    1    4    4    0    0  0.16092337836E+02  0.79128888819E+01  0.42600303675E+00  0.17937631570E+02  0.51100000000E-03 0.  1.
        -12    1    4    4    0    0  0.38120990252E+01  0.17275233683E+02 -0.88738762074E+01  0.19791702219E+02  0.00000000000E+00 0.  1.
</event>
<event>
 8    1  0.2472977E-006  0.9118800E+02  0.7816164E-02  0.1184000E+00
        -11   -1    0    0    0    0  0.00000000000E+00  0.00000000000E+00  0.45593999997E+02  0.45594000000E+02  0.51100000000E-03 0.  1.
         11   -1    0    0    0    0 -0.00000000000E+00 -0.00000000000E+00 -0.45593999997E+02  0.45594000000E+02  0.51100000000E-03 0. -1.
         23    2    1    2    0    0 -0.35527136788E-14 -0.35527136788E-14 -0.35527136788E-14  0.91188000000E+02  0.91188000000E+02 0.  0.
    9900012    2    3    3    0    0  0.29811774868E+02  0.13416523198E+02  0.16942114504E+02  0.54367078510E+02  0.39999987080E+02 0.  0.
         12    1    3    3    0    0 -0.29811774868E+02 -0.13416523198E+02 -0.16942114504E+02  0.36820921490E+02  0.00000000000E+00 0. -1.
         11    1    4    4    0    0 -0.50235700495E+01 -0.51372839960E+01  0.16044017662E+01  0.73622040305E+01  0.51100000000E-03 0. -1.
        -11    1    4    4    0    0  0.17579486493E+01 -0.23512776574E+01  0.61443117549E+01  0.68096591162E+01  0.51100000000E-03 0.  1.
        -12    1    4    4    0    0  0.33077396268E+02  0.20905084851E+02  0.91934009829E+01  0.40195215364E+02  0.00000000000E+00 0.  1.
</event>
<event>
 8    1  0.2472977E-006  0.9118800E+02  0.7816164E-02  0.1184000E+00
        -11   -1    0    0    0    0  0.00000000000E+00  0.00000000000E+00  0.45593999997E+02  0.45594000000E+02  0.51100000000E-03 0. -1.
         11   -1    0    0    0    0 -0.00000000000E+00 -0.00000000000E+00 -0.45593999997E+02  0.45594000000E+02  0.51100000000E-03 0.  1.
         23    2    1    2    0    0  0.00000000000E+00  0.00000000000E+00 -0.71054273576E-14  0.91188000000E+02  0.91188000000E+02 0.  0.
    9900012    2    3    3    0    0 -0.17808607888E+02 -0.22824754189E+01 -0.32146909268E+02  0.54367082244E+02  0.39999995591E+02 0.  0.
         12    1    3    3    0    0  0.17808607888E+02  0.22824754189E+01  0.32146909268E+02  0.36820917756E+02  0.00000000000E+00 0. -1.
         11    1    4    4    0    0 -0.13764816967E+02  0.20989516821E-02  0.47226496983E+01  0.14552443471E+02  0.51100000000E-03 0. -1.
        -11    1    4    4    0    0 -0.52199283569E+01 -0.30469761846E+01 -0.48101043795E+01  0.77245595553E+01  0.51100000000E-03 0.  1.
        -12    1    4    4    0    0  0.11761374359E+01  0.76240181403E+00 -0.32059454586E+02  0.32090079217E+02  0.00000000000E+00 0.  1.
</event>
<event>
 8    1  0.2472977E-006  0.9118800E+02  0.7816164E-02  0.1184000E+00
        -11   -1    0    0    0    0  0.00000000000E+00  0.00000000000E+00  0.45593999997E+02  0.45594000000E+02  0.51100000000E-03 0.  1.
         11   -1    0    0    0    0 -0.00000000000E+00 -0.00000000000E+00 -0.45593999997E+02  0.45594000000E+02  0.51100000000E-03 0. -1.
         23    2    1    2    0    0  0.00000000000E+00 -0.88817841970E-15  0.71054273576E-14  0.91188000000E+02  0.91188000000E+02 0.  0.
    9900012    2    3    3    0    0 -0.56815038805E+01  0.45402169425E+01  0.36095517523E+02  0.54367089616E+02  0.40000012397E+02 0.  0.
         12    1    3    3    0    0  0.56815038805E+01 -0.45402169425E+01 -0.36095517523E+02  0.36820910384E+02  0.00000000000E+00 0. -1.
         11    1    4    4    0    0 -0.52359458541E+01  0.35821393156E+00  0.17519128487E+02  0.18288338071E+02  0.51100000000E-03 0. -1.
        -11    1    4    4    0    0 -0.74840972538E+01 -0.11341219634E+02  0.57842823696E+01  0.14767968624E+02  0.51100000000E-03 0.  1.
         12    1    4    4    0    0  0.70385392274E+01  0.15523222644E+02  0.12792106667E+02  0.21310782921E+02  0.00000000000E+00 0. -1.
</event>
<event>
 8    1  0.2472977E-006  0.9118800E+02  0.7816164E-02  0.1184000E+00
        -11   -1    0    0    0    0  0.00000000000E+00  0.00000000000E+00  0.45593999997E+02  0.45594000000E+02  0.51100000000E-03 0. -1.
         11   -1    0    0    0    0 -0.00000000000E+00 -0.00000000000E+00 -0.45593999997E+02  0.45594000000E+02  0.51100000000E-03 0.  1.
         23    2    1    2    0    0 -0.44408920985E-15 -0.71054273576E-14 -0.17763568394E-14  0.91188000000E+02  0.91188000000E+02 0.  0.
    9900012    2    3    3    0    0  0.27303323838E+01 -0.33602484879E+02 -0.14805353279E+02  0.54367079443E+02  0.39999989206E+02 0.  0.
         12    1    3    3    0    0 -0.27303323838E+01  0.33602484879E+02  0.14805353279E+02  0.36820920557E+02  0.00000000000E+00 0. -1.
         11    1    4    4    0    0  0.84463326581E+00  0.50994552391E+01  0.62744092317E+00  0.52068734825E+01  0.51100000000E-03 0. -1.
        -11    1    4    4    0    0 -0.87278349012E+01 -0.16991261363E+02 -0.16104666086E+02  0.24984762052E+02  0.51100000000E-03 0.  1.
         12    1    4    4    0    0  0.10613534019E+02 -0.21710678754E+02  0.67187188316E+00  0.24175443909E+02  0.00000000000E+00 0. -1.
</event>
<event>
 8    1  0.2472977E-006  0.9118800E+02  0.7816164E-02  0.1184000E+00
        -11   -1    0    0    0    0  0.00000000000E+00  0.00000000000E+00  0.45593999997E+02  0.45594000000E+02  0.51100000000E-03 0. -1.
         11   -1    0    0    0    0 -0.00000000000E+00 -0.00000000000E+00 -0.45593999997E+02  0.45594000000E+02  0.51100000000E-03 0.  1.
         23    2    1    2    0    0  0.88817841970E-15 -0.17763568394E-14  0.00000000000E+00  0.91188000000E+02  0.91188000000E+02 0.  0.
    9900012    2    3    3    0    0  0.50539719747E+01  0.13154817208E+02  0.34017467874E+02  0.54367082453E+02  0.39999996067E+02 0.  0.
        -12    1    3    3    0    0 -0.50539719747E+01 -0.13154817208E+02 -0.34017467874E+02  0.36820917547E+02  0.00000000000E+00 0.  1.
         11    1    4    4    0    0 -0.47568435887E+01 -0.28168132614E+01 -0.36804736856E+01  0.66413767164E+01  0.51100000000E-03 0.  1.
        -11    1    4    4    0    0  0.12902183858E+02  0.16145127018E+01  0.10104332374E+02  0.16467256376E+02  0.51100000000E-03 0. -1.
        -12    1    4    4    0    0 -0.30913682947E+01  0.14357117768E+02  0.27593609185E+02  0.31258449360E+02  0.00000000000E+00 0.  1.
</event>
<event>
 8    1  0.2472977E-006  0.9118800E+02  0.7816164E-02  0.1184000E+00
        -11   -1    0    0    0    0  0.00000000000E+00  0.00000000000E+00  0.45593999997E+02  0.45594000000E+02  0.51100000000E-03 0. -1.
         11   -1    0    0    0    0 -0.00000000000E+00 -0.00000000000E+00 -0.45593999997E+02  0.45594000000E+02  0.51100000000E-03 0.  1.
         23    2    1    2    0    0  0.00000000000E+00  0.35527136788E-14  0.00000000000E+00  0.91188000000E+02  0.91188000000E+02 0.  0.
    9900012    2    3    3    0    0 -0.12622660416E+02  0.30944520988E+02 -0.15455907424E+02  0.54367081904E+02  0.39999994817E+02 0.  0.
         12    1    3    3    0    0  0.12622660416E+02 -0.30944520988E+02  0.15455907424E+02  0.36820918096E+02  0.00000000000E+00 0. -1.
         11    1    4    4    0    0 -0.12030793449E+01 -0.26561597921E+01  0.98371012069E+01  0.10260172765E+02  0.51100000000E-03 0. -1.
        -11    1    4    4    0    0 -0.82419219140E+00  0.45883920463E+01 -0.63381340249E+01  0.78679462071E+01  0.51100000000E-03 0.  1.
         12    1    4    4    0    0 -0.10595388880E+02  0.29012288733E+02 -0.18954874606E+02  0.36238962932E+02  0.00000000000E+00 0. -1.
</event>
<event>
 8    1  0.2472977E-006  0.9118800E+02  0.7816164E-02  0.1184000E+00
        -11   -1    0    0    0    0  0.00000000000E+00  0.00000000000E+00  0.45593999997E+02  0.45594000000E+02  0.51100000000E-03 0.  1.
         11   -1    0    0    0    0 -0.00000000000E+00 -0.00000000000E+00 -0.45593999997E+02  0.45594000000E+02  0.51100000000E-03 0. -1.
         23    2    1    2    0    0  0.00000000000E+00 -0.35527136788E-14  0.00000000000E+00  0.91188000000E+02  0.91188000000E+02 0.  0.
    9900012    2    3    3    0    0  0.11247351261E+02  0.29015640147E+02  0.19681548907E+02  0.54367168248E+02  0.40000191654E+02 0.  0.
         12    1    3    3    0    0 -0.11247351261E+02 -0.29015640147E+02 -0.19681548907E+02  0.36820831752E+02  0.00000000000E+00 0. -1.
         11    1    4    4    0    0  0.35522778701E+01  0.66453351372E+01  0.21364350557E+02  0.22654240930E+02  0.51100000000E-03 0. -1.
        -11    1    4    4    0    0 -0.47398691616E+01 -0.12855313140E+01 -0.78006677774E+00  0.49726707982E+01  0.51100000000E-03 0.  1.
        -12    1    4    4    0    0  0.12434942553E+02  0.23655836324E+02 -0.90273487174E+00  0.26740256519E+02  0.00000000000E+00 0.  1.
</event>
<event>
 8    1  0.2472977E-006  0.9118800E+02  0.7816164E-02  0.1184000E+00
        -11   -1    0    0    0    0  0.00000000000E+00  0.00000000000E+00  0.45593999997E+02  0.45594000000E+02  0.51100000000E-03 0.  1.
         11   -1    0    0    0    0 -0.00000000000E+00 -0.00000000000E+00 -0.45593999997E+02  0.45594000000E+02  0.51100000000E-03 0. -1.
         23    2    1    2    0    0  0.00000000000E+00  0.00000000000E+00 -0.66613381478E-15  0.91188000000E+02  0.91188000000E+02 0.  0.
    9900012    2    3    3    0    0 -0.35405798281E+02  0.10071398048E+02  0.88094320949E+00  0.54367086493E+02  0.40000005278E+02 0.  0.
        -12    1    3    3    0    0  0.35405798281E+02 -0.10071398048E+02 -0.88094320949E+00  0.36820913507E+02  0.00000000000E+00 0.  1.
         11    1    4    4    0    0 -0.14857337869E+02  0.42580253989E+01  0.12575201239E+02  0.19925033383E+02  0.51100000000E-03 0. -1.
        -11    1    4    4    0    0 -0.64595723149E+01 -0.55831266115E+00  0.74218620317E+01  0.98550405275E+01  0.51100000000E-03 0.  1.
         12    1    4    4    0    0 -0.14088888097E+02  0.63716853102E+01 -0.19116120062E+02  0.24587012582E+02  0.00000000000E+00 0. -1.
</event>
<event>
 8    1  0.2472977E-006  0.9118800E+02  0.7816164E-02  0.1184000E+00
        -11   -1    0    0    0    0  0.00000000000E+00  0.00000000000E+00  0.45593999997E+02  0.45594000000E+02  0.51100000000E-03 0.  1.
         11   -1    0    0    0    0 -0.00000000000E+00 -0.00000000000E+00 -0.45593999997E+02  0.45594000000E+02  0.51100000000E-03 0. -1.
         23    2    1    2    0    0  0.17763568394E-14  0.00000000000E+00  0.00000000000E+00  0.91188000000E+02  0.91188000000E+02 0.  0.
    9900012    2    3    3    0    0 -0.11917679147E+02 -0.11548387324E+02 -0.32869188453E+02  0.54367083721E+02  0.39999998959E+02 0.  0.
        -12    1    3    3    0    0  0.11917679147E+02  0.11548387324E+02  0.32869188453E+02  0.36820916279E+02  0.00000000000E+00 0.  1.
         11    1    4    4    0    0 -0.14214780455E+02 -0.13379944509E+02 -0.11633550970E+02  0.22724929194E+02  0.51100000000E-03 0. -1.
        -11    1    4    4    0    0  0.64262096038E+01 -0.44194656354E+01  0.12883816937E+01  0.79049208740E+01  0.51100000000E-03 0.  1.
         12    1    4    4    0    0 -0.41291082952E+01  0.62510228198E+01 -0.22524019177E+02  0.23737233653E+02  0.00000000000E+00 0. -1.
</event>
<event>
 8    1  0.2472977E-006  0.9118800E+02  0.7816164E-02  0.1184000E+00
        -11   -1    0    0    0    0  0.00000000000E+00  0.00000000000E+00  0.45593999997E+02  0.45594000000E+02  0.51100000000E-03 0. -1.
         11   -1    0    0    0    0 -0.00000000000E+00 -0.00000000000E+00 -0.45593999997E+02  0.45594000000E+02  0.51100000000E-03 0.  1.
         23    2    1    2    0    0  0.00000000000E+00  0.00000000000E+00 -0.35527136788E-14  0.91188000000E+02  0.91188000000E+02 0.  0.
    9900012    2    3    3    0    0  0.20720996172E+02  0.23509712116E+02  0.19331696547E+02  0.54367072017E+02  0.39999972277E+02 0.  0.
        -12    1    3    3    0    0 -0.20720996172E+02 -0.23509712116E+02 -0.19331696547E+02  0.36820927983E+02  0.00000000000E+00 0.  1.
         11    1    4    4    0    0 -0.62352446785E+01  0.15749118803E+01  0.34381494701E+01  0.72924272826E+01  0.51100000000E-03 0. -1.
        -11    1    4    4    0    0  0.59757285947E+01  0.12555846999E+02 -0.61733446665E+01  0.15214099077E+02  0.51100000000E-03 0.  1.
        -12    1    4    4    0    0  0.20980512256E+02  0.93789532373E+01  0.22066891743E+02  0.31860545657E+02  0.00000000000E+00 0.  1.
</event>
<event>
 8    1  0.2472977E-006  0.9118800E+02  0.7816164E-02  0.1184000E+00
        -11   -1    0    0    0    0  0.00000000000E+00  0.00000000000E+00  0.45593999997E+02  0.45594000000E+02  0.51100000000E-03 0. -1.
         11   -1    0    0    0    0 -0.00000000000E+00 -0.00000000000E+00 -0.45593999997E+02  0.45594000000E+02  0.51100000000E-03 0.  1.
         23    2    1    2    0    0  0.35527136788E-14  0.00000000000E+00  0.00000000000E+00  0.91188000000E+02  0.91188000000E+02 0.  0.
    9900012    2    3    3    0    0 -0.19167898535E+02 -0.21694562790E+02 -0.22753442414E+02  0.54367061248E+02  0.39999947727E+02 0.  0.
         12    1    3    3    0    0  0.19167898535E+02  0.21694562790E+02  0.22753442414E+02  0.36820938752E+02  0.00000000000E+00 0. -1.
         11    1    4    4    0    0  0.26072966974E+01 -0.80306232745E+00 -0.35852368976E+01  0.45052002223E+01  0.51100000000E-03 0. -1.
        -11    1    4    4    0    0 -0.10407648011E+02 -0.29382365382E+02 -0.17009262101E+02  0.35509963814E+02  0.51100000000E-03 0.  1.
        -12    1    4    4    0    0 -0.11367547221E+02  0.84908649198E+01 -0.21589434154E+01  0.14351897212E+02  0.00000000000E+00 0.  1.
</event>
<event>
 8    1  0.2472977E-006  0.9118800E+02  0.7816164E-02  0.1184000E+00
        -11   -1    0    0    0    0  0.00000000000E+00  0.00000000000E+00  0.45593999997E+02  0.45594000000E+02  0.51100000000E-03 0. -1.
         11   -1    0    0    0    0 -0.00000000000E+00 -0.00000000000E+00 -0.45593999997E+02  0.45594000000E+02  0.51100000000E-03 0.  1.
         23    2    1    2    0    0 -0.35527136788E-14 -0.74940054162E-15 -0.35527136788E-14  0.91188000000E+02  0.91188000000E+02 0.  0.
    9900012    2    3    3    0    0 -0.27466557360E+02  0.17503945332E+00 -0.24522195025E+02  0.54367075774E+02  0.39999980842E+02 0.  0.
         12    1    3    3    0    0  0.27466557360E+02 -0.17503945332E+00  0.24522195025E+02  0.36820924226E+02  0.00000000000E+00 0. -1.
         11    1    4    4    0    0 -0.42246349471E+00 -0.91486226512E+01 -0.40641619873E+01  0.10019639951E+02  0.51100000000E-03 0. -1.
        -11    1    4    4    0    0 -0.14626595337E+02 -0.90051631019E+01 -0.80646169817E+01  0.18975465764E+02  0.51100000000E-03 0.  1.
        -12    1    4    4    0    0 -0.12417498529E+02  0.18328825206E+02 -0.12393416056E+02  0.25371970059E+02  0.00000000000E+00 0.  1.
</event>
<event>
 8    1  0.2472977E-006  0.9118800E+02  0.7816164E-02  0.1184000E+00
        -11   -1    0    0    0    0  0.00000000000E+00  0.00000000000E+00  0.45593999997E+02  0.45594000000E+02  0.51100000000E-03 0. -1.
         11   -1    0    0    0    0 -0.00000000000E+00 -0.00000000000E+00 -0.45593999997E+02  0.45594000000E+02  0.51100000000E-03 0.  1.
         23    2    1    2    0    0  0.35527136788E-14 -0.11102230246E-15  0.71054273576E-14  0.91188000000E+02  0.91188000000E+02 0.  0.
    9900012    2    3    3    0    0 -0.16708333004E+02 -0.92322051340E+00 -0.32798757813E+02  0.54367092325E+02  0.40000018574E+02 0.  0.
         12    1    3    3    0    0  0.16708333004E+02  0.92322051340E+00  0.32798757813E+02  0.36820907675E+02  0.00000000000E+00 0. -1.
         11    1    4    4    0    0 -0.67023398887E+01 -0.23753858860E-01  0.19065658190E+01  0.69682793940E+01  0.51100000000E-03 0. -1.
        -11    1    4    4    0    0  0.95594811493E+01  0.60300857606E+01 -0.96408041845E+01  0.14855662883E+02  0.51100000000E-03 0.  1.
        -12    1    4    4    0    0 -0.19565474265E+02 -0.69295524151E+01 -0.25064519448E+02  0.32543150048E+02  0.00000000000E+00 0.  1.
</event>
<event>
 8    1  0.2472977E-006  0.9118800E+02  0.7816164E-02  0.1184000E+00
        -11   -1    0    0    0    0  0.00000000000E+00  0.00000000000E+00  0.45593999997E+02  0.45594000000E+02  0.51100000000E-03 0. -1.
         11   -1    0    0    0    0 -0.00000000000E+00 -0.00000000000E+00 -0.45593999997E+02  0.45594000000E+02  0.51100000000E-03 0.  1.
         23    2    1    2    0    0  0.00000000000E+00  0.00000000000E+00  0.26645352591E-14  0.91188000000E+02  0.91188000000E+02 0.  0.
    9900012    2    3    3    0    0 -0.34988737477E+02  0.98203863728E+01  0.59270448598E+01  0.54367060311E+02  0.39999945592E+02 0.  0.
         12    1    3    3    0    0  0.34988737477E+02 -0.98203863728E+01 -0.59270448598E+01  0.36820939689E+02  0.00000000000E+00 0. -1.
         11    1    4    4    0    0 -0.16206380897E+02 -0.89793420441E+01 -0.11626873496E+01  0.18564137671E+02  0.51100000000E-03 0. -1.
        -11    1    4    4    0    0 -0.93330136838E+01  0.52196168806E+01 -0.80439303612E+01  0.13381119562E+02  0.51100000000E-03 0.  1.
         12    1    4    4    0    0 -0.94493428963E+01  0.13580111536E+02  0.15133662571E+02  0.22421803079E+02  0.00000000000E+00 0. -1.
</event>
<event>
 8    1  0.2472977E-006  0.9118800E+02  0.7816164E-02  0.1184000E+00
        -11   -1    0    0    0    0  0.00000000000E+00  0.00000000000E+00  0.45593999997E+02  0.45594000000E+02  0.51100000000E-03 0.  1.
         11   -1    0    0    0    0 -0.00000000000E+00 -0.00000000000E+00 -0.45593999997E+02  0.45594000000E+02  0.51100000000E-03 0. -1.
         23    2    1    2    0    0  0.35527136788E-14  0.00000000000E+00  0.00000000000E+00  0.91188000000E+02  0.91188000000E+02 0.  0.
    9900012    2    3    3    0    0  0.20224829999E+02  0.25294335865E+02 -0.17519661927E+02  0.54367004231E+02  0.39999817746E+02 0.  0.
         12    1    3    3    0    0 -0.20224829999E+02 -0.25294335865E+02  0.17519661927E+02  0.36820995769E+02  0.00000000000E+00 0. -1.
         11    1    4    4    0    0 -0.54433412945E+01 -0.19203176743E+01 -0.13442375846E+02  0.14629253333E+02  0.51100000000E-03 0. -1.
        -11    1    4    4    0    0  0.50709545986E+01  0.14387963983E+02 -0.19639230654E+01  0.15381322511E+02  0.51100000000E-03 0.  1.
         12    1    4    4    0    0  0.20597216695E+02  0.12826689556E+02 -0.21133630151E+01  0.24356428388E+02  0.00000000000E+00 0. -1.
</event>
<event>
 8    1  0.2472977E-006  0.9118800E+02  0.7816164E-02  0.1184000E+00
        -11   -1    0    0    0    0  0.00000000000E+00  0.00000000000E+00  0.45593999997E+02  0.45594000000E+02  0.51100000000E-03 0.  1.
         11   -1    0    0    0    0 -0.00000000000E+00 -0.00000000000E+00 -0.45593999997E+02  0.45594000000E+02  0.51100000000E-03 0. -1.
         23    2    1    2    0    0  0.35527136788E-14  0.00000000000E+00  0.00000000000E+00  0.91188000000E+02  0.91188000000E+02 0.  0.
    9900012    2    3    3    0    0  0.20681524858E+02  0.18962035813E+02  0.23843146296E+02  0.54367083418E+02  0.39999998269E+02 0.  0.
         12    1    3    3    0    0 -0.20681524858E+02 -0.18962035813E+02 -0.23843146296E+02  0.36820916582E+02  0.00000000000E+00 0. -1.
         11    1    4    4    0    0  0.12757782043E+01  0.43587287300E+01  0.24759191956E+01  0.51726494461E+01  0.51100000000E-03 0. -1.
        -11    1    4    4    0    0  0.25246262428E+02  0.21961227650E+02  0.21546569785E+02  0.39798542137E+02  0.51100000000E-03 0.  1.
         12    1    4    4    0    0 -0.58405157745E+01 -0.73579205672E+01 -0.17934268412E+00  0.93958918354E+01  0.00000000000E+00 0. -1.
</event>
<event>
 8    1  0.2472977E-006  0.9118800E+02  0.7816164E-02  0.1184000E+00
        -11   -1    0    0    0    0  0.00000000000E+00  0.00000000000E+00  0.45593999997E+02  0.45594000000E+02  0.51100000000E-03 0. -1.
         11   -1    0    0    0    0 -0.00000000000E+00 -0.00000000000E+00 -0.45593999997E+02  0.45594000000E+02  0.51100000000E-03 0.  1.
         23    2    1    2    0    0  0.17763568394E-14  0.17763568394E-14 -0.71054273576E-14  0.91188000000E+02  0.91188000000E+02 0.  0.
    9900012    2    3    3    0    0 -0.83285900529E+01 -0.77408688162E+01  0.35021329200E+02  0.54367082558E+02  0.39999996308E+02 0.  0.
        -12    1    3    3    0    0  0.83285900529E+01  0.77408688162E+01 -0.35021329200E+02  0.36820917442E+02  0.00000000000E+00 0.  1.
         11    1    4    4    0    0 -0.58855692949E+01  0.42049709212E+01  0.34436559321E+02  0.35188042351E+02  0.51100000000E-03 0. -1.
        -11    1    4    4    0    0 -0.13035414737E+01 -0.51427719773E+01 -0.70930875048E+01  0.88577206208E+01  0.51100000000E-03 0.  1.
        -12    1    4    4    0    0 -0.11394792843E+01 -0.68030677601E+01  0.76778573840E+01  0.10321319586E+02  0.00000000000E+00 0.  1.
</event>
<event>
 8    1  0.2472977E-006  0.9118800E+02  0.7816164E-02  0.1184000E+00
        -11   -1    0    0    0    0  0.00000000000E+00  0.00000000000E+00  0.45593999997E+02  0.45594000000E+02  0.51100000000E-03 0.  1.
         11   -1    0    0    0    0 -0.00000000000E+00 -0.00000000000E+00 -0.45593999997E+02  0.45594000000E+02  0.51100000000E-03 0. -1.
         23    2    1    2    0    0  0.35527136788E-14 -0.44408920985E-15  0.00000000000E+00  0.91188000000E+02  0.91188000000E+02 0.  0.
    9900012    2    3    3    0    0  0.19344251187E+02 -0.11843794332E+01  0.31307770545E+02  0.54367091468E+02  0.40000016619E+02 0.  0.
         12    1    3    3    0    0 -0.19344251187E+02  0.11843794332E+01 -0.31307770545E+02  0.36820908532E+02  0.00000000000E+00 0. -1.
         11    1    4    4    0    0  0.84780617111E+01  0.36922277881E+01 -0.15923405537E+01  0.93832630314E+01  0.51100000000E-03 0. -1.
        -11    1    4    4    0    0 -0.64348927474E+01  0.61255763659E+01  0.45079280582E+01  0.99625270953E+01  0.51100000000E-03 0.  1.
        -12    1    4    4    0    0  0.17301082223E+02 -0.11002183587E+02  0.28392183041E+02  0.35021301341E+02  0.00000000000E+00 0.  1.
</event>
<event>
 8    1  0.2472977E-006  0.9118800E+02  0.7816164E-02  0.1184000E+00
        -11   -1    0    0    0    0  0.00000000000E+00  0.00000000000E+00  0.45593999997E+02  0.45594000000E+02  0.51100000000E-03 0. -1.
         11   -1    0    0    0    0 -0.00000000000E+00 -0.00000000000E+00 -0.45593999997E+02  0.45594000000E+02  0.51100000000E-03 0.  1.
         23    2    1    2    0    0  0.00000000000E+00 -0.88817841970E-15 -0.71054273576E-14  0.91188000000E+02  0.91188000000E+02 0.  0.
    9900012    2    3    3    0    0  0.17013172943E+02  0.79332879431E+01 -0.31676397937E+02  0.54367091573E+02  0.40000016858E+02 0.  0.
         12    1    3    3    0    0 -0.17013172943E+02 -0.79332879431E+01  0.31676397937E+02  0.36820908427E+02  0.00000000000E+00 0. -1.
         11    1    4    4    0    0  0.19117702840E+01  0.10603627871E+02  0.11025565011E+01  0.10830855033E+02  0.51100000000E-03 0. -1.
        -11    1    4    4    0    0  0.19672131136E+02 -0.50902173572E+01 -0.15663161188E+02  0.25656143024E+02  0.51100000000E-03 0.  1.
         12    1    4    4    0    0 -0.45707284772E+01  0.24198774289E+01 -0.17115793249E+02  0.17880093516E+02  0.00000000000E+00 0. -1.
</event>
<event>
 8    1  0.2472977E-006  0.9118800E+02  0.7816164E-02  0.1184000E+00
        -11   -1    0    0    0    0  0.00000000000E+00  0.00000000000E+00  0.45593999997E+02  0.45594000000E+02  0.51100000000E-03 0.  1.
         11   -1    0    0    0    0 -0.00000000000E+00 -0.00000000000E+00 -0.45593999997E+02  0.45594000000E+02  0.51100000000E-03 0. -1.
         23    2    1    2    0    0  0.00000000000E+00  0.00000000000E+00  0.00000000000E+00  0.91188000000E+02  0.91188000000E+02 0.  0.
    9900012    2    3    3    0    0 -0.13582779152E+02  0.31630865152E+02  0.13068198810E+02  0.54367063837E+02  0.39999953630E+02 0.  0.
        -12    1    3    3    0    0  0.13582779152E+02 -0.31630865152E+02 -0.13068198810E+02  0.36820936163E+02  0.00000000000E+00 0.  1.
         11    1    4    4    0    0 -0.22227219414E+02  0.23557438278E+02  0.17926033923E+02  0.37018169506E+02  0.51100000000E-03 0. -1.
        -11    1    4    4    0    0  0.10363693845E+02  0.83540903220E+01 -0.12842653944E+01  0.13373343377E+02  0.51100000000E-03 0.  1.
         12    1    4    4    0    0 -0.17192535834E+01 -0.28066344847E+00 -0.35735697186E+01  0.39755509542E+01  0.00000000000E+00 0. -1.
</event>
<event>
 8    1  0.2472977E-006  0.9118800E+02  0.7816164E-02  0.1184000E+00
        -11   -1    0    0    0    0  0.00000000000E+00  0.00000000000E+00  0.45593999997E+02  0.45594000000E+02  0.51100000000E-03 0.  1.
         11   -1    0    0    0    0 -0.00000000000E+00 -0.00000000000E+00 -0.45593999997E+02  0.45594000000E+02  0.51100000000E-03 0. -1.
         23    2    1    2    0    0 -0.35527136788E-14  0.17763568394E-14 -0.53290705182E-14  0.91188000000E+02  0.91188000000E+02 0.  0.
    9900012    2    3    3    0    0 -0.31716472094E+02  0.10297729847E+02 -0.15613996428E+02  0.54367153642E+02  0.40000158357E+02 0.  0.
        -12    1    3    3    0    0  0.31716472094E+02 -0.10297729847E+02  0.15613996428E+02  0.36820846358E+02  0.00000000000E+00 0.  1.
         11    1    4    4    0    0 -0.29264076496E+02  0.11752071349E+02 -0.22557190038E+02  0.38772724651E+02  0.51100000000E-03 0. -1.
        -11    1    4    4    0    0 -0.65752642078E+01  0.15102258265E+01 -0.29461687079E+00  0.67529016586E+01  0.51100000000E-03 0.  1.
        -12    1    4    4    0    0  0.41228686105E+01 -0.29645673284E+01  0.72378104806E+01  0.88415273328E+01  0.00000000000E+00 0.  1.
</event>
<event>
 8    1  0.2472977E-006  0.9118800E+02  0.7816164E-02  0.1184000E+00
        -11   -1    0    0    0    0  0.00000000000E+00  0.00000000000E+00  0.45593999997E+02  0.45594000000E+02  0.51100000000E-03 0. -1.
         11   -1    0    0    0    0 -0.00000000000E+00 -0.00000000000E+00 -0.45593999997E+02  0.45594000000E+02  0.51100000000E-03 0.  1.
         23    2    1    2    0    0  0.35527136788E-14 -0.35527136788E-14 -0.17763568394E-14  0.91188000000E+02  0.91188000000E+02 0.  0.
    9900012    2    3    3    0    0 -0.30509552816E+02 -0.18128866241E+02 -0.98127886981E+01  0.54367089824E+02  0.40000012871E+02 0.  0.
         12    1    3    3    0    0  0.30509552816E+02  0.18128866241E+02  0.98127886981E+01  0.36820910176E+02  0.00000000000E+00 0. -1.
         11    1    4    4    0    0  0.33320232708E+01  0.48333085298E-01 -0.46392994968E+01  0.57120762641E+01  0.51100000000E-03 0.  1.
        -11    1    4    4    0    0 -0.20997832207E+02  0.50683133625E+01 -0.14823966969E-01  0.21600855950E+02  0.51100000000E-03 0. -1.
        -12    1    4    4    0    0 -0.12843743879E+02 -0.23245512689E+02 -0.51586652343E+01  0.27054157610E+02  0.00000000000E+00 0.  1.
</event>
<event>
 8    1  0.2472977E-006  0.9118800E+02  0.7816164E-02  0.1184000E+00
        -11   -1    0    0    0    0  0.00000000000E+00  0.00000000000E+00  0.45593999997E+02  0.45594000000E+02  0.51100000000E-03 0.  1.
         11   -1    0    0    0    0 -0.00000000000E+00 -0.00000000000E+00 -0.45593999997E+02  0.45594000000E+02  0.51100000000E-03 0. -1.
         23    2    1    2    0    0 -0.88817841970E-15  0.35527136788E-14 -0.35527136788E-14  0.91188000000E+02  0.91188000000E+02 0.  0.
    9900012    2    3    3    0    0 -0.20690442324E+01  0.23180508104E+02  0.28533547006E+02  0.54367079252E+02  0.39999988770E+02 0.  0.
        -12    1    3    3    0    0  0.20690442324E+01 -0.23180508104E+02 -0.28533547006E+02  0.36820920748E+02  0.00000000000E+00 0.  1.
         11    1    4    4    0    0 -0.75548377584E+01 -0.14000177367E+01  0.23278547718E+02  0.24513800345E+02  0.51100000000E-03 0. -1.
        -11    1    4    4    0    0  0.21715067994E+01  0.24634403498E+02  0.75089825144E+01  0.25844807915E+02  0.51100000000E-03 0.  1.
         12    1    4    4    0    0  0.33142867266E+01 -0.53877657400E-01 -0.22539832263E+01  0.40084709918E+01  0.00000000000E+00 0. -1.
</event>
<event>
 8    1  0.2472977E-006  0.9118800E+02  0.7816164E-02  0.1184000E+00
        -11   -1    0    0    0    0  0.00000000000E+00  0.00000000000E+00  0.45593999997E+02  0.45594000000E+02  0.51100000000E-03 0. -1.
         11   -1    0    0    0    0 -0.00000000000E+00 -0.00000000000E+00 -0.45593999997E+02  0.45594000000E+02  0.51100000000E-03 0.  1.
         23    2    1    2    0    0  0.00000000000E+00  0.00000000000E+00  0.00000000000E+00  0.91188000000E+02  0.91188000000E+02 0.  0.
    9900012    2    3    3    0    0  0.97546288463E+01 -0.33232386052E+02  0.12499402938E+02  0.54367090988E+02  0.40000015526E+02 0.  0.
        -12    1    3    3    0    0 -0.97546288463E+01  0.33232386052E+02 -0.12499402938E+02  0.36820909012E+02  0.00000000000E+00 0.  1.
         11    1    4    4    0    0 -0.62793687583E+00 -0.19999454220E+01  0.15508834948E+02  0.15649857767E+02  0.51100000000E-03 0. -1.
        -11    1    4    4    0    0  0.83893900555E+01 -0.26212726020E+02  0.60410548695E+01  0.28177707769E+02  0.51100000000E-03 0.  1.
        -12    1    4    4    0    0  0.19931756666E+01 -0.50197146094E+01 -0.90504868797E+01  0.10539525452E+02  0.00000000000E+00 0.  1.
</event>
<event>
 8    1  0.2472977E-006  0.9118800E+02  0.7816164E-02  0.1184000E+00
        -11   -1    0    0    0    0  0.00000000000E+00  0.00000000000E+00  0.45593999997E+02  0.45594000000E+02  0.51100000000E-03 0.  1.
         11   -1    0    0    0    0 -0.00000000000E+00 -0.00000000000E+00 -0.45593999997E+02  0.45594000000E+02  0.51100000000E-03 0. -1.
         23    2    1    2    0    0  0.00000000000E+00 -0.22204460493E-15 -0.71054273576E-14  0.91188000000E+02  0.91188000000E+02 0.  0.
    9900012    2    3    3    0    0 -0.21854634206E+02  0.16381486165E+01  0.29588373058E+02  0.54367076772E+02  0.39999983117E+02 0.  0.
         12    1    3    3    0    0  0.21854634206E+02 -0.16381486165E+01 -0.29588373058E+02  0.36820923228E+02  0.00000000000E+00 0. -1.
         11    1    4    4    0    0 -0.72279076091E+01  0.47307189445E+01 -0.13864548942E+01  0.87489775159E+01  0.51100000000E-03 0. -1.
        -11    1    4    4    0    0 -0.18683803423E+02  0.30737391635E+01  0.64449654060E+01  0.20001748977E+02  0.51100000000E-03 0.  1.
        -12    1    4    4    0    0  0.40570768253E+01 -0.61663094915E+01  0.24529862546E+02  0.25616350279E+02  0.00000000000E+00 0.  1.
</event>
<event>
 8    1  0.2472977E-006  0.9118800E+02  0.7816164E-02  0.1184000E+00
        -11   -1    0    0    0    0  0.00000000000E+00  0.00000000000E+00  0.45593999997E+02  0.45594000000E+02  0.51100000000E-03 0.  1.
         11   -1    0    0    0    0 -0.00000000000E+00 -0.00000000000E+00 -0.45593999997E+02  0.45594000000E+02  0.51100000000E-03 0. -1.
         23    2    1    2    0    0  0.88817841970E-15  0.00000000000E+00  0.00000000000E+00  0.91188000000E+02  0.91188000000E+02 0.  0.
    9900012    2    3    3    0    0 -0.71896729451E+01  0.14924375252E+02 -0.32883892731E+02  0.54367098668E+02  0.40000033034E+02 0.  0.
        -12    1    3    3    0    0  0.71896729451E+01 -0.14924375252E+02  0.32883892731E+02  0.36820901332E+02  0.00000000000E+00 0.  1.
         11    1    4    4    0    0 -0.77508787575E+01 -0.12654060335E+02 -0.76747872471E+01  0.16706397697E+02  0.51100000000E-03 0. -1.
        -11    1    4    4    0    0  0.22870760624E+01  0.19331766200E+02 -0.18927881112E+02  0.27151658973E+02  0.51100000000E-03 0.  1.
         12    1    4    4    0    0 -0.17258702500E+01  0.82466693879E+01 -0.62812243715E+01  0.10509041998E+02  0.00000000000E+00 0. -1.
</event>
<event>
 8    1  0.2472977E-006  0.9118800E+02  0.7816164E-02  0.1184000E+00
        -11   -1    0    0    0    0  0.00000000000E+00  0.00000000000E+00  0.45593999997E+02  0.45594000000E+02  0.51100000000E-03 0.  1.
         11   -1    0    0    0    0 -0.00000000000E+00 -0.00000000000E+00 -0.45593999997E+02  0.45594000000E+02  0.51100000000E-03 0. -1.
         23    2    1    2    0    0  0.35527136788E-14 -0.22204460493E-14  0.00000000000E+00  0.91188000000E+02  0.91188000000E+02 0.  0.
    9900012    2    3    3    0    0 -0.19916389351E+02  0.22631689875E+01 -0.30886877954E+02  0.54367031403E+02  0.39999879689E+02 0.  0.
        -12    1    3    3    0    0  0.19916389351E+02 -0.22631689875E+01  0.30886877954E+02  0.36820968597E+02  0.00000000000E+00 0.  1.
         11    1    4    4    0    0 -0.63032618682E+01 -0.96325185594E+01 -0.14946042327E+02  0.18865330781E+02  0.51100000000E-03 0. -1.
        -11    1    4    4    0    0 -0.19719392267E+02  0.13456387617E+02 -0.76127301224E+01  0.25057582870E+02  0.51100000000E-03 0.  1.
        -12    1    4    4    0    0  0.61062647841E+01 -0.15607000705E+01 -0.83281055055E+01  0.10444117753E+02  0.00000000000E+00 0.  1.
</event>
<event>
 8    1  0.2472977E-006  0.9118800E+02  0.7816164E-02  0.1184000E+00
        -11   -1    0    0    0    0  0.00000000000E+00  0.00000000000E+00  0.45593999997E+02  0.45594000000E+02  0.51100000000E-03 0.  1.
         11   -1    0    0    0    0 -0.00000000000E+00 -0.00000000000E+00 -0.45593999997E+02  0.45594000000E+02  0.51100000000E-03 0. -1.
         23    2    1    2    0    0  0.00000000000E+00  0.44408920985E-14  0.00000000000E+00  0.91188000000E+02  0.91188000000E+02 0.  0.
    9900012    2    3    3    0    0  0.16395651577E+02  0.40597418093E+01  0.32718199749E+02  0.54367088971E+02  0.40000010927E+02 0.  0.
         12    1    3    3    0    0 -0.16395651577E+02 -0.40597418093E+01 -0.32718199749E+02  0.36820911029E+02  0.00000000000E+00 0. -1.
         11    1    4    4    0    0  0.57375868554E+01  0.20870467067E+02  0.10727451052E+02  0.24157286786E+02  0.51100000000E-03 0. -1.
        -11    1    4    4    0    0  0.73859680720E+01 -0.68611056334E+01  0.12652417039E+02  0.16177482872E+02  0.51100000000E-03 0.  1.
         12    1    4    4    0    0  0.32720966498E+01 -0.99496196247E+01  0.93383316577E+01  0.14032319313E+02  0.00000000000E+00 0. -1.
</event>
<event>
 8    1  0.2472977E-006  0.9118800E+02  0.7816164E-02  0.1184000E+00
        -11   -1    0    0    0    0  0.00000000000E+00  0.00000000000E+00  0.45593999997E+02  0.45594000000E+02  0.51100000000E-03 0. -1.
         11   -1    0    0    0    0 -0.00000000000E+00 -0.00000000000E+00 -0.45593999997E+02  0.45594000000E+02  0.51100000000E-03 0.  1.
         23    2    1    2    0    0  0.88817841970E-15  0.00000000000E+00  0.00000000000E+00  0.91188000000E+02  0.91188000000E+02 0.  0.
    9900012    2    3    3    0    0 -0.30969102992E+01 -0.19544176351E+02 -0.31051777426E+02  0.54367101532E+02  0.40000039563E+02 0.  0.
         12    1    3    3    0    0  0.30969102992E+01  0.19544176351E+02  0.31051777426E+02  0.36820898468E+02  0.00000000000E+00 0. -1.
         11    1    4    4    0    0 -0.13930742976E+02 -0.55070102546E+01 -0.16061144096E+02  0.21962538827E+02  0.51100000000E-03 0. -1.
        -11    1    4    4    0    0 -0.18384147323E+01 -0.12434900706E+01 -0.14207917448E+02  0.14380227910E+02  0.51100000000E-03 0.  1.
         12    1    4    4    0    0  0.12672247409E+02 -0.12793676026E+02 -0.78271588206E+00  0.18024334795E+02  0.00000000000E+00 0. -1.
</event>
<event>
 8    1  0.2472977E-006  0.9118800E+02  0.7816164E-02  0.1184000E+00
        -11   -1    0    0    0    0  0.00000000000E+00  0.00000000000E+00  0.45593999997E+02  0.45594000000E+02  0.51100000000E-03 0. -1.
         11   -1    0    0    0    0 -0.00000000000E+00 -0.00000000000E+00 -0.45593999997E+02  0.45594000000E+02  0.51100000000E-03 0.  1.
         23    2    1    2    0    0 -0.35527136788E-14 -0.35527136788E-14  0.35527136788E-14  0.91188000000E+02  0.91188000000E+02 0.  0.
    9900012    2    3    3    0    0 -0.25730885007E+02 -0.10922766759E+02  0.23966513731E+02  0.54367094833E+02  0.40000024291E+02 0.  0.
        -12    1    3    3    0    0  0.25730885007E+02  0.10922766759E+02 -0.23966513731E+02  0.36820905167E+02  0.00000000000E+00 0.  1.
         11    1    4    4    0    0 -0.11903623445E+02  0.13495666901E+01 -0.17607808736E+00  0.11981176283E+02  0.51100000000E-03 0. -1.
        -11    1    4    4    0    0 -0.13428162404E+02  0.72829010807E+01  0.10859088805E+02  0.18742358540E+02  0.51100000000E-03 0.  1.
         12    1    4    4    0    0 -0.39909915728E+00 -0.19555234530E+02  0.13283503013E+02  0.23643560010E+02  0.00000000000E+00 0. -1.
</event>
<event>
 8    1  0.2472977E-006  0.9118800E+02  0.7816164E-02  0.1184000E+00
        -11   -1    0    0    0    0  0.00000000000E+00  0.00000000000E+00  0.45593999997E+02  0.45594000000E+02  0.51100000000E-03 0. -1.
         11   -1    0    0    0    0 -0.00000000000E+00 -0.00000000000E+00 -0.45593999997E+02  0.45594000000E+02  0.51100000000E-03 0.  1.
         23    2    1    2    0    0  0.00000000000E+00  0.00000000000E+00 -0.35527136788E-14  0.91188000000E+02  0.91188000000E+02 0.  0.
    9900012    2    3    3    0    0 -0.84161745485E+01  0.23128699472E+02  0.27386337834E+02  0.54367078865E+02  0.39999987888E+02 0.  0.
        -12    1    3    3    0    0  0.84161745485E+01 -0.23128699472E+02 -0.27386337834E+02  0.36820921135E+02  0.00000000000E+00 0.  1.
         11    1    4    4    0    0 -0.99930388843E+01  0.28161045722E+02  0.20401379745E+02  0.36181785722E+02  0.51100000000E-03 0. -1.
        -11    1    4    4    0    0  0.28100599217E+00 -0.54149023253E+01  0.11905780096E+02  0.13082344267E+02  0.51100000000E-03 0.  1.
         12    1    4    4    0    0  0.12958583437E+01  0.38255607531E+00 -0.49208220071E+01  0.51029488752E+01  0.00000000000E+00 0. -1.
</event>
<event>
 8    1  0.2472977E-006  0.9118800E+02  0.7816164E-02  0.1184000E+00
        -11   -1    0    0    0    0  0.00000000000E+00  0.00000000000E+00  0.45593999997E+02  0.45594000000E+02  0.51100000000E-03 0.  1.
         11   -1    0    0    0    0 -0.00000000000E+00 -0.00000000000E+00 -0.45593999997E+02  0.45594000000E+02  0.51100000000E-03 0. -1.
         23    2    1    2    0    0  0.00000000000E+00 -0.35527136788E-14  0.00000000000E+00  0.91188000000E+02  0.91188000000E+02 0.  0.
    9900012    2    3    3    0    0 -0.12426303422E+02 -0.27527129747E+02  0.21062377369E+02  0.54367087066E+02  0.40000006584E+02 0.  0.
        -12    1    3    3    0    0  0.12426303422E+02  0.27527129747E+02 -0.21062377369E+02  0.36820912934E+02  0.00000000000E+00 0.  1.
         11    1    4    4    0    0 -0.14989861591E+02 -0.73457508738E+01  0.10583824353E+02  0.19765458370E+02  0.51100000000E-03 0. -1.
        -11    1    4    4    0    0 -0.58989852785E+01 -0.80575036385E+00  0.12008359199E+02  0.13403281385E+02  0.51100000000E-03 0.  1.
         12    1    4    4    0    0  0.84625434476E+01 -0.19375628510E+02 -0.15298061822E+01  0.21198347311E+02  0.00000000000E+00 0. -1.
</event>
<event>
 8    1  0.2472977E-006  0.9118800E+02  0.7816164E-02  0.1184000E+00
        -11   -1    0    0    0    0  0.00000000000E+00  0.00000000000E+00  0.45593999997E+02  0.45594000000E+02  0.51100000000E-03 0. -1.
         11   -1    0    0    0    0 -0.00000000000E+00 -0.00000000000E+00 -0.45593999997E+02  0.45594000000E+02  0.51100000000E-03 0.  1.
         23    2    1    2    0    0  0.88817841970E-15  0.00000000000E+00  0.00000000000E+00  0.91188000000E+02  0.91188000000E+02 0.  0.
    9900012    2    3    3    0    0 -0.31731215800E+01  0.11444743089E+02 -0.34852972205E+02  0.54367075019E+02  0.39999979120E+02 0.  0.
         12    1    3    3    0    0  0.31731215800E+01 -0.11444743089E+02  0.34852972205E+02  0.36820924981E+02  0.00000000000E+00 0. -1.
         11    1    4    4    0    0  0.11203845972E+02  0.51893002713E+01 -0.13466968786E+02  0.18270584293E+02  0.51100000000E-03 0. -1.
        -11    1    4    4    0    0 -0.70109258684E+00  0.96972925184E+01 -0.19603305897E+02  0.21881924398E+02  0.51100000000E-03 0.  1.
         12    1    4    4    0    0 -0.13675874965E+02 -0.34418497009E+01 -0.17826975219E+01  0.14214566327E+02  0.00000000000E+00 0. -1.
</event>
<event>
 8    1  0.2472977E-006  0.9118800E+02  0.7816164E-02  0.1184000E+00
        -11   -1    0    0    0    0  0.00000000000E+00  0.00000000000E+00  0.45593999997E+02  0.45594000000E+02  0.51100000000E-03 0. -1.
         11   -1    0    0    0    0 -0.00000000000E+00 -0.00000000000E+00 -0.45593999997E+02  0.45594000000E+02  0.51100000000E-03 0.  1.
         23    2    1    2    0    0  0.35527136788E-14 -0.11102230246E-14  0.00000000000E+00  0.91188000000E+02  0.91188000000E+02 0.  0.
    9900012    2    3    3    0    0 -0.31593253265E+02 -0.11987910748E+01  0.18873501990E+02  0.54367084351E+02  0.40000000394E+02 0.  0.
        -12    1    3    3    0    0  0.31593253265E+02  0.11987910748E+01 -0.18873501990E+02  0.36820915649E+02  0.00000000000E+00 0.  1.
         11    1    4    4    0    0 -0.23241048412E+01 -0.98164418065E+01  0.18951768567E+01  0.10264291921E+02  0.51100000000E-03 0. -1.
        -11    1    4    4    0    0  0.28379713281E+01 -0.28664717353E+01 -0.25843498918E+01  0.47905747143E+01  0.51100000000E-03 0.  1.
         12    1    4    4    0    0 -0.32107119752E+02  0.11484122467E+02  0.19562675025E+02  0.39312217716E+02  0.00000000000E+00 0. -1.
</event>
<event>
 8    1  0.2472977E-006  0.9118800E+02  0.7816164E-02  0.1184000E+00
        -11   -1    0    0    0    0  0.00000000000E+00  0.00000000000E+00  0.45593999997E+02  0.45594000000E+02  0.51100000000E-03 0. -1.
         11   -1    0    0    0    0 -0.00000000000E+00 -0.00000000000E+00 -0.45593999997E+02  0.45594000000E+02  0.51100000000E-03 0.  1.
         23    2    1    2    0    0 -0.17763568394E-14  0.00000000000E+00  0.00000000000E+00  0.91188000000E+02  0.91188000000E+02 0.  0.
    9900012    2    3    3    0    0 -0.24558805317E+01  0.21116726626E+01  0.36678187326E+02  0.54367082899E+02  0.39999997085E+02 0.  0.
        -12    1    3    3    0    0  0.24558805317E+01 -0.21116726626E+01 -0.36678187326E+02  0.36820917101E+02  0.00000000000E+00 0.  1.
         11    1    4    4    0    0  0.70828250628E+01  0.97962610010E+00  0.25345961007E+02  0.26335220102E+02  0.51100000000E-03 0. -1.
        -11    1    4    4    0    0 -0.12956829092E+02  0.36038516349E+01  0.16548035009E+02  0.21323804296E+02  0.51100000000E-03 0.  1.
         12    1    4    4    0    0  0.34181234980E+01 -0.24718050724E+01 -0.52158086902E+01  0.67080585012E+01  0.00000000000E+00 0. -1.
</event>
<event>
 8    1  0.2472977E-006  0.9118800E+02  0.7816164E-02  0.1184000E+00
        -11   -1    0    0    0    0  0.00000000000E+00  0.00000000000E+00  0.45593999997E+02  0.45594000000E+02  0.51100000000E-03 0. -1.
         11   -1    0    0    0    0 -0.00000000000E+00 -0.00000000000E+00 -0.45593999997E+02  0.45594000000E+02  0.51100000000E-03 0.  1.
         23    2    1    2    0    0 -0.17763568394E-14  0.00000000000E+00  0.35527136788E-14  0.91188000000E+02  0.91188000000E+02 0.  0.
    9900012    2    3    3    0    0  0.12054264253E+02 -0.29237753715E+02 -0.18858110544E+02  0.54367083902E+02  0.39999999372E+02 0.  0.
         12    1    3    3    0    0 -0.12054264253E+02  0.29237753715E+02  0.18858110544E+02  0.36820916098E+02  0.00000000000E+00 0. -1.
         11    1    4    4    0    0 -0.65759230977E+01  0.53093711229E+01 -0.47546256185E+00  0.84651196812E+01  0.51100000000E-03 0. -1.
        -11    1    4    4    0    0  0.24070388386E+01  0.12499082144E+01 -0.17361936108E+01  0.32203221936E+01  0.51100000000E-03 0.  1.
        -12    1    4    4    0    0  0.16223148512E+02 -0.35797033052E+02 -0.16646454372E+02  0.42681642027E+02  0.00000000000E+00 0.  1.
</event>
<event>
 8    1  0.2472977E-006  0.9118800E+02  0.7816164E-02  0.1184000E+00
        -11   -1    0    0    0    0  0.00000000000E+00  0.00000000000E+00  0.45593999997E+02  0.45594000000E+02  0.51100000000E-03 0. -1.
         11   -1    0    0    0    0 -0.00000000000E+00 -0.00000000000E+00 -0.45593999997E+02  0.45594000000E+02  0.51100000000E-03 0.  1.
         23    2    1    2    0    0 -0.35527136788E-14  0.35527136788E-14 -0.88817841970E-15  0.91188000000E+02  0.91188000000E+02 0.  0.
    9900012    2    3    3    0    0  0.26710461992E+02 -0.24447514270E+02 -0.66820850457E+01  0.54367082108E+02  0.39999995283E+02 0.  0.
         12    1    3    3    0    0 -0.26710461992E+02  0.24447514270E+02  0.66820850457E+01  0.36820917892E+02  0.00000000000E+00 0. -1.
         11    1    4    4    0    0 -0.67652555944E+01 -0.10247428743E+02  0.48717024951E+00  0.12288849182E+02  0.51100000000E-03 0. -1.
        -11    1    4    4    0    0  0.24877261753E+02 -0.16633820754E+02 -0.11610356578E+02  0.32099260511E+02  0.51100000000E-03 0.  1.
        -12    1    4    4    0    0  0.85984558334E+01  0.24337352271E+01  0.44411012825E+01  0.99789724158E+01  0.00000000000E+00 0.  1.
</event>
<event>
 8    1  0.2472977E-006  0.9118800E+02  0.7816164E-02  0.1184000E+00
        -11   -1    0    0    0    0  0.00000000000E+00  0.00000000000E+00  0.45593999997E+02  0.45594000000E+02  0.51100000000E-03 0.  1.
         11   -1    0    0    0    0 -0.00000000000E+00 -0.00000000000E+00 -0.45593999997E+02  0.45594000000E+02  0.51100000000E-03 0. -1.
         23    2    1    2    0    0 -0.22204460493E-15  0.00000000000E+00 -0.71054273576E-14  0.91188000000E+02  0.91188000000E+02 0.  0.
    9900012    2    3    3    0    0 -0.19111715929E+01 -0.17263595805E+02 -0.32466854350E+02  0.54367069154E+02  0.39999965750E+02 0.  0.
        -12    1    3    3    0    0  0.19111715929E+01  0.17263595805E+02  0.32466854350E+02  0.36820930846E+02  0.00000000000E+00 0.  1.
         11    1    4    4    0    0  0.67608254873E+00 -0.81466029684E+01  0.25630762786E+01  0.85670057668E+01  0.51100000000E-03 0. -1.
        -11    1    4    4    0    0  0.89012134603E+01  0.33272305484E+01 -0.37238565835E+01  0.10206330012E+02  0.51100000000E-03 0.  1.
         12    1    4    4    0    0 -0.11488467602E+02 -0.12444223385E+02 -0.31306074045E+02  0.35593733376E+02  0.00000000000E+00 0. -1.
</event>
<event>
 8    1  0.2472977E-006  0.9118800E+02  0.7816164E-02  0.1184000E+00
        -11   -1    0    0    0    0  0.00000000000E+00  0.00000000000E+00  0.45593999997E+02  0.45594000000E+02  0.51100000000E-03 0.  1.
         11   -1    0    0    0    0 -0.00000000000E+00 -0.00000000000E+00 -0.45593999997E+02  0.45594000000E+02  0.51100000000E-03 0. -1.
         23    2    1    2    0    0 -0.71054273576E-14  0.17763568394E-14  0.00000000000E+00  0.91188000000E+02  0.91188000000E+02 0.  0.
    9900012    2    3    3    0    0  0.33400164497E+02  0.14074320194E+02 -0.64901773452E+01  0.54367083671E+02  0.39999998844E+02 0.  0.
        -12    1    3    3    0    0 -0.33400164497E+02 -0.14074320194E+02  0.64901773452E+01  0.36820916329E+02  0.00000000000E+00 0.  1.
         11    1    4    4    0    0 -0.55496501535E+01 -0.59111528407E+01 -0.56587226860E+01  0.98874408939E+01  0.51100000000E-03 0. -1.
        -11    1    4    4    0    0  0.12372521047E+01  0.17414171360E+01  0.13536747474E+01  0.25289843802E+01  0.51100000000E-03 0.  1.
        -12    1    4    4    0    0  0.37712562546E+02  0.18244055898E+02 -0.21851294067E+01  0.41950658397E+02  0.00000000000E+00 0.  1.
</event>
<event>
 8    1  0.2472977E-006  0.9118800E+02  0.7816164E-02  0.1184000E+00
        -11   -1    0    0    0    0  0.00000000000E+00  0.00000000000E+00  0.45593999997E+02  0.45594000000E+02  0.51100000000E-03 0. -1.
         11   -1    0    0    0    0 -0.00000000000E+00 -0.00000000000E+00 -0.45593999997E+02  0.45594000000E+02  0.51100000000E-03 0.  1.
         23    2    1    2    0    0  0.17763568394E-14  0.00000000000E+00 -0.35527136788E-14  0.91188000000E+02  0.91188000000E+02 0.  0.
    9900012    2    3    3    0    0  0.10283793396E+02  0.19682138552E+02  0.29370657535E+02  0.54367102283E+02  0.40000041275E+02 0.  0.
        -12    1    3    3    0    0 -0.10283793396E+02 -0.19682138552E+02 -0.29370657535E+02  0.36820897717E+02  0.00000000000E+00 0.  1.
         11    1    4    4    0    0  0.11415378048E+02 -0.30155253865E+01  0.95697851331E+01  0.15198191902E+02  0.51100000000E-03 0. -1.
        -11    1    4    4    0    0  0.11756068492E+02  0.82165232743E+01  0.96462669879E+01  0.17284873970E+02  0.51100000000E-03 0.  1.
        -12    1    4    4    0    0 -0.12887653144E+02  0.14481140665E+02  0.10154605414E+02  0.21884036411E+02  0.00000000000E+00 0.  1.
</event>
<event>
 8    1  0.2472977E-006  0.9118800E+02  0.7816164E-02  0.1184000E+00
        -11   -1    0    0    0    0  0.00000000000E+00  0.00000000000E+00  0.45593999997E+02  0.45594000000E+02  0.51100000000E-03 0. -1.
         11   -1    0    0    0    0 -0.00000000000E+00 -0.00000000000E+00 -0.45593999997E+02  0.45594000000E+02  0.51100000000E-03 0.  1.
         23    2    1    2    0    0  0.00000000000E+00 -0.35527136788E-14 -0.17763568394E-14  0.91188000000E+02  0.91188000000E+02 0.  0.
    9900012    2    3    3    0    0 -0.33561711955E+02  0.11281729185E+02 -0.10104979824E+02  0.54367129016E+02  0.40000102217E+02 0.  0.
         12    1    3    3    0    0  0.33561711955E+02 -0.11281729185E+02  0.10104979824E+02  0.36820870984E+02  0.00000000000E+00 0. -1.
         11    1    4    4    0    0 -0.12947544227E+02 -0.92984259596E+01  0.61418544293E+01  0.17082798451E+02  0.51100000000E-03 0. -1.
        -11    1    4    4    0    0 -0.12626636699E+02  0.21330274045E+01 -0.28256695735E+01  0.13113587192E+02  0.51100000000E-03 0.  1.
         12    1    4    4    0    0 -0.79875310292E+01  0.18447127741E+02 -0.13421164680E+02  0.24170743373E+02  0.00000000000E+00 0. -1.
</event>
<event>
 8    1  0.2472977E-006  0.9118800E+02  0.7816164E-02  0.1184000E+00
        -11   -1    0    0    0    0  0.00000000000E+00  0.00000000000E+00  0.45593999997E+02  0.45594000000E+02  0.51100000000E-03 0.  1.
         11   -1    0    0    0    0 -0.00000000000E+00 -0.00000000000E+00 -0.45593999997E+02  0.45594000000E+02  0.51100000000E-03 0. -1.
         23    2    1    2    0    0 -0.25812685323E-14  0.00000000000E+00  0.00000000000E+00  0.91188000000E+02  0.91188000000E+02 0.  0.
    9900012    2    3    3    0    0  0.22502823163E+00 -0.36729868631E+02  0.25773029221E+01  0.54367131220E+02  0.40000107241E+02 0.  0.
        -12    1    3    3    0    0 -0.22502823163E+00  0.36729868631E+02 -0.25773029221E+01  0.36820868780E+02  0.00000000000E+00 0.  1.
         11    1    4    4    0    0  0.57479443320E+01 -0.89653869003E+01  0.11883227968E+01  0.10715835835E+02  0.51100000000E-03 0. -1.
        -11    1    4    4    0    0  0.11350237100E+02 -0.84218026483E+00  0.32126161277E+01  0.11826159667E+02  0.51100000000E-03 0.  1.
        -12    1    4    4    0    0 -0.16873153200E+02 -0.26922301466E+02 -0.18236360023E+01  0.31825135717E+02  0.00000000000E+00 0.  1.
</event>
<event>
 8    1  0.2472977E-006  0.9118800E+02  0.7816164E-02  0.1184000E+00
        -11   -1    0    0    0    0  0.00000000000E+00  0.00000000000E+00  0.45593999997E+02  0.45594000000E+02  0.51100000000E-03 0.  1.
         11   -1    0    0    0    0 -0.00000000000E+00 -0.00000000000E+00 -0.45593999997E+02  0.45594000000E+02  0.51100000000E-03 0. -1.
         23    2    1    2    0    0  0.35527136788E-14  0.00000000000E+00  0.00000000000E+00  0.91188000000E+02  0.91188000000E+02 0.  0.
    9900012    2    3    3    0    0  0.12234836654E+02 -0.20627876705E+02 -0.27938854097E+02  0.54367080762E+02  0.39999992213E+02 0.  0.
        -12    1    3    3    0    0 -0.12234836654E+02  0.20627876705E+02  0.27938854097E+02  0.36820919238E+02  0.00000000000E+00 0.  1.
         11    1    4    4    0    0 -0.12543276155E+01 -0.20747633171E+02 -0.93262706816E+01  0.22781943400E+02  0.51100000000E-03 0. -1.
        -11    1    4    4    0    0 -0.57408915728E+01  0.43972378800E+00 -0.72079717123E+01  0.92252940076E+01  0.51100000000E-03 0.  1.
        -12    1    4    4    0    0  0.19230055842E+02 -0.31996732170E+00 -0.11404611703E+02  0.22359843355E+02  0.00000000000E+00 0.  1.
</event>
<event>
 8    1  0.2472977E-006  0.9118800E+02  0.7816164E-02  0.1184000E+00
        -11   -1    0    0    0    0  0.00000000000E+00  0.00000000000E+00  0.45593999997E+02  0.45594000000E+02  0.51100000000E-03 0. -1.
         11   -1    0    0    0    0 -0.00000000000E+00 -0.00000000000E+00 -0.45593999997E+02  0.45594000000E+02  0.51100000000E-03 0.  1.
         23    2    1    2    0    0  0.00000000000E+00  0.35527136788E-14  0.35527136788E-14  0.91188000000E+02  0.91188000000E+02 0.  0.
    9900012    2    3    3    0    0 -0.68653356473E+01 -0.19325414800E+02  0.30580659878E+02  0.54367065067E+02  0.39999956434E+02 0.  0.
        -12    1    3    3    0    0  0.68653356473E+01  0.19325414800E+02 -0.30580659878E+02  0.36820934933E+02  0.00000000000E+00 0.  1.
         11    1    4    4    0    0 -0.35076810366E+01 -0.14757195392E+01  0.17280132242E+02  0.17694195233E+02  0.51100000000E-03 0. -1.
        -11    1    4    4    0    0 -0.79862224539E+01  0.55333525784E+01  0.71272641321E+01  0.12049715105E+02  0.51100000000E-03 0.  1.
        -12    1    4    4    0    0  0.46285678432E+01 -0.23383047839E+02  0.61732635043E+01  0.24623154729E+02  0.00000000000E+00 0.  1.
</event>
<event>
 8    1  0.2472977E-006  0.9118800E+02  0.7816164E-02  0.1184000E+00
        -11   -1    0    0    0    0  0.00000000000E+00  0.00000000000E+00  0.45593999997E+02  0.45594000000E+02  0.51100000000E-03 0.  1.
         11   -1    0    0    0    0 -0.00000000000E+00 -0.00000000000E+00 -0.45593999997E+02  0.45594000000E+02  0.51100000000E-03 0. -1.
         23    2    1    2    0    0  0.35527136788E-14  0.00000000000E+00  0.00000000000E+00  0.91188000000E+02  0.91188000000E+02 0.  0.
    9900012    2    3    3    0    0  0.28438251552E+02  0.17057335490E+02 -0.16002946526E+02  0.54367066513E+02  0.39999959730E+02 0.  0.
        -12    1    3    3    0    0 -0.28438251552E+02 -0.17057335490E+02  0.16002946526E+02  0.36820933487E+02  0.00000000000E+00 0.  1.
         11    1    4    4    0    0  0.91849110187E+01  0.20987051535E+02 -0.11395723820E+02  0.25586743525E+02  0.51100000000E-03 0. -1.
        -11    1    4    4    0    0  0.22962680313E+01  0.52816694571E+01  0.46265982849E+01  0.73874414432E+01  0.51100000000E-03 0.  1.
         12    1    4    4    0    0  0.16957072502E+02 -0.92113855024E+01 -0.92338209906E+01  0.21392881545E+02  0.00000000000E+00 0. -1.
</event>
<event>
 8    1  0.2472977E-006  0.9118800E+02  0.7816164E-02  0.1184000E+00
        -11   -1    0    0    0    0  0.00000000000E+00  0.00000000000E+00  0.45593999997E+02  0.45594000000E+02  0.51100000000E-03 0. -1.
         11   -1    0    0    0    0 -0.00000000000E+00 -0.00000000000E+00 -0.45593999997E+02  0.45594000000E+02  0.51100000000E-03 0.  1.
         23    2    1    2    0    0  0.00000000000E+00  0.00000000000E+00 -0.35527136788E-14  0.91188000000E+02  0.91188000000E+02 0.  0.
    9900012    2    3    3    0    0  0.14207201634E+02 -0.17369890866E+02  0.29192837233E+02  0.54367089736E+02  0.40000012672E+02 0.  0.
        -12    1    3    3    0    0 -0.14207201634E+02  0.17369890866E+02 -0.29192837233E+02  0.36820910264E+02  0.00000000000E+00 0.  1.
         11    1    4    4    0    0  0.12158170243E+02 -0.11587584664E+02  0.29134373658E+02  0.33628930264E+02  0.51100000000E-03 0. -1.
        -11    1    4    4    0    0  0.45117532384E+01 -0.59402179891E+01  0.88688265822E+01  0.11588709689E+02  0.51100000000E-03 0.  1.
        -12    1    4    4    0    0 -0.24627218476E+01  0.15791178765E+00 -0.88103630069E+01  0.91494497837E+01  0.00000000000E+00 0.  1.
</event>
<event>
 8    1  0.2472977E-006  0.9118800E+02  0.7816164E-02  0.1184000E+00
        -11   -1    0    0    0    0  0.00000000000E+00  0.00000000000E+00  0.45593999997E+02  0.45594000000E+02  0.51100000000E-03 0. -1.
         11   -1    0    0    0    0 -0.00000000000E+00 -0.00000000000E+00 -0.45593999997E+02  0.45594000000E+02  0.51100000000E-03 0.  1.
         23    2    1    2    0    0  0.00000000000E+00  0.00000000000E+00  0.00000000000E+00  0.91188000000E+02  0.91188000000E+02 0.  0.
    9900012    2    3    3    0    0 -0.24016638921E+02 -0.27030090332E+02 -0.69538082998E+01  0.54367079611E+02  0.39999989590E+02 0.  0.
        -12    1    3    3    0    0  0.24016638921E+02  0.27030090332E+02  0.69538082998E+01  0.36820920389E+02  0.00000000000E+00 0.  1.
         11    1    4    4    0    0 -0.90438936369E+01 -0.29633123484E+02  0.51899093883E+01  0.31414155714E+02  0.51100000000E-03 0. -1.
        -11    1    4    4    0    0 -0.19543762063E+01  0.44423968275E+01 -0.76478445049E+01  0.90578144031E+01  0.51100000000E-03 0.  1.
         12    1    4    4    0    0 -0.13018369078E+02 -0.18393636752E+01 -0.44958731832E+01  0.13895109494E+02  0.00000000000E+00 0. -1.
</event>
<event>
 8    1  0.2472977E-006  0.9118800E+02  0.7816164E-02  0.1184000E+00
        -11   -1    0    0    0    0  0.00000000000E+00  0.00000000000E+00  0.45593999997E+02  0.45594000000E+02  0.51100000000E-03 0. -1.
         11   -1    0    0    0    0 -0.00000000000E+00 -0.00000000000E+00 -0.45593999997E+02  0.45594000000E+02  0.51100000000E-03 0.  1.
         23    2    1    2    0    0  0.17763568394E-14  0.35527136788E-14 -0.35527136788E-14  0.91188000000E+02  0.91188000000E+02 0.  0.
    9900012    2    3    3    0    0 -0.15067480009E+02 -0.25474026702E+02  0.21904898623E+02  0.54367087818E+02  0.40000008299E+02 0.  0.
        -12    1    3    3    0    0  0.15067480009E+02  0.25474026702E+02 -0.21904898623E+02  0.36820912182E+02  0.00000000000E+00 0.  1.
         11    1    4    4    0    0  0.76211894655E+01 -0.22343681905E+02  0.20707787516E+02  0.31402788316E+02  0.51100000000E-03 0. -1.
        -11    1    4    4    0    0 -0.47838310228E+01 -0.31687847604E+00 -0.78177660963E-01  0.47949518487E+01  0.51100000000E-03 0.  1.
         12    1    4    4    0    0 -0.17904838452E+02 -0.28134663216E+01  0.12752887675E+01  0.18169347654E+02  0.00000000000E+00 0. -1.
</event>
<event>
 8    1  0.2472977E-006  0.9118800E+02  0.7816164E-02  0.1184000E+00
        -11   -1    0    0    0    0  0.00000000000E+00  0.00000000000E+00  0.45593999997E+02  0.45594000000E+02  0.51100000000E-03 0.  1.
         11   -1    0    0    0    0 -0.00000000000E+00 -0.00000000000E+00 -0.45593999997E+02  0.45594000000E+02  0.51100000000E-03 0. -1.
         23    2    1    2    0    0  0.00000000000E+00  0.00000000000E+00 -0.17763568394E-14  0.91188000000E+02  0.91188000000E+02 0.  0.
    9900012    2    3    3    0    0  0.34201841085E+02 -0.98796828491E+01 -0.94023486015E+01  0.54367106122E+02  0.40000050025E+02 0.  0.
        -12    1    3    3    0    0 -0.34201841085E+02  0.98796828491E+01  0.94023486015E+01  0.36820893878E+02  0.00000000000E+00 0.  1.
         11    1    4    4    0    0 -0.68872687179E+01 -0.79040849723E+01 -0.45593305564E+01  0.11432258090E+02  0.51100000000E-03 0. -1.
        -11    1    4    4    0    0  0.12445854324E+02 -0.41583637853E+01  0.23278507676E+01  0.13327046510E+02  0.51100000000E-03 0.  1.
         12    1    4    4    0    0  0.28643255479E+02  0.21827659085E+01 -0.71708688126E+01  0.29607801522E+02  0.00000000000E+00 0. -1.
</event>
<event>
 8    1  0.2472977E-006  0.9118800E+02  0.7816164E-02  0.1184000E+00
        -11   -1    0    0    0    0  0.00000000000E+00  0.00000000000E+00  0.45593999997E+02  0.45594000000E+02  0.51100000000E-03 0. -1.
         11   -1    0    0    0    0 -0.00000000000E+00 -0.00000000000E+00 -0.45593999997E+02  0.45594000000E+02  0.51100000000E-03 0.  1.
         23    2    1    2    0    0  0.00000000000E+00  0.44408920985E-15  0.35527136788E-14  0.91188000000E+02  0.91188000000E+02 0.  0.
    9900012    2    3    3    0    0 -0.21110992289E+02  0.46563924521E+00  0.30164378887E+02  0.54367074306E+02  0.39999977496E+02 0.  0.
        -12    1    3    3    0    0  0.21110992289E+02 -0.46563924521E+00 -0.30164378887E+02  0.36820925694E+02  0.00000000000E+00 0.  1.
         11    1    4    4    0    0  0.88352967660E+00 -0.27017937548E+01  0.16175834858E+02  0.16423700795E+02  0.51100000000E-03 0. -1.
        -11    1    4    4    0    0  0.46918458747E+01  0.60193326871E+01  0.66427818290E+01  0.10117921447E+02  0.51100000000E-03 0.  1.
        -12    1    4    4    0    0 -0.26686367840E+02 -0.28518996871E+01  0.73457621993E+01  0.27825452065E+02  0.00000000000E+00 0.  1.
</event>
<event>
 8    1  0.2472977E-006  0.9118800E+02  0.7816164E-02  0.1184000E+00
        -11   -1    0    0    0    0  0.00000000000E+00  0.00000000000E+00  0.45593999997E+02  0.45594000000E+02  0.51100000000E-03 0.  1.
         11   -1    0    0    0    0 -0.00000000000E+00 -0.00000000000E+00 -0.45593999997E+02  0.45594000000E+02  0.51100000000E-03 0. -1.
         23    2    1    2    0    0  0.13322676296E-14 -0.35527136788E-14 -0.35527136788E-14  0.91188000000E+02  0.91188000000E+02 0.  0.
    9900012    2    3    3    0    0  0.31203591260E+01 -0.19847222944E+02 -0.30856622981E+02  0.54367080926E+02  0.39999992586E+02 0.  0.
        -12    1    3    3    0    0 -0.31203591260E+01  0.19847222944E+02  0.30856622981E+02  0.36820919074E+02  0.00000000000E+00 0.  1.
         11    1    4    4    0    0 -0.75566426516E+01 -0.19665866664E+01 -0.18005877892E+02  0.19626052843E+02  0.51100000000E-03 0. -1.
        -11    1    4    4    0    0 -0.57490400752E+01 -0.86359159693E+01  0.22182468505E+01  0.10609011536E+02  0.51100000000E-03 0.  1.
         12    1    4    4    0    0  0.16426041853E+02 -0.92447203087E+01 -0.15068991940E+02  0.24132016547E+02  0.00000000000E+00 0. -1.
</event>
<event>
 8    1  0.2472977E-006  0.9118800E+02  0.7816164E-02  0.1184000E+00
        -11   -1    0    0    0    0  0.00000000000E+00  0.00000000000E+00  0.45593999997E+02  0.45594000000E+02  0.51100000000E-03 0.  1.
         11   -1    0    0    0    0 -0.00000000000E+00 -0.00000000000E+00 -0.45593999997E+02  0.45594000000E+02  0.51100000000E-03 0. -1.
         23    2    1    2    0    0  0.00000000000E+00  0.00000000000E+00  0.17763568394E-14  0.91188000000E+02  0.91188000000E+02 0.  0.
    9900012    2    3    3    0    0  0.26442267897E+02 -0.23086465105E+02  0.11117777025E+02  0.54367036290E+02  0.39999890830E+02 0.  0.
         12    1    3    3    0    0 -0.26442267897E+02  0.23086465105E+02 -0.11117777025E+02  0.36820963710E+02  0.00000000000E+00 0. -1.
         11    1    4    4    0    0 -0.48557611172E+01  0.44532546783E+00  0.16992413991E+01  0.51637343457E+01  0.51100000000E-03 0. -1.
        -11    1    4    4    0    0  0.27657460218E+02 -0.29876435954E+02  0.60867962065E+01  0.41165344883E+02  0.51100000000E-03 0.  1.
        -12    1    4    4    0    0  0.36405687953E+01  0.63446453804E+01  0.33317394192E+01  0.80379570610E+01  0.00000000000E+00 0.  1.
</event>
<event>
 8    1  0.2472977E-006  0.9118800E+02  0.7816164E-02  0.1184000E+00
        -11   -1    0    0    0    0  0.00000000000E+00  0.00000000000E+00  0.45593999997E+02  0.45594000000E+02  0.51100000000E-03 0.  1.
         11   -1    0    0    0    0 -0.00000000000E+00 -0.00000000000E+00 -0.45593999997E+02  0.45594000000E+02  0.51100000000E-03 0. -1.
         23    2    1    2    0    0  0.00000000000E+00 -0.88817841970E-15  0.11102230246E-15  0.91188000000E+02  0.91188000000E+02 0.  0.
    9900012    2    3    3    0    0 -0.36038180380E+02  0.75242704947E+01  0.64463000186E+00  0.54367073350E+02  0.39999975315E+02 0.  0.
         12    1    3    3    0    0  0.36038180380E+02 -0.75242704947E+01 -0.64463000186E+00  0.36820926650E+02  0.00000000000E+00 0. -1.
         11    1    4    4    0    0  0.16301103774E+01 -0.78757464097E+01 -0.21056006289E+01  0.83137353591E+01  0.51100000000E-03 0. -1.
        -11    1    4    4    0    0 -0.37358083956E+02  0.75493879657E+01  0.21579761056E+01  0.38174291829E+02  0.51100000000E-03 0.  1.
        -12    1    4    4    0    0 -0.31020680112E+00  0.78506289387E+01  0.59225452520E+00  0.78790461615E+01  0.00000000000E+00 0.  1.
</event>
<event>
 8    1  0.2472977E-006  0.9118800E+02  0.7816164E-02  0.1184000E+00
        -11   -1    0    0    0    0  0.00000000000E+00  0.00000000000E+00  0.45593999997E+02  0.45594000000E+02  0.51100000000E-03 0.  1.
         11   -1    0    0    0    0 -0.00000000000E+00 -0.00000000000E+00 -0.45593999997E+02  0.45594000000E+02  0.51100000000E-03 0. -1.
         23    2    1    2    0    0 -0.88817841970E-15  0.00000000000E+00  0.00000000000E+00  0.91188000000E+02  0.91188000000E+02 0.  0.
    9900012    2    3    3    0    0 -0.38103795110E+01  0.34654342100E+02  0.11846424483E+02  0.54367079433E+02  0.39999989183E+02 0.  0.
        -12    1    3    3    0    0  0.38103795110E+01 -0.34654342100E+02 -0.11846424483E+02  0.36820920567E+02  0.00000000000E+00 0.  1.
         11    1    4    4    0    0  0.79403176835E+01  0.18952599091E+02 -0.19925071282E+01  0.20645090025E+02  0.51100000000E-03 0. -1.
        -11    1    4    4    0    0 -0.30814125890E+01 -0.63029628577E+01  0.21343571048E+01  0.73333433603E+01  0.51100000000E-03 0.  1.
        -12    1    4    4    0    0 -0.86692846055E+01  0.22004705867E+02  0.11704574506E+02  0.26388646047E+02  0.00000000000E+00 0.  1.
</event>
<event>
 8    1  0.2472977E-006  0.9118800E+02  0.7816164E-02  0.1184000E+00
        -11   -1    0    0    0    0  0.00000000000E+00  0.00000000000E+00  0.45593999997E+02  0.45594000000E+02  0.51100000000E-03 0.  1.
         11   -1    0    0    0    0 -0.00000000000E+00 -0.00000000000E+00 -0.45593999997E+02  0.45594000000E+02  0.51100000000E-03 0. -1.
         23    2    1    2    0    0  0.00000000000E+00  0.88817841970E-15 -0.35527136788E-14  0.91188000000E+02  0.91188000000E+02 0.  0.
    9900012    2    3    3    0    0 -0.22149459104E+02  0.44529140763E+01 -0.29074954618E+02  0.54367082461E+02  0.39999996086E+02 0.  0.
        -12    1    3    3    0    0  0.22149459104E+02 -0.44529140763E+01  0.29074954618E+02  0.36820917539E+02  0.00000000000E+00 0.  1.
         11    1    4    4    0    0 -0.17478354325E+02  0.32654795635E+01 -0.17540239453E+02  0.24976313319E+02  0.51100000000E-03 0. -1.
        -11    1    4    4    0    0  0.35423567486E+01  0.11831103433E+01 -0.18344902326E+02  0.18721204102E+02  0.51100000000E-03 0.  1.
        -12    1    4    4    0    0 -0.82134615275E+01  0.43241695052E-02  0.68101871610E+01  0.10669565039E+02  0.00000000000E+00 0.  1.
</event>
<event>
 8    1  0.2472977E-006  0.9118800E+02  0.7816164E-02  0.1184000E+00
        -11   -1    0    0    0    0  0.00000000000E+00  0.00000000000E+00  0.45593999997E+02  0.45594000000E+02  0.51100000000E-03 0.  1.
         11   -1    0    0    0    0 -0.00000000000E+00 -0.00000000000E+00 -0.45593999997E+02  0.45594000000E+02  0.51100000000E-03 0. -1.
         23    2    1    2    0    0  0.00000000000E+00 -0.13322676296E-14  0.00000000000E+00  0.91188000000E+02  0.91188000000E+02 0.  0.
    9900012    2    3    3    0    0 -0.16185921428E+02 -0.29099049563E+01 -0.32944317690E+02  0.54367086548E+02  0.40000005404E+02 0.  0.
        -12    1    3    3    0    0  0.16185921428E+02  0.29099049563E+01  0.32944317690E+02  0.36820913452E+02  0.00000000000E+00 0.  1.
         11    1    4    4    0    0 -0.11278284625E+02 -0.16773233900E+02 -0.42834018916E+01  0.20661282912E+02  0.51100000000E-03 0. -1.
        -11    1    4    4    0    0  0.30007883985E+01  0.26097158536E+01 -0.60526907595E+01  0.72422657739E+01  0.51100000000E-03 0.  1.
         12    1    4    4    0    0 -0.79084252019E+01  0.11253613090E+02 -0.22608225039E+02  0.26463537862E+02  0.00000000000E+00 0. -1.
</event>
<event>
 8    1  0.2472977E-006  0.9118800E+02  0.7816164E-02  0.1184000E+00
        -11   -1    0    0    0    0  0.00000000000E+00  0.00000000000E+00  0.45593999997E+02  0.45594000000E+02  0.51100000000E-03 0. -1.
         11   -1    0    0    0    0 -0.00000000000E+00 -0.00000000000E+00 -0.45593999997E+02  0.45594000000E+02  0.51100000000E-03 0.  1.
         23    2    1    2    0    0  0.00000000000E+00 -0.17763568394E-14  0.00000000000E+00  0.91188000000E+02  0.91188000000E+02 0.  0.
    9900012    2    3    3    0    0  0.24392990652E+02 -0.14607611613E+02  0.23396159890E+02  0.54367073782E+02  0.39999976300E+02 0.  0.
        -12    1    3    3    0    0 -0.24392990652E+02  0.14607611613E+02 -0.23396159890E+02  0.36820926218E+02  0.00000000000E+00 0.  1.
         11    1    4    4    0    0  0.14174936750E+02  0.12102358085E+01  0.13615261785E+02  0.19691847458E+02  0.51100000000E-03 0. -1.
        -11    1    4    4    0    0  0.46611680637E+01 -0.22987897891E+02  0.36786198069E+01  0.23742413127E+02  0.51100000000E-03 0.  1.
         12    1    4    4    0    0  0.55568858384E+01  0.71700504696E+01  0.61022782977E+01  0.10932813196E+02  0.00000000000E+00 0. -1.
</event>
<event>
 8    1  0.2472977E-006  0.9118800E+02  0.7816164E-02  0.1184000E+00
        -11   -1    0    0    0    0  0.00000000000E+00  0.00000000000E+00  0.45593999997E+02  0.45594000000E+02  0.51100000000E-03 0.  1.
         11   -1    0    0    0    0 -0.00000000000E+00 -0.00000000000E+00 -0.45593999997E+02  0.45594000000E+02  0.51100000000E-03 0. -1.
         23    2    1    2    0    0  0.35527136788E-14  0.00000000000E+00  0.00000000000E+00  0.91188000000E+02  0.91188000000E+02 0.  0.
    9900012    2    3    3    0    0 -0.25886871400E+02 -0.24209075546E+02 -0.99785323134E+01  0.54367074471E+02  0.39999977871E+02 0.  0.
        -12    1    3    3    0    0  0.25886871400E+02  0.24209075546E+02  0.99785323134E+01  0.36820925529E+02  0.00000000000E+00 0.  1.
         11    1    4    4    0    0 -0.91632328389E+01 -0.18098851413E+02  0.47645750616E+01  0.20838292500E+02  0.51100000000E-03 0. -1.
        -11    1    4    4    0    0 -0.14384089174E+02  0.44822660710E+01  0.19487053729E+00  0.15067538130E+02  0.51100000000E-03 0.  1.
         12    1    4    4    0    0 -0.23395493871E+01 -0.10592490204E+02 -0.14937977912E+02  0.18461243841E+02  0.00000000000E+00 0. -1.
</event>
<event>
 8    1  0.2472977E-006  0.9118800E+02  0.7816164E-02  0.1184000E+00
        -11   -1    0    0    0    0  0.00000000000E+00  0.00000000000E+00  0.45593999997E+02  0.45594000000E+02  0.51100000000E-03 0.  1.
         11   -1    0    0    0    0 -0.00000000000E+00 -0.00000000000E+00 -0.45593999997E+02  0.45594000000E+02  0.51100000000E-03 0. -1.
         23    2    1    2    0    0  0.00000000000E+00  0.88817841970E-15  0.17763568394E-14  0.91188000000E+02  0.91188000000E+02 0.  0.
    9900012    2    3    3    0    0 -0.36114617933E+02  0.62766686764E+01 -0.34808407060E+01  0.54367103078E+02  0.40000043086E+02 0.  0.
         12    1    3    3    0    0  0.36114617933E+02 -0.62766686764E+01  0.34808407060E+01  0.36820896922E+02  0.00000000000E+00 0. -1.
         11    1    4    4    0    0 -0.16693057636E+02 -0.43961906855E+01 -0.75293165076E+01  0.18832824353E+02  0.51100000000E-03 0. -1.
        -11    1    4    4    0    0 -0.13607030877E+02  0.24328162145E+01  0.15168633487E+02  0.20522117974E+02  0.51100000000E-03 0.  1.
        -12    1    4    4    0    0 -0.58145294210E+01  0.82400431474E+01 -0.11120157685E+02  0.15012160751E+02  0.00000000000E+00 0.  1.
</event>
<event>
 8    1  0.2472977E-006  0.9118800E+02  0.7816164E-02  0.1184000E+00
        -11   -1    0    0    0    0  0.00000000000E+00  0.00000000000E+00  0.45593999997E+02  0.45594000000E+02  0.51100000000E-03 0. -1.
         11   -1    0    0    0    0 -0.00000000000E+00 -0.00000000000E+00 -0.45593999997E+02  0.45594000000E+02  0.51100000000E-03 0.  1.
         23    2    1    2    0    0  0.17763568394E-14  0.00000000000E+00 -0.35527136788E-14  0.91188000000E+02  0.91188000000E+02 0.  0.
    9900012    2    3    3    0    0  0.14643493348E+02 -0.23643879625E+02  0.24131189520E+02  0.54367092233E+02  0.40000018364E+02 0.  0.
        -12    1    3    3    0    0 -0.14643493348E+02  0.23643879625E+02 -0.24131189520E+02  0.36820907767E+02  0.00000000000E+00 0.  1.
         11    1    4    4    0    0  0.16962713551E+02 -0.17655196804E+02  0.74142119741E+01  0.25581441802E+02  0.51100000000E-03 0. -1.
        -11    1    4    4    0    0 -0.18203913881E+01 -0.83615309168E+01 -0.28877806662E+01  0.90315171215E+01  0.51100000000E-03 0.  1.
         12    1    4    4    0    0 -0.49882881423E+00  0.23728480967E+01  0.19604758212E+02  0.19754133310E+02  0.00000000000E+00 0. -1.
</event>
<event>
 8    1  0.2472977E-006  0.9118800E+02  0.7816164E-02  0.1184000E+00
        -11   -1    0    0    0    0  0.00000000000E+00  0.00000000000E+00  0.45593999997E+02  0.45594000000E+02  0.51100000000E-03 0.  1.
         11   -1    0    0    0    0 -0.00000000000E+00 -0.00000000000E+00 -0.45593999997E+02  0.45594000000E+02  0.51100000000E-03 0. -1.
         23    2    1    2    0    0  0.00000000000E+00 -0.17763568394E-14 -0.71054273576E-14  0.91188000000E+02  0.91188000000E+02 0.  0.
    9900012    2    3    3    0    0 -0.23036882462E+02  0.11321897313E+02  0.26398764044E+02  0.54367108438E+02  0.40000055307E+02 0.  0.
         12    1    3    3    0    0  0.23036882462E+02 -0.11321897313E+02 -0.26398764044E+02  0.36820891562E+02  0.00000000000E+00 0. -1.
         11    1    4    4    0    0 -0.33458129440E+01  0.20790627080E+00 -0.29092160223E+01  0.44386064704E+01  0.51100000000E-03 0. -1.
        -11    1    4    4    0    0 -0.24694549792E+02  0.17626736223E+02  0.16026469122E+02  0.34312830429E+02  0.51100000000E-03 0.  1.
         12    1    4    4    0    0  0.50034802745E+01 -0.65127451799E+01  0.13281510944E+02  0.15615671539E+02  0.00000000000E+00 0. -1.
</event>
<event>
 8    1  0.2472977E-006  0.9118800E+02  0.7816164E-02  0.1184000E+00
        -11   -1    0    0    0    0  0.00000000000E+00  0.00000000000E+00  0.45593999997E+02  0.45594000000E+02  0.51100000000E-03 0. -1.
         11   -1    0    0    0    0 -0.00000000000E+00 -0.00000000000E+00 -0.45593999997E+02  0.45594000000E+02  0.51100000000E-03 0.  1.
         23    2    1    2    0    0  0.00000000000E+00 -0.35527136788E-14  0.71054273576E-14  0.91188000000E+02  0.91188000000E+02 0.  0.
    9900012    2    3    3    0    0 -0.15785292442E+02  0.97733192938E+01  0.31797595615E+02  0.54367077763E+02  0.39999985376E+02 0.  0.
        -12    1    3    3    0    0  0.15785292442E+02 -0.97733192938E+01 -0.31797595615E+02  0.36820922237E+02  0.00000000000E+00 0.  1.
         11    1    4    4    0    0 -0.84527262331E+01  0.23080484958E+02  0.12637227681E+02  0.27637961039E+02  0.51100000000E-03 0. -1.
        -11    1    4    4    0    0 -0.59138834077E+00 -0.50388953479E+01  0.32679309425E+00  0.50839945401E+01  0.51100000000E-03 0.  1.
         12    1    4    4    0    0 -0.67411778686E+01 -0.82682703167E+01  0.18833574840E+02  0.21645122183E+02  0.00000000000E+00 0. -1.
</event>
<event>
 8    1  0.2472977E-006  0.9118800E+02  0.7816164E-02  0.1184000E+00
        -11   -1    0    0    0    0  0.00000000000E+00  0.00000000000E+00  0.45593999997E+02  0.45594000000E+02  0.51100000000E-03 0. -1.
         11   -1    0    0    0    0 -0.00000000000E+00 -0.00000000000E+00 -0.45593999997E+02  0.45594000000E+02  0.51100000000E-03 0.  1.
         23    2    1    2    0    0  0.17763568394E-14  0.88817841970E-15 -0.71054273576E-14  0.91188000000E+02  0.91188000000E+02 0.  0.
    9900012    2    3    3    0    0  0.57413369987E+01 -0.24844286873E+01 -0.36285600885E+02  0.54367079751E+02  0.39999989908E+02 0.  0.
         12    1    3    3    0    0 -0.57413369987E+01  0.24844286873E+01  0.36285600885E+02  0.36820920249E+02  0.00000000000E+00 0. -1.
         11    1    4    4    0    0  0.73835442335E+01 -0.17633862525E+00 -0.98030369461E+01  0.12273848394E+02  0.51100000000E-03 0.  1.
        -11    1    4    4    0    0 -0.12482692459E+02  0.23026306034E+01 -0.27480858503E+02  0.30270733441E+02  0.51100000000E-03 0. -1.
        -12    1    4    4    0    0  0.10840485224E+02 -0.46107206654E+01  0.99829456473E+00  0.11822497916E+02  0.00000000000E+00 0.  1.
</event>
<event>
 8    1  0.2472977E-006  0.9118800E+02  0.7816164E-02  0.1184000E+00
        -11   -1    0    0    0    0  0.00000000000E+00  0.00000000000E+00  0.45593999997E+02  0.45594000000E+02  0.51100000000E-03 0. -1.
         11   -1    0    0    0    0 -0.00000000000E+00 -0.00000000000E+00 -0.45593999997E+02  0.45594000000E+02  0.51100000000E-03 0.  1.
         23    2    1    2    0    0  0.00000000000E+00  0.00000000000E+00  0.00000000000E+00  0.91188000000E+02  0.91188000000E+02 0.  0.
    9900012    2    3    3    0    0  0.12785090008E+02  0.12830550169E+02  0.32057730760E+02  0.54367086844E+02  0.40000006078E+02 0.  0.
        -12    1    3    3    0    0 -0.12785090008E+02 -0.12830550169E+02 -0.32057730760E+02  0.36820913156E+02  0.00000000000E+00 0.  1.
         11    1    4    4    0    0  0.12233150715E+02  0.77448766119E+01 -0.42434331258E+01  0.15087737243E+02  0.51100000000E-03 0. -1.
        -11    1    4    4    0    0  0.85044797933E-01  0.16514788606E+01 -0.92325211536E+00  0.18939402774E+01  0.51100000000E-03 0.  1.
         12    1    4    4    0    0  0.46689449539E+00  0.34341946968E+01  0.37224416001E+02  0.37385409324E+02  0.00000000000E+00 0. -1.
</event>
<event>
 8    1  0.2472977E-006  0.9118800E+02  0.7816164E-02  0.1184000E+00
        -11   -1    0    0    0    0  0.00000000000E+00  0.00000000000E+00  0.45593999997E+02  0.45594000000E+02  0.51100000000E-03 0.  1.
         11   -1    0    0    0    0 -0.00000000000E+00 -0.00000000000E+00 -0.45593999997E+02  0.45594000000E+02  0.51100000000E-03 0. -1.
         23    2    1    2    0    0 -0.35527136788E-14 -0.35527136788E-14  0.35527136788E-14  0.91188000000E+02  0.91188000000E+02 0.  0.
    9900012    2    3    3    0    0  0.22723414790E+02  0.21701388378E+02 -0.19195711185E+02  0.54367093368E+02  0.40000020952E+02 0.  0.
         12    1    3    3    0    0 -0.22723414790E+02 -0.21701388378E+02  0.19195711185E+02  0.36820906632E+02  0.00000000000E+00 0. -1.
         11    1    4    4    0    0 -0.70029544592E+01  0.79888925848E+00 -0.37981937729E+01  0.80066142284E+01  0.51100000000E-03 0. -1.
        -11    1    4    4    0    0  0.56730111550E+01  0.17932407566E+02 -0.27045655875E+01  0.19001814965E+02  0.51100000000E-03 0.  1.
        -12    1    4    4    0    0  0.24053358094E+02  0.29700915540E+01 -0.12692951825E+02  0.27358664175E+02  0.00000000000E+00 0.  1.
</event>
<event>
 8    1  0.2472977E-006  0.9118800E+02  0.7816164E-02  0.1184000E+00
        -11   -1    0    0    0    0  0.00000000000E+00  0.00000000000E+00  0.45593999997E+02  0.45594000000E+02  0.51100000000E-03 0.  1.
         11   -1    0    0    0    0 -0.00000000000E+00 -0.00000000000E+00 -0.45593999997E+02  0.45594000000E+02  0.51100000000E-03 0. -1.
         23    2    1    2    0    0  0.00000000000E+00 -0.17763568394E-14  0.17763568394E-14  0.91188000000E+02  0.91188000000E+02 0.  0.
    9900012    2    3    3    0    0  0.32763607862E+02 -0.99949713863E+01 -0.13506553171E+02  0.54367076170E+02  0.39999981744E+02 0.  0.
        -12    1    3    3    0    0 -0.32763607862E+02  0.99949713863E+01  0.13506553171E+02  0.36820923830E+02  0.00000000000E+00 0.  1.
         11    1    4    4    0    0  0.23473696880E+02 -0.65858217130E+01 -0.14530063210E+02  0.28381512116E+02  0.51100000000E-03 0. -1.
        -11    1    4    4    0    0  0.12477827945E+02 -0.73353329743E+01  0.86296268397E+01  0.16851520991E+02  0.51100000000E-03 0.  1.
        -12    1    4    4    0    0 -0.31879169628E+01  0.39261833009E+01 -0.76061168009E+01  0.91340430623E+01  0.00000000000E+00 0.  1.
</event>
<event>
 8    1  0.2472977E-006  0.9118800E+02  0.7816164E-02  0.1184000E+00
        -11   -1    0    0    0    0  0.00000000000E+00  0.00000000000E+00  0.45593999997E+02  0.45594000000E+02  0.51100000000E-03 0. -1.
         11   -1    0    0    0    0 -0.00000000000E+00 -0.00000000000E+00 -0.45593999997E+02  0.45594000000E+02  0.51100000000E-03 0.  1.
         23    2    1    2    0    0  0.35527136788E-14 -0.71054273576E-14 -0.88817841970E-15  0.91188000000E+02  0.91188000000E+02 0.  0.
    9900012    2    3    3    0    0 -0.23933012991E+02  0.27721738674E+02  0.38072706901E+01  0.54367092677E+02  0.40000019376E+02 0.  0.
         12    1    3    3    0    0  0.23933012991E+02 -0.27721738674E+02 -0.38072706901E+01  0.36820907323E+02  0.00000000000E+00 0. -1.
         11    1    4    4    0    0  0.92907951560E+01  0.94701132763E+01 -0.10458817570E+01  0.13307734180E+02  0.51100000000E-03 0. -1.
        -11    1    4    4    0    0 -0.11781965873E+02  0.51942979827E+01 -0.53724216320E+01  0.13952002216E+02  0.51100000000E-03 0.  1.
         12    1    4    4    0    0 -0.21441842274E+02  0.13057327415E+02  0.10225574079E+02  0.27107356282E+02  0.00000000000E+00 0. -1.
</event>
<event>
 8    1  0.2472977E-006  0.9118800E+02  0.7816164E-02  0.1184000E+00
        -11   -1    0    0    0    0  0.00000000000E+00  0.00000000000E+00  0.45593999997E+02  0.45594000000E+02  0.51100000000E-03 0. -1.
         11   -1    0    0    0    0 -0.00000000000E+00 -0.00000000000E+00 -0.45593999997E+02  0.45594000000E+02  0.51100000000E-03 0.  1.
         23    2    1    2    0    0  0.00000000000E+00  0.00000000000E+00 -0.35527136788E-14  0.91188000000E+02  0.91188000000E+02 0.  0.
    9900012    2    3    3    0    0  0.16558927623E+02 -0.86732247736E+01  0.31723063096E+02  0.54367141181E+02  0.40000129951E+02 0.  0.
         12    1    3    3    0    0 -0.16558927623E+02  0.86732247736E+01 -0.31723063096E+02  0.36820858819E+02  0.00000000000E+00 0. -1.
         11    1    4    4    0    0  0.98222083029E+01 -0.15246926027E+02  0.19327858501E+02  0.26504917349E+02  0.51100000000E-03 0. -1.
        -11    1    4    4    0    0  0.90220335350E+01 -0.30119123457E+01 -0.26530154200E+01  0.98745732143E+01  0.51100000000E-03 0.  1.
        -12    1    4    4    0    0 -0.22853142152E+01  0.95856135987E+01  0.15048220015E+02  0.17987650618E+02  0.00000000000E+00 0.  1.
</event>
<event>
 8    1  0.2472977E-006  0.9118800E+02  0.7816164E-02  0.1184000E+00
        -11   -1    0    0    0    0  0.00000000000E+00  0.00000000000E+00  0.45593999997E+02  0.45594000000E+02  0.51100000000E-03 0.  1.
         11   -1    0    0    0    0 -0.00000000000E+00 -0.00000000000E+00 -0.45593999997E+02  0.45594000000E+02  0.51100000000E-03 0. -1.
         23    2    1    2    0    0  0.35527136788E-14 -0.17763568394E-14 -0.35527136788E-14  0.91188000000E+02  0.91188000000E+02 0.  0.
    9900012    2    3    3    0    0  0.19969272695E+02 -0.14296684552E+02  0.27433785479E+02  0.54367087100E+02  0.40000006661E+02 0.  0.
         12    1    3    3    0    0 -0.19969272695E+02  0.14296684552E+02 -0.27433785479E+02  0.36820912900E+02  0.00000000000E+00 0. -1.
         11    1    4    4    0    0  0.96002839058E+01 -0.15876670178E+02  0.25374523625E+02  0.31434066814E+02  0.51100000000E-03 0. -1.
        -11    1    4    4    0    0  0.10515074990E+02  0.13635962579E+01  0.10244466609E+02  0.14743652640E+02  0.51100000000E-03 0.  1.
         12    1    4    4    0    0 -0.14608620145E+00  0.21638936848E+00 -0.81852047556E+01  0.81893676451E+01  0.00000000000E+00 0. -1.
</event>
<event>
 8    1  0.2472977E-006  0.9118800E+02  0.7816164E-02  0.1184000E+00
        -11   -1    0    0    0    0  0.00000000000E+00  0.00000000000E+00  0.45593999997E+02  0.45594000000E+02  0.51100000000E-03 0. -1.
         11   -1    0    0    0    0 -0.00000000000E+00 -0.00000000000E+00 -0.45593999997E+02  0.45594000000E+02  0.51100000000E-03 0.  1.
         23    2    1    2    0    0 -0.17763568394E-14  0.35527136788E-14 -0.35527136788E-14  0.91188000000E+02  0.91188000000E+02 0.  0.
    9900012    2    3    3    0    0  0.15692746879E+02 -0.23597427848E+02  0.23509120128E+02  0.54367086991E+02  0.40000006413E+02 0.  0.
        -12    1    3    3    0    0 -0.15692746879E+02  0.23597427848E+02 -0.23509120128E+02  0.36820913009E+02  0.00000000000E+00 0.  1.
         11    1    4    4    0    0 -0.47143826361E+01 -0.23317121579E+02  0.13990970132E+02  0.27598202983E+02  0.51100000000E-03 0. -1.
        -11    1    4    4    0    0  0.10230857813E+02  0.56722509627E+01  0.93545005223E+01  0.14978369833E+02  0.51100000000E-03 0.  1.
         12    1    4    4    0    0  0.10176271703E+02 -0.59525572309E+01  0.16364947335E+00  0.11790514175E+02  0.00000000000E+00 0. -1.
</event>
<event>
 8    1  0.2472977E-006  0.9118800E+02  0.7816164E-02  0.1184000E+00
        -11   -1    0    0    0    0  0.00000000000E+00  0.00000000000E+00  0.45593999997E+02  0.45594000000E+02  0.51100000000E-03 0.  1.
         11   -1    0    0    0    0 -0.00000000000E+00 -0.00000000000E+00 -0.45593999997E+02  0.45594000000E+02  0.51100000000E-03 0. -1.
         23    2    1    2    0    0 -0.35527136788E-14  0.00000000000E+00 -0.35527136788E-14  0.91188000000E+02  0.91188000000E+02 0.  0.
    9900012    2    3    3    0    0  0.28103592754E+02 -0.51783252499E+01  0.23219677201E+02  0.54367076771E+02  0.39999983115E+02 0.  0.
         12    1    3    3    0    0 -0.28103592754E+02  0.51783252499E+01 -0.23219677201E+02  0.36820923229E+02  0.00000000000E+00 0. -1.
         11    1    4    4    0    0  0.33892268450E+02  0.50492031720E+01  0.19324741564E+02  0.39339877353E+02  0.51100000000E-03 0.  1.
        -11    1    4    4    0    0 -0.13526834542E+01  0.28740654089E+00  0.33244413443E+01  0.36005923901E+01  0.51100000000E-03 0. -1.
         12    1    4    4    0    0 -0.44359922415E+01 -0.10514934963E+02  0.57049429296E+00  0.11426607028E+02  0.00000000000E+00 0. -1.
</event>
<event>
 8    1  0.2472977E-006  0.9118800E+02  0.7816164E-02  0.1184000E+00
        -11   -1    0    0    0    0  0.00000000000E+00  0.00000000000E+00  0.45593999997E+02  0.45594000000E+02  0.51100000000E-03 0.  1.
         11   -1    0    0    0    0 -0.00000000000E+00 -0.00000000000E+00 -0.45593999997E+02  0.45594000000E+02  0.51100000000E-03 0. -1.
         23    2    1    2    0    0  0.00000000000E+00  0.35527136788E-14 -0.35527136788E-14  0.91188000000E+02  0.91188000000E+02 0.  0.
    9900012    2    3    3    0    0  0.11311611981E+02  0.18735842921E+02 -0.29610740709E+02  0.54367077402E+02  0.39999984554E+02 0.  0.
        -12    1    3    3    0    0 -0.11311611981E+02 -0.18735842921E+02  0.29610740709E+02  0.36820922598E+02  0.00000000000E+00 0.  1.
         11    1    4    4    0    0  0.39164892141E+01  0.24462236952E+02 -0.14039742276E+02  0.28475503295E+02  0.51100000000E-03 0. -1.
        -11    1    4    4    0    0  0.96231915660E+01 -0.76237775560E+01 -0.18202573476E+02  0.21955898559E+02  0.51100000000E-03 0.  1.
        -12    1    4    4    0    0 -0.22280687990E+01  0.18973835249E+01  0.26315750424E+01  0.39356755478E+01  0.00000000000E+00 0.  1.
</event>
<event>
 8    1  0.2472977E-006  0.9118800E+02  0.7816164E-02  0.1184000E+00
        -11   -1    0    0    0    0  0.00000000000E+00  0.00000000000E+00  0.45593999997E+02  0.45594000000E+02  0.51100000000E-03 0. -1.
         11   -1    0    0    0    0 -0.00000000000E+00 -0.00000000000E+00 -0.45593999997E+02  0.45594000000E+02  0.51100000000E-03 0.  1.
         23    2    1    2    0    0  0.00000000000E+00 -0.17763568394E-14  0.00000000000E+00  0.91188000000E+02  0.91188000000E+02 0.  0.
    9900012    2    3    3    0    0 -0.45733789916E+01 -0.10439448278E+02  0.35012433702E+02  0.54367239694E+02  0.40000354530E+02 0.  0.
        -12    1    3    3    0    0  0.45733789916E+01  0.10439448278E+02 -0.35012433702E+02  0.36820760306E+02  0.00000000000E+00 0.  1.
         11    1    4    4    0    0  0.64855513309E+01  0.38701613261E+01  0.63809908898E+01  0.98872427781E+01  0.51100000000E-03 0. -1.
        -11    1    4    4    0    0 -0.12131885589E+02 -0.23786618474E+01 -0.11140686880E+01  0.12412970210E+02  0.51100000000E-03 0.  1.
         12    1    4    4    0    0  0.10729552666E+01 -0.11930947757E+02  0.29745511500E+02  0.32067026706E+02  0.00000000000E+00 0. -1.
</event>
<event>
 8    1  0.2472977E-006  0.9118800E+02  0.7816164E-02  0.1184000E+00
        -11   -1    0    0    0    0  0.00000000000E+00  0.00000000000E+00  0.45593999997E+02  0.45594000000E+02  0.51100000000E-03 0.  1.
         11   -1    0    0    0    0 -0.00000000000E+00 -0.00000000000E+00 -0.45593999997E+02  0.45594000000E+02  0.51100000000E-03 0. -1.
         23    2    1    2    0    0  0.00000000000E+00 -0.35527136788E-14  0.00000000000E+00  0.91188000000E+02  0.91188000000E+02 0.  0.
    9900012    2    3    3    0    0 -0.30207110198E+02  0.20027429146E+02 -0.64972641336E+01  0.54367056695E+02  0.39999937347E+02 0.  0.
        -12    1    3    3    0    0  0.30207110198E+02 -0.20027429146E+02  0.64972641336E+01  0.36820943305E+02  0.00000000000E+00 0.  1.
         11    1    4    4    0    0 -0.14694751974E+02 -0.47045887282E+01 -0.15335603626E+02  0.21754301403E+02  0.51100000000E-03 0. -1.
        -11    1    4    4    0    0  0.74021379865E+00  0.14190444768E+01  0.32879362520E+01  0.36567921397E+01  0.51100000000E-03 0.  1.
        -12    1    4    4    0    0 -0.16252572022E+02  0.23312973397E+02  0.55504032401E+01  0.28955963152E+02  0.00000000000E+00 0.  1.
</event>
<event>
 8    1  0.2472977E-006  0.9118800E+02  0.7816164E-02  0.1184000E+00
        -11   -1    0    0    0    0  0.00000000000E+00  0.00000000000E+00  0.45593999997E+02  0.45594000000E+02  0.51100000000E-03 0.  1.
         11   -1    0    0    0    0 -0.00000000000E+00 -0.00000000000E+00 -0.45593999997E+02  0.45594000000E+02  0.51100000000E-03 0. -1.
         23    2    1    2    0    0  0.35527136788E-14  0.00000000000E+00  0.00000000000E+00  0.91188000000E+02  0.91188000000E+02 0.  0.
    9900012    2    3    3    0    0 -0.18583810765E+02 -0.20569213753E+02 -0.24234867721E+02  0.54367090310E+02  0.40000013979E+02 0.  0.
        -12    1    3    3    0    0  0.18583810765E+02  0.20569213753E+02  0.24234867721E+02  0.36820909690E+02  0.00000000000E+00 0.  1.
         11    1    4    4    0    0  0.20985784609E+01 -0.52872197162E+01 -0.85610511348E+01  0.10278634184E+02  0.51100000000E-03 0.  1.
        -11    1    4    4    0    0 -0.12947542571E+02 -0.74085242749E+01  0.87446372715E+01  0.17291436372E+02  0.51100000000E-03 0. -1.
         12    1    4    4    0    0 -0.77348466549E+01 -0.78734697624E+01 -0.24418453858E+02  0.26797019754E+02  0.00000000000E+00 0. -1.
</event>
<event>
 8    1  0.2472977E-006  0.9118800E+02  0.7816164E-02  0.1184000E+00
        -11   -1    0    0    0    0  0.00000000000E+00  0.00000000000E+00  0.45593999997E+02  0.45594000000E+02  0.51100000000E-03 0. -1.
         11   -1    0    0    0    0 -0.00000000000E+00 -0.00000000000E+00 -0.45593999997E+02  0.45594000000E+02  0.51100000000E-03 0.  1.
         23    2    1    2    0    0  0.35527136788E-14  0.00000000000E+00 -0.17763568394E-14  0.91188000000E+02  0.91188000000E+02 0.  0.
    9900012    2    3    3    0    0  0.30831181532E+02 -0.18920212535E+02  0.68736339744E+01  0.54367040737E+02  0.39999900967E+02 0.  0.
        -12    1    3    3    0    0 -0.30831181532E+02  0.18920212535E+02 -0.68736339744E+01  0.36820959263E+02  0.00000000000E+00 0.  1.
         11    1    4    4    0    0  0.16243248343E+02 -0.10142731908E+02  0.16306027242E+02  0.25151633187E+02  0.51100000000E-03 0. -1.
        -11    1    4    4    0    0  0.11491736919E+02  0.97166269313E+00  0.41106956952E+01  0.12243445804E+02  0.51100000000E-03 0.  1.
        -12    1    4    4    0    0  0.30961962707E+01 -0.97491433205E+01 -0.13543088963E+02  0.16971961746E+02  0.00000000000E+00 0.  1.
</event>
<event>
 8    1  0.2472977E-006  0.9118800E+02  0.7816164E-02  0.1184000E+00
        -11   -1    0    0    0    0  0.00000000000E+00  0.00000000000E+00  0.45593999997E+02  0.45594000000E+02  0.51100000000E-03 0.  1.
         11   -1    0    0    0    0 -0.00000000000E+00 -0.00000000000E+00 -0.45593999997E+02  0.45594000000E+02  0.51100000000E-03 0. -1.
         23    2    1    2    0    0  0.00000000000E+00  0.00000000000E+00  0.17763568394E-14  0.91188000000E+02  0.91188000000E+02 0.  0.
    9900012    2    3    3    0    0  0.41859635476E+01 -0.35841231236E+02  0.73255941896E+01  0.54367075547E+02  0.39999980325E+02 0.  0.
        -12    1    3    3    0    0 -0.41859635476E+01  0.35841231236E+02 -0.73255941896E+01  0.36820924453E+02  0.00000000000E+00 0.  1.
         11    1    4    4    0    0 -0.10901184764E+02 -0.12877383336E+02 -0.63263708897E+00  0.16883810612E+02  0.51100000000E-03 0. -1.
        -11    1    4    4    0    0  0.18459933813E+02 -0.25586738824E+02  0.42689269572E+01  0.31838248973E+02  0.51100000000E-03 0.  1.
        -12    1    4    4    0    0 -0.33727855020E+01  0.26228909236E+01  0.36893043214E+01  0.56450159624E+01  0.00000000000E+00 0.  1.
</event>
<event>
 8    1  0.2472977E-006  0.9118800E+02  0.7816164E-02  0.1184000E+00
        -11   -1    0    0    0    0  0.00000000000E+00  0.00000000000E+00  0.45593999997E+02  0.45594000000E+02  0.51100000000E-03 0.  1.
         11   -1    0    0    0    0 -0.00000000000E+00 -0.00000000000E+00 -0.45593999997E+02  0.45594000000E+02  0.51100000000E-03 0. -1.
         23    2    1    2    0    0  0.00000000000E+00 -0.17763568394E-14  0.00000000000E+00  0.91188000000E+02  0.91188000000E+02 0.  0.
    9900012    2    3    3    0    0 -0.81030057033E+01 -0.13766074658E+02 -0.33175543565E+02  0.54367079265E+02  0.39999988801E+02 0.  0.
        -12    1    3    3    0    0  0.81030057033E+01  0.13766074658E+02  0.33175543565E+02  0.36820920735E+02  0.00000000000E+00 0.  1.
         11    1    4    4    0    0 -0.20941299599E+02  0.52600457041E+00 -0.15658477059E+02  0.26153443631E+02  0.51100000000E-03 0. -1.
        -11    1    4    4    0    0  0.32993766035E+01  0.16095782490E+00  0.36194390553E+00  0.33230704243E+01  0.51100000000E-03 0.  1.
         12    1    4    4    0    0  0.95389172919E+01 -0.14453037053E+02 -0.17879010411E+02  0.24890565210E+02  0.00000000000E+00 0. -1.
</event>
<event>
 8    1  0.2472977E-006  0.9118800E+02  0.7816164E-02  0.1184000E+00
        -11   -1    0    0    0    0  0.00000000000E+00  0.00000000000E+00  0.45593999997E+02  0.45594000000E+02  0.51100000000E-03 0.  1.
         11   -1    0    0    0    0 -0.00000000000E+00 -0.00000000000E+00 -0.45593999997E+02  0.45594000000E+02  0.51100000000E-03 0. -1.
         23    2    1    2    0    0 -0.35527136788E-14  0.00000000000E+00  0.00000000000E+00  0.91188000000E+02  0.91188000000E+02 0.  0.
    9900012    2    3    3    0    0 -0.23580342487E+02 -0.23421445880E+02 -0.15848768146E+02  0.54367080258E+02  0.39999991064E+02 0.  0.
        -12    1    3    3    0    0  0.23580342487E+02  0.23421445880E+02  0.15848768146E+02  0.36820919742E+02  0.00000000000E+00 0.  1.
         11    1    4    4    0    0 -0.24520305962E+02 -0.64787339099E+01 -0.57642917518E+01  0.26008584299E+02  0.51100000000E-03 0. -1.
        -11    1    4    4    0    0  0.53225160969E+01  0.12415114856E+01 -0.77862502969E+01  0.95129502425E+01  0.51100000000E-03 0.  1.
        -12    1    4    4    0    0 -0.43825526218E+01 -0.18184223455E+02 -0.22982260971E+01  0.18845545717E+02  0.00000000000E+00 0.  1.
</event>
<event>
 8    1  0.2472977E-006  0.9118800E+02  0.7816164E-02  0.1184000E+00
        -11   -1    0    0    0    0  0.00000000000E+00  0.00000000000E+00  0.45593999997E+02  0.45594000000E+02  0.51100000000E-03 0.  1.
         11   -1    0    0    0    0 -0.00000000000E+00 -0.00000000000E+00 -0.45593999997E+02  0.45594000000E+02  0.51100000000E-03 0. -1.
         23    2    1    2    0    0  0.00000000000E+00 -0.35527136788E-14  0.17763568394E-14  0.91188000000E+02  0.91188000000E+02 0.  0.
    9900012    2    3    3    0    0 -0.18912985012E+02 -0.30554281572E+02  0.80319965178E+01  0.54367107934E+02  0.40000054158E+02 0.  0.
         12    1    3    3    0    0  0.18912985012E+02  0.30554281572E+02 -0.80319965178E+01  0.36820892066E+02  0.00000000000E+00 0. -1.
         11    1    4    4    0    0  0.89647007819E-01 -0.73907839384E+01 -0.80781136330E+01  0.10949321620E+02  0.51100000000E-03 0. -1.
        -11    1    4    4    0    0 -0.18384345976E+00  0.54679338366E+01  0.49658625582E+01  0.73886324897E+01  0.51100000000E-03 0.  1.
        -12    1    4    4    0    0 -0.18818788560E+02 -0.28631431470E+02  0.11144247593E+02  0.36029153825E+02  0.00000000000E+00 0.  1.
</event>
<event>
 8    1  0.2472977E-006  0.9118800E+02  0.7816164E-02  0.1184000E+00
        -11   -1    0    0    0    0  0.00000000000E+00  0.00000000000E+00  0.45593999997E+02  0.45594000000E+02  0.51100000000E-03 0.  1.
         11   -1    0    0    0    0 -0.00000000000E+00 -0.00000000000E+00 -0.45593999997E+02  0.45594000000E+02  0.51100000000E-03 0. -1.
         23    2    1    2    0    0  0.00000000000E+00  0.00000000000E+00 -0.17763568394E-14  0.91188000000E+02  0.91188000000E+02 0.  0.
    9900012    2    3    3    0    0 -0.33225568258E+02  0.79238066778E+01  0.13749700449E+02  0.54367090712E+02  0.40000014897E+02 0.  0.
         12    1    3    3    0    0  0.33225568258E+02 -0.79238066778E+01 -0.13749700449E+02  0.36820909288E+02  0.00000000000E+00 0. -1.
         11    1    4    4    0    0  0.73545289115E+01  0.20561488934E+01  0.13629728014E+01  0.77572249485E+01  0.51100000000E-03 0. -1.
        -11    1    4    4    0    0 -0.23124861030E+02  0.46872072332E+01 -0.23813872598E+01  0.23714976594E+02  0.51100000000E-03 0.  1.
        -12    1    4    4    0    0 -0.17455236140E+02  0.11804505512E+01  0.14768114907E+02  0.22894889170E+02  0.00000000000E+00 0.  1.
</event>
<event>
 8    1  0.2472977E-006  0.9118800E+02  0.7816164E-02  0.1184000E+00
        -11   -1    0    0    0    0  0.00000000000E+00  0.00000000000E+00  0.45593999997E+02  0.45594000000E+02  0.51100000000E-03 0. -1.
         11   -1    0    0    0    0 -0.00000000000E+00 -0.00000000000E+00 -0.45593999997E+02  0.45594000000E+02  0.51100000000E-03 0.  1.
         23    2    1    2    0    0 -0.17763568394E-14 -0.35527136788E-14 -0.35527136788E-14  0.91188000000E+02  0.91188000000E+02 0.  0.
    9900012    2    3    3    0    0  0.13033785779E+02 -0.31078287485E+02 -0.14833640515E+02  0.54367130705E+02  0.40000106067E+02 0.  0.
         12    1    3    3    0    0 -0.13033785779E+02  0.31078287485E+02  0.14833640515E+02  0.36820869295E+02  0.00000000000E+00 0. -1.
         11    1    4    4    0    0 -0.69393622709E+01 -0.81742866836E+01 -0.54291107591E+01  0.12018691917E+02  0.51100000000E-03 0. -1.
        -11    1    4    4    0    0  0.14047147352E+02 -0.18301082783E+02 -0.19196084592E+02  0.30012358183E+02  0.51100000000E-03 0.  1.
         12    1    4    4    0    0  0.59260006979E+01 -0.46029180181E+01  0.97915548364E+01  0.12336080604E+02  0.00000000000E+00 0. -1.
</event>
<event>
 8    1  0.2472977E-006  0.9118800E+02  0.7816164E-02  0.1184000E+00
        -11   -1    0    0    0    0  0.00000000000E+00  0.00000000000E+00  0.45593999997E+02  0.45594000000E+02  0.51100000000E-03 0. -1.
         11   -1    0    0    0    0 -0.00000000000E+00 -0.00000000000E+00 -0.45593999997E+02  0.45594000000E+02  0.51100000000E-03 0.  1.
         23    2    1    2    0    0  0.00000000000E+00  0.00000000000E+00  0.00000000000E+00  0.91188000000E+02  0.91188000000E+02 0.  0.
    9900012    2    3    3    0    0 -0.23721962442E+02  0.25968178628E+02 -0.10895043731E+02  0.54367085003E+02  0.40000001881E+02 0.  0.
         12    1    3    3    0    0  0.23721962442E+02 -0.25968178628E+02  0.10895043731E+02  0.36820914997E+02  0.00000000000E+00 0. -1.
         11    1    4    4    0    0 -0.52944592254E+01  0.13358295696E+02 -0.31772394813E+01  0.14716324723E+02  0.51100000000E-03 0. -1.
        -11    1    4    4    0    0 -0.23595291667E+02  0.11753416456E+02 -0.15266786508E+02  0.30462359688E+02  0.51100000000E-03 0.  1.
        -12    1    4    4    0    0  0.51677884506E+01  0.85646647627E+00  0.75489822580E+01  0.91884005914E+01  0.00000000000E+00 0.  1.
</event>
<event>
 8    1  0.2472977E-006  0.9118800E+02  0.7816164E-02  0.1184000E+00
        -11   -1    0    0    0    0  0.00000000000E+00  0.00000000000E+00  0.45593999997E+02  0.45594000000E+02  0.51100000000E-03 0. -1.
         11   -1    0    0    0    0 -0.00000000000E+00 -0.00000000000E+00 -0.45593999997E+02  0.45594000000E+02  0.51100000000E-03 0.  1.
         23    2    1    2    0    0  0.00000000000E+00 -0.35527136788E-14  0.35527136788E-14  0.91188000000E+02  0.91188000000E+02 0.  0.
    9900012    2    3    3    0    0 -0.23244867910E+02  0.22849141206E+02 -0.17128127676E+02  0.54367083448E+02  0.39999998337E+02 0.  0.
        -12    1    3    3    0    0  0.23244867910E+02 -0.22849141206E+02  0.17128127676E+02  0.36820916552E+02  0.00000000000E+00 0.  1.
         11    1    4    4    0    0 -0.12609355383E+02  0.57980704363E+01 -0.58657316334E+01  0.15067191902E+02  0.51100000000E-03 0. -1.
        -11    1    4    4    0    0  0.38348406930E+01  0.19846871445E+02 -0.13620280902E+02  0.24374502280E+02  0.51100000000E-03 0.  1.
         12    1    4    4    0    0 -0.14470353220E+02 -0.27958006752E+01  0.23578848596E+01  0.14925389266E+02  0.00000000000E+00 0. -1.
</event>
<event>
 8    1  0.2472977E-006  0.9118800E+02  0.7816164E-02  0.1184000E+00
        -11   -1    0    0    0    0  0.00000000000E+00  0.00000000000E+00  0.45593999997E+02  0.45594000000E+02  0.51100000000E-03 0. -1.
         11   -1    0    0    0    0 -0.00000000000E+00 -0.00000000000E+00 -0.45593999997E+02  0.45594000000E+02  0.51100000000E-03 0.  1.
         23    2    1    2    0    0 -0.17763568394E-14 -0.71054273576E-14  0.88817841970E-15  0.91188000000E+02  0.91188000000E+02 0.  0.
    9900012    2    3    3    0    0  0.15185523330E+02 -0.32749420252E+02 -0.72563500114E+01  0.54367092065E+02  0.40000017981E+02 0.  0.
         12    1    3    3    0    0 -0.15185523330E+02  0.32749420252E+02  0.72563500114E+01  0.36820907935E+02  0.00000000000E+00 0. -1.
         11    1    4    4    0    0  0.13883966658E+01  0.62190067744E+01 -0.54798144446E+01  0.84042880227E+01  0.51100000000E-03 0. -1.
        -11    1    4    4    0    0  0.10864968483E+02 -0.10563574794E+02 -0.73912999032E+01  0.16860248132E+02  0.51100000000E-03 0.  1.
         12    1    4    4    0    0  0.29321581812E+01 -0.28404852233E+02  0.56147643364E+01  0.29102555910E+02  0.00000000000E+00 0. -1.
</event>
<event>
 8    1  0.2472977E-006  0.9118800E+02  0.7816164E-02  0.1184000E+00
        -11   -1    0    0    0    0  0.00000000000E+00  0.00000000000E+00  0.45593999997E+02  0.45594000000E+02  0.51100000000E-03 0. -1.
         11   -1    0    0    0    0 -0.00000000000E+00 -0.00000000000E+00 -0.45593999997E+02  0.45594000000E+02  0.51100000000E-03 0.  1.
         23    2    1    2    0    0 -0.35527136788E-14  0.00000000000E+00  0.00000000000E+00  0.91188000000E+02  0.91188000000E+02 0.  0.
    9900012    2    3    3    0    0  0.16558252546E+02 -0.32681696315E+02 -0.36757473870E+01  0.54367080399E+02  0.39999991387E+02 0.  0.
        -12    1    3    3    0    0 -0.16558252546E+02  0.32681696315E+02  0.36757473870E+01  0.36820919601E+02  0.00000000000E+00 0.  1.
         11    1    4    4    0    0  0.10861367801E+02 -0.10312824207E+02 -0.58643770353E+01  0.16084606676E+02  0.51100000000E-03 0. -1.
        -11    1    4    4    0    0  0.17976071239E+02 -0.15903439572E+02  0.38427997000E+01  0.24306905135E+02  0.51100000000E-03 0.  1.
        -12    1    4    4    0    0 -0.12279186494E+02 -0.64654325348E+01 -0.16541700518E+01  0.13975568589E+02  0.00000000000E+00 0.  1.
</event>
<event>
 8    1  0.2472977E-006  0.9118800E+02  0.7816164E-02  0.1184000E+00
        -11   -1    0    0    0    0  0.00000000000E+00  0.00000000000E+00  0.45593999997E+02  0.45594000000E+02  0.51100000000E-03 0.  1.
         11   -1    0    0    0    0 -0.00000000000E+00 -0.00000000000E+00 -0.45593999997E+02  0.45594000000E+02  0.51100000000E-03 0. -1.
         23    2    1    2    0    0  0.00000000000E+00  0.00000000000E+00 -0.17763568394E-14  0.91188000000E+02  0.91188000000E+02 0.  0.
    9900012    2    3    3    0    0 -0.31244565492E+02  0.11795843201E+02 -0.15505072888E+02  0.54367189650E+02  0.40000240444E+02 0.  0.
        -12    1    3    3    0    0  0.31244565492E+02 -0.11795843201E+02  0.15505072888E+02  0.36820810350E+02  0.00000000000E+00 0.  1.
         11    1    4    4    0    0 -0.88498019143E+00  0.11718338720E+02  0.21779384727E+01  0.11951822813E+02  0.51100000000E-03 0. -1.
        -11    1    4    4    0    0 -0.19629583845E+02 -0.32077715728E+00  0.22636864654E+01  0.19762280653E+02  0.51100000000E-03 0.  1.
         12    1    4    4    0    0 -0.10730001455E+02  0.39828163772E+00 -0.19946697826E+02  0.22653086184E+02  0.00000000000E+00 0. -1.
</event>
<event>
 8    1  0.2472977E-006  0.9118800E+02  0.7816164E-02  0.1184000E+00
        -11   -1    0    0    0    0  0.00000000000E+00  0.00000000000E+00  0.45593999997E+02  0.45594000000E+02  0.51100000000E-03 0. -1.
         11   -1    0    0    0    0 -0.00000000000E+00 -0.00000000000E+00 -0.45593999997E+02  0.45594000000E+02  0.51100000000E-03 0.  1.
         23    2    1    2    0    0  0.17763568394E-14  0.00000000000E+00  0.00000000000E+00  0.91188000000E+02  0.91188000000E+02 0.  0.
    9900012    2    3    3    0    0 -0.10490105757E+02 -0.17744843728E+02 -0.30509949161E+02  0.54367098388E+02  0.40000032395E+02 0.  0.
         12    1    3    3    0    0  0.10490105757E+02  0.17744843728E+02  0.30509949161E+02  0.36820901612E+02  0.00000000000E+00 0. -1.
         11    1    4    4    0    0 -0.54887384721E+01 -0.37194282594E+01 -0.20591727715E+01  0.69426644277E+01  0.51100000000E-03 0. -1.
        -11    1    4    4    0    0 -0.17363003430E+02  0.21108347829E+01 -0.15080098262E+02  0.23094130757E+02  0.51100000000E-03 0.  1.
         12    1    4    4    0    0  0.12361636145E+02 -0.16136250251E+02 -0.13370678128E+02  0.24330303203E+02  0.00000000000E+00 0. -1.
</event>
<event>
 8    1  0.2472977E-006  0.9118800E+02  0.7816164E-02  0.1184000E+00
        -11   -1    0    0    0    0  0.00000000000E+00  0.00000000000E+00  0.45593999997E+02  0.45594000000E+02  0.51100000000E-03 0.  1.
         11   -1    0    0    0    0 -0.00000000000E+00 -0.00000000000E+00 -0.45593999997E+02  0.45594000000E+02  0.51100000000E-03 0. -1.
         23    2    1    2    0    0  0.00000000000E+00 -0.17763568394E-14 -0.71054273576E-14  0.91188000000E+02  0.91188000000E+02 0.  0.
    9900012    2    3    3    0    0 -0.12755003634E+02 -0.21686322676E+01  0.34472945179E+02  0.54367122323E+02  0.40000086959E+02 0.  0.
         12    1    3    3    0    0  0.12755003634E+02  0.21686322676E+01 -0.34472945179E+02  0.36820877677E+02  0.00000000000E+00 0. -1.
         11    1    4    4    0    0 -0.45409489531E+01  0.10021990406E+02  0.12929084203E+01  0.11078453030E+02  0.51100000000E-03 0. -1.
        -11    1    4    4    0    0 -0.81260798931E+01  0.55735168909E+01  0.95138408764E+01  0.13697095803E+02  0.51100000000E-03 0.  1.
        -12    1    4    4    0    0 -0.87974787424E-01 -0.17764139565E+02  0.23666195882E+02  0.29591573489E+02  0.00000000000E+00 0.  1.
</event>
<event>
 8    1  0.2472977E-006  0.9118800E+02  0.7816164E-02  0.1184000E+00
        -11   -1    0    0    0    0  0.00000000000E+00  0.00000000000E+00  0.45593999997E+02  0.45594000000E+02  0.51100000000E-03 0.  1.
         11   -1    0    0    0    0 -0.00000000000E+00 -0.00000000000E+00 -0.45593999997E+02  0.45594000000E+02  0.51100000000E-03 0. -1.
         23    2    1    2    0    0  0.35527136788E-14  0.00000000000E+00  0.00000000000E+00  0.91188000000E+02  0.91188000000E+02 0.  0.
    9900012    2    3    3    0    0 -0.21247281113E+02  0.17678991550E+02  0.24326645216E+02  0.54367090663E+02  0.40000014785E+02 0.  0.
         12    1    3    3    0    0  0.21247281113E+02 -0.17678991550E+02 -0.24326645216E+02  0.36820909337E+02  0.00000000000E+00 0. -1.
         11    1    4    4    0    0 -0.21332729575E+01  0.12324210564E+02  0.57950504844E+01  0.13784760785E+02  0.51100000000E-03 0.  1.
        -11    1    4    4    0    0 -0.31476263167E+01 -0.68528428151E+01 -0.54410352850E+01  0.92991328258E+01  0.51100000000E-03 0. -1.
         12    1    4    4    0    0 -0.15966381838E+02  0.12207623801E+02  0.23972630017E+02  0.31283197052E+02  0.00000000000E+00 0. -1.
</event>
<event>
 8    1  0.2472977E-006  0.9118800E+02  0.7816164E-02  0.1184000E+00
        -11   -1    0    0    0    0  0.00000000000E+00  0.00000000000E+00  0.45593999997E+02  0.45594000000E+02  0.51100000000E-03 0. -1.
         11   -1    0    0    0    0 -0.00000000000E+00 -0.00000000000E+00 -0.45593999997E+02  0.45594000000E+02  0.51100000000E-03 0.  1.
         23    2    1    2    0    0  0.00000000000E+00  0.35527136788E-14  0.00000000000E+00  0.91188000000E+02  0.91188000000E+02 0.  0.
    9900012    2    3    3    0    0  0.53109974909E+01 -0.21852641425E+02 -0.29155359188E+02  0.54367087451E+02  0.40000007461E+02 0.  0.
         12    1    3    3    0    0 -0.53109974909E+01  0.21852641425E+02  0.29155359188E+02  0.36820912549E+02  0.00000000000E+00 0. -1.
         11    1    4    4    0    0  0.68208529581E+01  0.68093665812E+01 -0.14999719498E+02  0.17829276306E+02  0.51100000000E-03 0. -1.
        -11    1    4    4    0    0 -0.18009100890E+01 -0.39390796853E+01 -0.10737326700E+02  0.11577988204E+02  0.51100000000E-03 0.  1.
         12    1    4    4    0    0  0.29105462173E+00 -0.24722928321E+02 -0.34183129895E+01  0.24959822941E+02  0.00000000000E+00 0. -1.
</event>
<event>
 8    1  0.2472977E-006  0.9118800E+02  0.7816164E-02  0.1184000E+00
        -11   -1    0    0    0    0  0.00000000000E+00  0.00000000000E+00  0.45593999997E+02  0.45594000000E+02  0.51100000000E-03 0.  1.
         11   -1    0    0    0    0 -0.00000000000E+00 -0.00000000000E+00 -0.45593999997E+02  0.45594000000E+02  0.51100000000E-03 0. -1.
         23    2    1    2    0    0  0.00000000000E+00  0.35527136788E-14  0.00000000000E+00  0.91188000000E+02  0.91188000000E+02 0.  0.
    9900012    2    3    3    0    0 -0.34322951069E+01 -0.29925796463E+02 -0.21176578964E+02  0.54367062475E+02  0.39999950524E+02 0.  0.
        -12    1    3    3    0    0  0.34322951069E+01  0.29925796463E+02  0.21176578964E+02  0.36820937525E+02  0.00000000000E+00 0.  1.
         11    1    4    4    0    0  0.16910729865E+01 -0.16529914495E+01 -0.12869706287E+02  0.13085161396E+02  0.51100000000E-03 0. -1.
        -11    1    4    4    0    0  0.12144312499E+01 -0.23985990919E+02  0.62675812678E+01  0.24821063209E+02  0.51100000000E-03 0.  1.
        -12    1    4    4    0    0 -0.63377993433E+01 -0.42868140940E+01 -0.14574453944E+02  0.16460837869E+02  0.00000000000E+00 0.  1.
</event>
<event>
 8    1  0.2472977E-006  0.9118800E+02  0.7816164E-02  0.1184000E+00
        -11   -1    0    0    0    0  0.00000000000E+00  0.00000000000E+00  0.45593999997E+02  0.45594000000E+02  0.51100000000E-03 0. -1.
         11   -1    0    0    0    0 -0.00000000000E+00 -0.00000000000E+00 -0.45593999997E+02  0.45594000000E+02  0.51100000000E-03 0.  1.
         23    2    1    2    0    0  0.00000000000E+00 -0.35527136788E-14 -0.17763568394E-14  0.91188000000E+02  0.91188000000E+02 0.  0.
    9900012    2    3    3    0    0 -0.13788070058E+02  0.31501414838E+02  0.13165513587E+02  0.54367071701E+02  0.39999971557E+02 0.  0.
         12    1    3    3    0    0  0.13788070058E+02 -0.31501414838E+02 -0.13165513587E+02  0.36820928299E+02  0.00000000000E+00 0. -1.
         11    1    4    4    0    0 -0.72014730105E+01  0.30043507989E+02  0.12635499620E+02  0.33378577512E+02  0.51100000000E-03 0. -1.
        -11    1    4    4    0    0 -0.98497218762E+01 -0.61110328975E+01  0.36847286287E+01  0.12163016461E+02  0.51100000000E-03 0.  1.
         12    1    4    4    0    0  0.32631248282E+01  0.75689397468E+01 -0.31547146609E+01  0.88254777280E+01  0.00000000000E+00 0. -1.
</event>
<event>
 8    1  0.2472977E-006  0.9118800E+02  0.7816164E-02  0.1184000E+00
        -11   -1    0    0    0    0  0.00000000000E+00  0.00000000000E+00  0.45593999997E+02  0.45594000000E+02  0.51100000000E-03 0.  1.
         11   -1    0    0    0    0 -0.00000000000E+00 -0.00000000000E+00 -0.45593999997E+02  0.45594000000E+02  0.51100000000E-03 0. -1.
         23    2    1    2    0    0  0.35527136788E-14 -0.35527136788E-14  0.35527136788E-14  0.91188000000E+02  0.91188000000E+02 0.  0.
    9900012    2    3    3    0    0  0.22860443985E+02 -0.23589450190E+02 -0.16634794695E+02  0.54367103025E+02  0.40000042966E+02 0.  0.
        -12    1    3    3    0    0 -0.22860443985E+02  0.23589450190E+02  0.16634794695E+02  0.36820896975E+02  0.00000000000E+00 0.  1.
         11    1    4    4    0    0  0.12602056013E+02 -0.13067646613E+02 -0.28572490010E+02  0.33852066250E+02  0.51100000000E-03 0. -1.
        -11    1    4    4    0    0 -0.10242090268E+01 -0.15851685385E+01  0.11842178659E+00  0.18909752528E+01  0.51100000000E-03 0.  1.
        -12    1    4    4    0    0  0.11282596999E+02 -0.89366350388E+01  0.11819273528E+02  0.18624061523E+02  0.00000000000E+00 0.  1.
</event>
<event>
 8    1  0.2472977E-006  0.9118800E+02  0.7816164E-02  0.1184000E+00
        -11   -1    0    0    0    0  0.00000000000E+00  0.00000000000E+00  0.45593999997E+02  0.45594000000E+02  0.51100000000E-03 0.  1.
         11   -1    0    0    0    0 -0.00000000000E+00 -0.00000000000E+00 -0.45593999997E+02  0.45594000000E+02  0.51100000000E-03 0. -1.
         23    2    1    2    0    0 -0.17763568394E-14  0.00000000000E+00  0.71054273576E-14  0.91188000000E+02  0.91188000000E+02 0.  0.
    9900012    2    3    3    0    0  0.13383830314E+02  0.63150603680E+00 -0.34296558660E+02  0.54367086790E+02  0.40000005954E+02 0.  0.
        -12    1    3    3    0    0 -0.13383830314E+02 -0.63150603680E+00  0.34296558660E+02  0.36820913210E+02  0.00000000000E+00 0.  1.
         11    1    4    4    0    0  0.16089596378E+02  0.80147055380E+01 -0.21302210311E+02  0.27872832308E+02  0.51100000000E-03 0. -1.
        -11    1    4    4    0    0  0.28617403455E+01  0.65627676721E+01 -0.78419945990E+01  0.10618679620E+02  0.51100000000E-03 0.  1.
         12    1    4    4    0    0 -0.55675064100E+01 -0.13945967173E+02 -0.51523537498E+01  0.15875574862E+02  0.00000000000E+00 0. -1.
</event>
<event>
 8    1  0.2472977E-006  0.9118800E+02  0.7816164E-02  0.1184000E+00
        -11   -1    0    0    0    0  0.00000000000E+00  0.00000000000E+00  0.45593999997E+02  0.45594000000E+02  0.51100000000E-03 0.  1.
         11   -1    0    0    0    0 -0.00000000000E+00 -0.00000000000E+00 -0.45593999997E+02  0.45594000000E+02  0.51100000000E-03 0. -1.
         23    2    1    2    0    0  0.00000000000E+00  0.00000000000E+00  0.00000000000E+00  0.91188000000E+02  0.91188000000E+02 0.  0.
    9900012    2    3    3    0    0  0.55687781608E+01 -0.27151263486E+02 -0.24239999956E+02  0.54367082073E+02  0.39999995202E+02 0.  0.
        -12    1    3    3    0    0 -0.55687781608E+01  0.27151263486E+02  0.24239999956E+02  0.36820917927E+02  0.00000000000E+00 0.  1.
         11    1    4    4    0    0 -0.13682300769E+02 -0.78044118000E+01  0.12214892594E+01  0.15798931425E+02  0.51100000000E-03 0. -1.
        -11    1    4    4    0    0  0.73296885506E+01 -0.59288445914E+01 -0.31643019840E+01  0.99442616490E+01  0.51100000000E-03 0.  1.
         12    1    4    4    0    0  0.11921390380E+02 -0.13418007095E+02 -0.22297187232E+02  0.28623888999E+02  0.00000000000E+00 0. -1.
</event>
<event>
 8    1  0.2472977E-006  0.9118800E+02  0.7816164E-02  0.1184000E+00
        -11   -1    0    0    0    0  0.00000000000E+00  0.00000000000E+00  0.45593999997E+02  0.45594000000E+02  0.51100000000E-03 0.  1.
         11   -1    0    0    0    0 -0.00000000000E+00 -0.00000000000E+00 -0.45593999997E+02  0.45594000000E+02  0.51100000000E-03 0. -1.
         23    2    1    2    0    0 -0.17763568394E-14  0.35527136788E-14 -0.35527136788E-14  0.91188000000E+02  0.91188000000E+02 0.  0.
    9900012    2    3    3    0    0  0.15239829884E+02  0.18173101915E+02 -0.28164974431E+02  0.54367084302E+02  0.40000000284E+02 0.  0.
        -12    1    3    3    0    0 -0.15239829884E+02 -0.18173101915E+02  0.28164974431E+02  0.36820915698E+02  0.00000000000E+00 0.  1.
         11    1    4    4    0    0  0.25960447596E+02  0.90978817078E+01 -0.62771905912E+01  0.28215588120E+02  0.51100000000E-03 0. -1.
        -11    1    4    4    0    0 -0.29875126274E+01  0.40864311614E+01 -0.67740348209E+01  0.84564590315E+01  0.51100000000E-03 0.  1.
         12    1    4    4    0    0 -0.77331050844E+01  0.49887890460E+01 -0.15113749019E+02  0.17695037151E+02  0.00000000000E+00 0. -1.
</event>
<event>
 8    1  0.2472977E-006  0.9118800E+02  0.7816164E-02  0.1184000E+00
        -11   -1    0    0    0    0  0.00000000000E+00  0.00000000000E+00  0.45593999997E+02  0.45594000000E+02  0.51100000000E-03 0.  1.
         11   -1    0    0    0    0 -0.00000000000E+00 -0.00000000000E+00 -0.45593999997E+02  0.45594000000E+02  0.51100000000E-03 0. -1.
         23    2    1    2    0    0  0.00000000000E+00  0.00000000000E+00  0.00000000000E+00  0.91188000000E+02  0.91188000000E+02 0.  0.
    9900012    2    3    3    0    0  0.71228043243E+01 -0.98030313447E+01 -0.34769899551E+02  0.54367086381E+02  0.40000005023E+02 0.  0.
        -12    1    3    3    0    0 -0.71228043243E+01  0.98030313447E+01  0.34769899551E+02  0.36820913619E+02  0.00000000000E+00 0.  1.
         11    1    4    4    0    0 -0.18601022056E+01  0.46312670221E-01  0.24990350168E+01  0.31156542419E+01  0.51100000000E-03 0.  1.
        -11    1    4    4    0    0 -0.61756984422E+01 -0.17219265598E+02 -0.18286695799E+02  0.25865915845E+02  0.51100000000E-03 0. -1.
        -12    1    4    4    0    0  0.15158604972E+02  0.73699215835E+01 -0.18982238769E+02  0.25385516294E+02  0.00000000000E+00 0.  1.
</event>
<event>
 8    1  0.2472977E-006  0.9118800E+02  0.7816164E-02  0.1184000E+00
        -11   -1    0    0    0    0  0.00000000000E+00  0.00000000000E+00  0.45593999997E+02  0.45594000000E+02  0.51100000000E-03 0. -1.
         11   -1    0    0    0    0 -0.00000000000E+00 -0.00000000000E+00 -0.45593999997E+02  0.45594000000E+02  0.51100000000E-03 0.  1.
         23    2    1    2    0    0  0.00000000000E+00  0.00000000000E+00  0.00000000000E+00  0.91188000000E+02  0.91188000000E+02 0.  0.
    9900012    2    3    3    0    0  0.83230177750E+01 -0.35478949413E+02 -0.52680226200E+01  0.54367074717E+02  0.39999978433E+02 0.  0.
         12    1    3    3    0    0 -0.83230177750E+01  0.35478949413E+02  0.52680226200E+01  0.36820925283E+02  0.00000000000E+00 0. -1.
         11    1    4    4    0    0  0.67699180650E+01 -0.69511581210E+01 -0.79680421632E+01  0.12555480318E+02  0.51100000000E-03 0. -1.
        -11    1    4    4    0    0  0.62510128415E+01 -0.14337628351E+02 -0.12849739224E+02  0.20242493588E+02  0.51100000000E-03 0.  1.
         12    1    4    4    0    0 -0.46979131315E+01 -0.14190162941E+02  0.15549758768E+02  0.21569100811E+02  0.00000000000E+00 0. -1.
</event>
<event>
 8    1  0.2472977E-006  0.9118800E+02  0.7816164E-02  0.1184000E+00
        -11   -1    0    0    0    0  0.00000000000E+00  0.00000000000E+00  0.45593999997E+02  0.45594000000E+02  0.51100000000E-03 0. -1.
         11   -1    0    0    0    0 -0.00000000000E+00 -0.00000000000E+00 -0.45593999997E+02  0.45594000000E+02  0.51100000000E-03 0.  1.
         23    2    1    2    0    0  0.00000000000E+00  0.00000000000E+00  0.00000000000E+00  0.91188000000E+02  0.91188000000E+02 0.  0.
    9900012    2    3    3    0    0 -0.26163177201E+02  0.23378747019E+02  0.11167010320E+02  0.54367085116E+02  0.40000002139E+02 0.  0.
        -12    1    3    3    0    0  0.26163177201E+02 -0.23378747019E+02 -0.11167010320E+02  0.36820914884E+02  0.00000000000E+00 0.  1.
         11    1    4    4    0    0 -0.25263689774E+01  0.11515106494E+02  0.98230400704E+01  0.15345107829E+02  0.51100000000E-03 0. -1.
        -11    1    4    4    0    0 -0.27289943699E+02  0.45446171660E+01  0.76379566931E+01  0.28700748335E+02  0.51100000000E-03 0.  1.
        -12    1    4    4    0    0  0.36531354756E+01  0.73190233584E+01 -0.62939864437E+01  0.10321228952E+02  0.00000000000E+00 0.  1.
</event>
<event>
 8    1  0.2472977E-006  0.9118800E+02  0.7816164E-02  0.1184000E+00
        -11   -1    0    0    0    0  0.00000000000E+00  0.00000000000E+00  0.45593999997E+02  0.45594000000E+02  0.51100000000E-03 0.  1.
         11   -1    0    0    0    0 -0.00000000000E+00 -0.00000000000E+00 -0.45593999997E+02  0.45594000000E+02  0.51100000000E-03 0. -1.
         23    2    1    2    0    0  0.35527136788E-14 -0.88817841970E-15  0.00000000000E+00  0.91188000000E+02  0.91188000000E+02 0.  0.
    9900012    2    3    3    0    0  0.16135668632E+02  0.23574648674E+01  0.33013087835E+02  0.54367062869E+02  0.39999951423E+02 0.  0.
         12    1    3    3    0    0 -0.16135668632E+02 -0.23574648674E+01 -0.33013087835E+02  0.36820937131E+02  0.00000000000E+00 0. -1.
         11    1    4    4    0    0  0.12418694565E+02 -0.11596201663E+02  0.23609181182E+02  0.29087614272E+02  0.51100000000E-03 0.  1.
        -11    1    4    4    0    0 -0.29308934702E+01 -0.24025442686E+01 -0.19761784995E+01  0.42740656545E+01  0.51100000000E-03 0. -1.
        -12    1    4    4    0    0  0.66478675366E+01  0.16356210799E+02  0.11380085152E+02  0.21005382942E+02  0.00000000000E+00 0.  1.
</event>
<event>
 8    1  0.2472977E-006  0.9118800E+02  0.7816164E-02  0.1184000E+00
        -11   -1    0    0    0    0  0.00000000000E+00  0.00000000000E+00  0.45593999997E+02  0.45594000000E+02  0.51100000000E-03 0.  1.
         11   -1    0    0    0    0 -0.00000000000E+00 -0.00000000000E+00 -0.45593999997E+02  0.45594000000E+02  0.51100000000E-03 0. -1.
         23    2    1    2    0    0  0.00000000000E+00  0.17763568394E-14  0.00000000000E+00  0.91188000000E+02  0.91188000000E+02 0.  0.
    9900012    2    3    3    0    0  0.12662042051E+02  0.80804727814E+01 -0.33617849994E+02  0.54367065907E+02  0.39999958348E+02 0.  0.
        -12    1    3    3    0    0 -0.12662042051E+02 -0.80804727814E+01  0.33617849994E+02  0.36820934093E+02  0.00000000000E+00 0.  1.
         11    1    4    4    0    0  0.21375293066E+02 -0.71687178933E+01 -0.24245528049E+02  0.33107994511E+02  0.51100000000E-03 0. -1.
        -11    1    4    4    0    0 -0.43128764296E+01  0.15520504232E+01 -0.13090109007E+01  0.47668934761E+01  0.51100000000E-03 0.  1.
         12    1    4    4    0    0 -0.44003745853E+01  0.13697140252E+02 -0.80633110436E+01  0.16492177920E+02  0.00000000000E+00 0. -1.
</event>
<event>
 8    1  0.2472977E-006  0.9118800E+02  0.7816164E-02  0.1184000E+00
        -11   -1    0    0    0    0  0.00000000000E+00  0.00000000000E+00  0.45593999997E+02  0.45594000000E+02  0.51100000000E-03 0.  1.
         11   -1    0    0    0    0 -0.00000000000E+00 -0.00000000000E+00 -0.45593999997E+02  0.45594000000E+02  0.51100000000E-03 0. -1.
         23    2    1    2    0    0  0.00000000000E+00 -0.17763568394E-14  0.00000000000E+00  0.91188000000E+02  0.91188000000E+02 0.  0.
    9900012    2    3    3    0    0  0.13764875448E+02 -0.69185542069E+01  0.33443088676E+02  0.54367104185E+02  0.40000045610E+02 0.  0.
         12    1    3    3    0    0 -0.13764875448E+02  0.69185542069E+01 -0.33443088676E+02  0.36820895815E+02  0.00000000000E+00 0. -1.
         11    1    4    4    0    0 -0.47338787406E+01 -0.61429732532E+01  0.66585397288E+01  0.10221637829E+02  0.51100000000E-03 0. -1.
        -11    1    4    4    0    0  0.10927223799E+02  0.13427012084E+02  0.20588191086E+02  0.26899116824E+02  0.51100000000E-03 0.  1.
        -12    1    4    4    0    0  0.75715303902E+01 -0.14202593037E+02  0.61963578613E+01  0.17246349532E+02  0.00000000000E+00 0.  1.
</event>
<event>
 8    1  0.2472977E-006  0.9118800E+02  0.7816164E-02  0.1184000E+00
        -11   -1    0    0    0    0  0.00000000000E+00  0.00000000000E+00  0.45593999997E+02  0.45594000000E+02  0.51100000000E-03 0.  1.
         11   -1    0    0    0    0 -0.00000000000E+00 -0.00000000000E+00 -0.45593999997E+02  0.45594000000E+02  0.51100000000E-03 0. -1.
         23    2    1    2    0    0  0.00000000000E+00 -0.17763568394E-14  0.00000000000E+00  0.91188000000E+02  0.91188000000E+02 0.  0.
    9900012    2    3    3    0    0 -0.33298562724E+02  0.15504117583E+02  0.25726333599E+01  0.54366941027E+02  0.39999673658E+02 0.  0.
        -12    1    3    3    0    0  0.33298562724E+02 -0.15504117583E+02 -0.25726333599E+01  0.36821058973E+02  0.00000000000E+00 0.  1.
         11    1    4    4    0    0 -0.16390828749E+02  0.21189299654E+02  0.66342345080E+01  0.27598165784E+02  0.51100000000E-03 0. -1.
        -11    1    4    4    0    0 -0.16974046023E+02 -0.98235239525E+01  0.16881959181E+01  0.19684254290E+02  0.51100000000E-03 0.  1.
        -12    1    4    4    0    0  0.66312048463E-01  0.41383418823E+01 -0.57497970662E+01  0.70845209524E+01  0.00000000000E+00 0.  1.
</event>
<event>
 8    1  0.2472977E-006  0.9118800E+02  0.7816164E-02  0.1184000E+00
        -11   -1    0    0    0    0  0.00000000000E+00  0.00000000000E+00  0.45593999997E+02  0.45594000000E+02  0.51100000000E-03 0.  1.
         11   -1    0    0    0    0 -0.00000000000E+00 -0.00000000000E+00 -0.45593999997E+02  0.45594000000E+02  0.51100000000E-03 0. -1.
         23    2    1    2    0    0 -0.35527136788E-14 -0.17763568394E-14 -0.71054273576E-14  0.91188000000E+02  0.91188000000E+02 0.  0.
    9900012    2    3    3    0    0  0.20842913162E+02  0.11717255547E+02  0.28001045444E+02  0.54367086750E+02  0.40000005864E+02 0.  0.
         12    1    3    3    0    0 -0.20842913162E+02 -0.11717255547E+02 -0.28001045444E+02  0.36820913250E+02  0.00000000000E+00 0. -1.
         11    1    4    4    0    0  0.26817112089E+01 -0.10250716977E+02 -0.28526092571E+01  0.10972973771E+02  0.51100000000E-03 0. -1.
        -11    1    4    4    0    0  0.22673935458E+01  0.74439002058E+01  0.33668644773E+01  0.84787086537E+01  0.51100000000E-03 0.  1.
         12    1    4    4    0    0  0.15893808408E+02  0.14524072318E+02  0.27486790223E+02  0.34915404325E+02  0.00000000000E+00 0. -1.
</event>
<event>
 8    1  0.2472977E-006  0.9118800E+02  0.7816164E-02  0.1184000E+00
        -11   -1    0    0    0    0  0.00000000000E+00  0.00000000000E+00  0.45593999997E+02  0.45594000000E+02  0.51100000000E-03 0. -1.
         11   -1    0    0    0    0 -0.00000000000E+00 -0.00000000000E+00 -0.45593999997E+02  0.45594000000E+02  0.51100000000E-03 0.  1.
         23    2    1    2    0    0  0.00000000000E+00  0.00000000000E+00  0.00000000000E+00  0.91188000000E+02  0.91188000000E+02 0.  0.
    9900012    2    3    3    0    0  0.32790846142E+02  0.12214073326E+02  0.11461115867E+02  0.54367077214E+02  0.39999984124E+02 0.  0.
         12    1    3    3    0    0 -0.32790846142E+02 -0.12214073326E+02 -0.11461115867E+02  0.36820922786E+02  0.00000000000E+00 0. -1.
         11    1    4    4    0    0  0.15717194341E+02  0.13137455375E+00  0.65378413934E+01  0.17023243744E+02  0.51100000000E-03 0. -1.
        -11    1    4    4    0    0 -0.82262554944E+01  0.95987990545E+00  0.50619844946E+01  0.97065099895E+01  0.51100000000E-03 0.  1.
        -12    1    4    4    0    0  0.25299907295E+02  0.11122818867E+02 -0.13871002060E+00  0.27637323480E+02  0.00000000000E+00 0.  1.
</event>
<event>
 8    1  0.2472977E-006  0.9118800E+02  0.7816164E-02  0.1184000E+00
        -11   -1    0    0    0    0  0.00000000000E+00  0.00000000000E+00  0.45593999997E+02  0.45594000000E+02  0.51100000000E-03 0. -1.
         11   -1    0    0    0    0 -0.00000000000E+00 -0.00000000000E+00 -0.45593999997E+02  0.45594000000E+02  0.51100000000E-03 0.  1.
         23    2    1    2    0    0  0.00000000000E+00  0.00000000000E+00 -0.17763568394E-14  0.91188000000E+02  0.91188000000E+02 0.  0.
    9900012    2    3    3    0    0 -0.20595776063E+02  0.28102463940E+02  0.11909891458E+02  0.54367082227E+02  0.39999995552E+02 0.  0.
        -12    1    3    3    0    0  0.20595776063E+02 -0.28102463940E+02 -0.11909891458E+02  0.36820917773E+02  0.00000000000E+00 0.  1.
         11    1    4    4    0    0 -0.19537396863E+02  0.33733442698E+02  0.15452967132E+02  0.41933867290E+02  0.51100000000E-03 0. -1.
        -11    1    4    4    0    0 -0.42554281742E+01 -0.44765357993E+01  0.14958856961E+01  0.63549756872E+01  0.51100000000E-03 0.  1.
         12    1    4    4    0    0  0.31970489743E+01 -0.11544429582E+01 -0.50389613703E+01  0.60782392499E+01  0.00000000000E+00 0. -1.
</event>
<event>
 8    1  0.2472977E-006  0.9118800E+02  0.7816164E-02  0.1184000E+00
        -11   -1    0    0    0    0  0.00000000000E+00  0.00000000000E+00  0.45593999997E+02  0.45594000000E+02  0.51100000000E-03 0.  1.
         11   -1    0    0    0    0 -0.00000000000E+00 -0.00000000000E+00 -0.45593999997E+02  0.45594000000E+02  0.51100000000E-03 0. -1.
         23    2    1    2    0    0  0.00000000000E+00  0.35527136788E-14 -0.17763568394E-14  0.91188000000E+02  0.91188000000E+02 0.  0.
    9900012    2    3    3    0    0 -0.32231849317E+02 -0.11318178662E+02  0.13739838675E+02  0.54367130301E+02  0.40000105147E+02 0.  0.
         12    1    3    3    0    0  0.32231849317E+02  0.11318178662E+02 -0.13739838675E+02  0.36820869699E+02  0.00000000000E+00 0. -1.
         11    1    4    4    0    0 -0.18395711215E+02  0.34676333443E+01  0.88615726121E+01  0.20711208114E+02  0.51100000000E-03 0. -1.
        -11    1    4    4    0    0 -0.57902361371E+01  0.30688333024E+01  0.11285897261E+02  0.13050519131E+02  0.51100000000E-03 0.  1.
         12    1    4    4    0    0 -0.80459019642E+01 -0.17854645309E+02 -0.64076311979E+01  0.20605403055E+02  0.00000000000E+00 0. -1.
</event>
<event>
 8    1  0.2472977E-006  0.9118800E+02  0.7816164E-02  0.1184000E+00
        -11   -1    0    0    0    0  0.00000000000E+00  0.00000000000E+00  0.45593999997E+02  0.45594000000E+02  0.51100000000E-03 0. -1.
         11   -1    0    0    0    0 -0.00000000000E+00 -0.00000000000E+00 -0.45593999997E+02  0.45594000000E+02  0.51100000000E-03 0.  1.
         23    2    1    2    0    0  0.17763568394E-14  0.00000000000E+00  0.17763568394E-14  0.91188000000E+02  0.91188000000E+02 0.  0.
    9900012    2    3    3    0    0  0.13329934677E+02 -0.33778209997E+02 -0.60930350626E+01  0.54367086033E+02  0.40000004230E+02 0.  0.
         12    1    3    3    0    0 -0.13329934677E+02  0.33778209997E+02  0.60930350626E+01  0.36820913967E+02  0.00000000000E+00 0. -1.
         11    1    4    4    0    0  0.35546326451E+01 -0.32355329965E+01  0.13026489305E+02  0.13885010295E+02  0.51100000000E-03 0. -1.
        -11    1    4    4    0    0 -0.10154689349E+00 -0.89723432332E+00 -0.68544840309E+01  0.69137032619E+01  0.51100000000E-03 0.  1.
        -12    1    4    4    0    0  0.98768489252E+01 -0.29645442677E+02 -0.12265040337E+02  0.33568372476E+02  0.00000000000E+00 0.  1.
</event>
<event>
 8    1  0.2472977E-006  0.9118800E+02  0.7816164E-02  0.1184000E+00
        -11   -1    0    0    0    0  0.00000000000E+00  0.00000000000E+00  0.45593999997E+02  0.45594000000E+02  0.51100000000E-03 0.  1.
         11   -1    0    0    0    0 -0.00000000000E+00 -0.00000000000E+00 -0.45593999997E+02  0.45594000000E+02  0.51100000000E-03 0. -1.
         23    2    1    2    0    0  0.17763568394E-14 -0.35527136788E-14 -0.35527136788E-14  0.91188000000E+02  0.91188000000E+02 0.  0.
    9900012    2    3    3    0    0  0.12839327457E+02 -0.16746540013E+02 -0.30174236615E+02  0.54367088995E+02  0.40000010982E+02 0.  0.
        -12    1    3    3    0    0 -0.12839327457E+02  0.16746540013E+02  0.30174236615E+02  0.36820911005E+02  0.00000000000E+00 0.  1.
         11    1    4    4    0    0  0.92492547136E+01 -0.84258493912E+01  0.75334590139E+00  0.12534399907E+02  0.51100000000E-03 0. -1.
        -11    1    4    4    0    0  0.28440560858E+01 -0.29343051919E+01  0.44488404419E+01  0.60407767313E+01  0.51100000000E-03 0.  1.
         12    1    4    4    0    0  0.74601665811E+00 -0.53863854303E+01 -0.35376422958E+02  0.35791912357E+02  0.00000000000E+00 0. -1.
</event>
<event>
 8    1  0.2472977E-006  0.9118800E+02  0.7816164E-02  0.1184000E+00
        -11   -1    0    0    0    0  0.00000000000E+00  0.00000000000E+00  0.45593999997E+02  0.45594000000E+02  0.51100000000E-03 0. -1.
         11   -1    0    0    0    0 -0.00000000000E+00 -0.00000000000E+00 -0.45593999997E+02  0.45594000000E+02  0.51100000000E-03 0.  1.
         23    2    1    2    0    0 -0.88817841970E-15  0.00000000000E+00  0.00000000000E+00  0.91188000000E+02  0.91188000000E+02 0.  0.
    9900012    2    3    3    0    0 -0.47306928592E+01 -0.25270459221E+01 -0.36428207370E+02  0.54367085994E+02  0.40000004141E+02 0.  0.
         12    1    3    3    0    0  0.47306928592E+01  0.25270459221E+01  0.36428207370E+02  0.36820914006E+02  0.00000000000E+00 0. -1.
         11    1    4    4    0    0  0.10565264293E+02  0.83989583906E+01 -0.94072444597E+01  0.16451855829E+02  0.51100000000E-03 0. -1.
        -11    1    4    4    0    0 -0.10917429419E+02  0.23816969852E+01 -0.18210739075E+02  0.21365714675E+02  0.51100000000E-03 0.  1.
        -12    1    4    4    0    0 -0.43785277332E+01 -0.13307701298E+02 -0.88102238353E+01  0.16549515491E+02  0.00000000000E+00 0.  1.
</event>
<event>
 8    1  0.2472977E-006  0.9118800E+02  0.7816164E-02  0.1184000E+00
        -11   -1    0    0    0    0  0.00000000000E+00  0.00000000000E+00  0.45593999997E+02  0.45594000000E+02  0.51100000000E-03 0.  1.
         11   -1    0    0    0    0 -0.00000000000E+00 -0.00000000000E+00 -0.45593999997E+02  0.45594000000E+02  0.51100000000E-03 0. -1.
         23    2    1    2    0    0  0.00000000000E+00  0.17763568394E-14 -0.17763568394E-14  0.91188000000E+02  0.91188000000E+02 0.  0.
    9900012    2    3    3    0    0 -0.33737285244E+02 -0.85299644145E+01  0.12033802795E+02  0.54367121164E+02  0.40000084317E+02 0.  0.
         12    1    3    3    0    0  0.33737285244E+02  0.85299644145E+01 -0.12033802795E+02  0.36820878836E+02  0.00000000000E+00 0. -1.
         11    1    4    4    0    0 -0.81473524042E+01 -0.14667122507E+02  0.18293082313E+01  0.16877505820E+02  0.51100000000E-03 0. -1.
        -11    1    4    4    0    0 -0.80680609995E+01  0.18367612906E+01 -0.82475623466E+01  0.11682875727E+02  0.51100000000E-03 0.  1.
        -12    1    4    4    0    0 -0.17521871841E+02  0.43003968017E+01  0.18452056910E+02  0.25806739617E+02  0.00000000000E+00 0.  1.
</event>
<event>
 8    1  0.2472977E-006  0.9118800E+02  0.7816164E-02  0.1184000E+00
        -11   -1    0    0    0    0  0.00000000000E+00  0.00000000000E+00  0.45593999997E+02  0.45594000000E+02  0.51100000000E-03 0. -1.
         11   -1    0    0    0    0 -0.00000000000E+00 -0.00000000000E+00 -0.45593999997E+02  0.45594000000E+02  0.51100000000E-03 0.  1.
         23    2    1    2    0    0  0.00000000000E+00  0.00000000000E+00  0.00000000000E+00  0.91188000000E+02  0.91188000000E+02 0.  0.
    9900012    2    3    3    0    0 -0.30691579124E+02 -0.85599165809E+01 -0.18453581540E+02  0.54367083761E+02  0.39999999050E+02 0.  0.
         12    1    3    3    0    0  0.30691579124E+02  0.85599165809E+01  0.18453581540E+02  0.36820916239E+02  0.00000000000E+00 0. -1.
         11    1    4    4    0    0 -0.18896650500E+02 -0.16392127352E+02 -0.24383665423E+01  0.25134256920E+02  0.51100000000E-03 0. -1.
        -11    1    4    4    0    0 -0.13406400714E+02 -0.26502759917E+00 -0.16130414313E+02  0.20975988318E+02  0.51100000000E-03 0.  1.
         12    1    4    4    0    0  0.16114720900E+01  0.80972383702E+01  0.11519931551E+00  0.82568385235E+01  0.00000000000E+00 0. -1.
</event>
<event>
 8    1  0.2472977E-006  0.9118800E+02  0.7816164E-02  0.1184000E+00
        -11   -1    0    0    0    0  0.00000000000E+00  0.00000000000E+00  0.45593999997E+02  0.45594000000E+02  0.51100000000E-03 0. -1.
         11   -1    0    0    0    0 -0.00000000000E+00 -0.00000000000E+00 -0.45593999997E+02  0.45594000000E+02  0.51100000000E-03 0.  1.
         23    2    1    2    0    0 -0.88817841970E-15  0.00000000000E+00  0.00000000000E+00  0.91188000000E+02  0.91188000000E+02 0.  0.
    9900012    2    3    3    0    0  0.17431417042E+01  0.35793291782E+02  0.84601969630E+01  0.54367174204E+02  0.40000205233E+02 0.  0.
         12    1    3    3    0    0 -0.17431417042E+01 -0.35793291782E+02 -0.84601969630E+01  0.36820825796E+02  0.00000000000E+00 0. -1.
         11    1    4    4    0    0  0.60650058856E+01  0.23228029665E+01  0.76746465468E+01  0.10053850501E+02  0.51100000000E-03 0.  1.
        -11    1    4    4    0    0 -0.14542654957E+02  0.10077185133E+02  0.51211586401E+01  0.18419140574E+02  0.51100000000E-03 0. -1.
         12    1    4    4    0    0  0.10220790776E+02  0.23393303683E+02 -0.43356082239E+01  0.25894183130E+02  0.00000000000E+00 0. -1.
</event>
<event>
 8    1  0.2472977E-006  0.9118800E+02  0.7816164E-02  0.1184000E+00
        -11   -1    0    0    0    0  0.00000000000E+00  0.00000000000E+00  0.45593999997E+02  0.45594000000E+02  0.51100000000E-03 0.  1.
         11   -1    0    0    0    0 -0.00000000000E+00 -0.00000000000E+00 -0.45593999997E+02  0.45594000000E+02  0.51100000000E-03 0. -1.
         23    2    1    2    0    0 -0.35527136788E-14  0.35527136788E-14  0.35527136788E-14  0.91188000000E+02  0.91188000000E+02 0.  0.
    9900012    2    3    3    0    0 -0.24434431712E+02  0.22860528997E+02  0.15366651962E+02  0.54367092466E+02  0.40000018895E+02 0.  0.
        -12    1    3    3    0    0  0.24434431712E+02 -0.22860528997E+02 -0.15366651962E+02  0.36820907534E+02  0.00000000000E+00 0.  1.
         11    1    4    4    0    0  0.23778405125E+00  0.13693567335E+01  0.12773221951E+02  0.12848613870E+02  0.51100000000E-03 0.  1.
        -11    1    4    4    0    0 -0.21131099157E+02  0.22498434274E+02 -0.66453717496E+01  0.31573150973E+02  0.51100000000E-03 0. -1.
         12    1    4    4    0    0 -0.35411166058E+01 -0.10072620106E+01  0.92388017603E+01  0.99453276235E+01  0.00000000000E+00 0. -1.
</event>
<event>
 8    1  0.2472977E-006  0.9118800E+02  0.7816164E-02  0.1184000E+00
        -11   -1    0    0    0    0  0.00000000000E+00  0.00000000000E+00  0.45593999997E+02  0.45594000000E+02  0.51100000000E-03 0. -1.
         11   -1    0    0    0    0 -0.00000000000E+00 -0.00000000000E+00 -0.45593999997E+02  0.45594000000E+02  0.51100000000E-03 0.  1.
         23    2    1    2    0    0 -0.35527136788E-14 -0.44408920985E-15  0.00000000000E+00  0.91188000000E+02  0.91188000000E+02 0.  0.
    9900012    2    3    3    0    0  0.27973599345E+02  0.36408913653E+01  0.23664235091E+02  0.54367158447E+02  0.40000169311E+02 0.  0.
        -12    1    3    3    0    0 -0.27973599345E+02 -0.36408913653E+01 -0.23664235091E+02  0.36820841553E+02  0.00000000000E+00 0.  1.
         11    1    4    4    0    0  0.82403166356E+01 -0.52997701697E+01  0.14352770610E+02  0.17377928719E+02  0.51100000000E-03 0. -1.
        -11    1    4    4    0    0  0.10719952832E+02 -0.38001573445E+01 -0.78293381511E+01  0.13807864452E+02  0.51100000000E-03 0.  1.
        -12    1    4    4    0    0  0.90133298768E+01  0.12740818880E+02  0.17140802632E+02  0.23181365276E+02  0.00000000000E+00 0.  1.
</event>
<event>
 8    1  0.2472977E-006  0.9118800E+02  0.7816164E-02  0.1184000E+00
        -11   -1    0    0    0    0  0.00000000000E+00  0.00000000000E+00  0.45593999997E+02  0.45594000000E+02  0.51100000000E-03 0. -1.
         11   -1    0    0    0    0 -0.00000000000E+00 -0.00000000000E+00 -0.45593999997E+02  0.45594000000E+02  0.51100000000E-03 0.  1.
         23    2    1    2    0    0  0.00000000000E+00 -0.13322676296E-14  0.17763568394E-14  0.91188000000E+02  0.91188000000E+02 0.  0.
    9900012    2    3    3    0    0 -0.35545884102E+02  0.39664441882E+01 -0.87485703320E+01  0.54367081503E+02  0.39999993903E+02 0.  0.
         12    1    3    3    0    0  0.35545884102E+02 -0.39664441882E+01  0.87485703320E+01  0.36820918497E+02  0.00000000000E+00 0. -1.
         11    1    4    4    0    0 -0.80548458626E+01 -0.10814989577E+02 -0.16202838314E+02  0.21080239825E+02  0.51100000000E-03 0.  1.
        -11    1    4    4    0    0 -0.26870727991E+01 -0.10488331554E+01  0.15524710468E+01  0.32757560697E+01  0.51100000000E-03 0. -1.
         12    1    4    4    0    0 -0.24803965440E+02  0.15830266921E+02  0.59017969349E+01  0.30011085608E+02  0.00000000000E+00 0. -1.
</event>
<event>
 8    1  0.2472977E-006  0.9118800E+02  0.7816164E-02  0.1184000E+00
        -11   -1    0    0    0    0  0.00000000000E+00  0.00000000000E+00  0.45593999997E+02  0.45594000000E+02  0.51100000000E-03 0. -1.
         11   -1    0    0    0    0 -0.00000000000E+00 -0.00000000000E+00 -0.45593999997E+02  0.45594000000E+02  0.51100000000E-03 0.  1.
         23    2    1    2    0    0  0.00000000000E+00 -0.35527136788E-14 -0.17763568394E-14  0.91188000000E+02  0.91188000000E+02 0.  0.
    9900012    2    3    3    0    0  0.23915883418E+02 -0.23615933297E+02 -0.15036677087E+02  0.54367035279E+02  0.39999888526E+02 0.  0.
         12    1    3    3    0    0 -0.23915883418E+02  0.23615933297E+02  0.15036677087E+02  0.36820964721E+02  0.00000000000E+00 0. -1.
         11    1    4    4    0    0  0.10601060210E+01  0.11059579713E+01  0.39734366824E+01  0.42585404942E+01  0.51100000000E-03 0. -1.
        -11    1    4    4    0    0  0.50064271610E+01  0.21454288257E+01 -0.16930957820E+02  0.17785514069E+02  0.51100000000E-03 0.  1.
        -12    1    4    4    0    0  0.17849350236E+02 -0.26867320094E+02 -0.20791559500E+01  0.32322980716E+02  0.00000000000E+00 0.  1.
</event>
<event>
 8    1  0.2472977E-006  0.9118800E+02  0.7816164E-02  0.1184000E+00
        -11   -1    0    0    0    0  0.00000000000E+00  0.00000000000E+00  0.45593999997E+02  0.45594000000E+02  0.51100000000E-03 0.  1.
         11   -1    0    0    0    0 -0.00000000000E+00 -0.00000000000E+00 -0.45593999997E+02  0.45594000000E+02  0.51100000000E-03 0. -1.
         23    2    1    2    0    0  0.44408920985E-15  0.00000000000E+00  0.00000000000E+00  0.91188000000E+02  0.91188000000E+02 0.  0.
    9900012    2    3    3    0    0  0.38677936262E+01  0.22025558786E+02 -0.29252230193E+02  0.54367108666E+02  0.40000055826E+02 0.  0.
        -12    1    3    3    0    0 -0.38677936262E+01 -0.22025558786E+02  0.29252230193E+02  0.36820891334E+02  0.00000000000E+00 0.  1.
         11    1    4    4    0    0 -0.24712412544E+01  0.20481227246E+02 -0.25964949896E+02  0.33162724952E+02  0.51100000000E-03 0. -1.
        -11    1    4    4    0    0 -0.66125994102E+01 -0.56585515505E-01  0.23096986216E+01  0.70045971236E+01  0.51100000000E-03 0.  1.
         12    1    4    4    0    0  0.12951634291E+02  0.16009170556E+01 -0.55969789180E+01  0.14199786591E+02  0.00000000000E+00 0. -1.
</event>
<event>
 8    1  0.2472977E-006  0.9118800E+02  0.7816164E-02  0.1184000E+00
        -11   -1    0    0    0    0  0.00000000000E+00  0.00000000000E+00  0.45593999997E+02  0.45594000000E+02  0.51100000000E-03 0.  1.
         11   -1    0    0    0    0 -0.00000000000E+00 -0.00000000000E+00 -0.45593999997E+02  0.45594000000E+02  0.51100000000E-03 0. -1.
         23    2    1    2    0    0 -0.17763568394E-14  0.35527136788E-14 -0.35527136788E-14  0.91188000000E+02  0.91188000000E+02 0.  0.
    9900012    2    3    3    0    0 -0.12513492846E+02  0.23018583847E+02 -0.25871554590E+02  0.54367081456E+02  0.39999993796E+02 0.  0.
        -12    1    3    3    0    0  0.12513492846E+02 -0.23018583847E+02  0.25871554590E+02  0.36820918544E+02  0.00000000000E+00 0.  1.
         11    1    4    4    0    0 -0.35212666031E+01  0.35005175411E+01 -0.60369832395E+01  0.78165279019E+01  0.51100000000E-03 0. -1.
        -11    1    4    4    0    0 -0.44158554816E+01 -0.54243581102E+01  0.68136881169E+01  0.97647215299E+01  0.51100000000E-03 0.  1.
         12    1    4    4    0    0 -0.45763707615E+01  0.24942424416E+02 -0.26648259467E+02  0.36785832024E+02  0.00000000000E+00 0. -1.
</event>
<event>
 8    1  0.2472977E-006  0.9118800E+02  0.7816164E-02  0.1184000E+00
        -11   -1    0    0    0    0  0.00000000000E+00  0.00000000000E+00  0.45593999997E+02  0.45594000000E+02  0.51100000000E-03 0. -1.
         11   -1    0    0    0    0 -0.00000000000E+00 -0.00000000000E+00 -0.45593999997E+02  0.45594000000E+02  0.51100000000E-03 0.  1.
         23    2    1    2    0    0  0.00000000000E+00  0.00000000000E+00  0.00000000000E+00  0.91188000000E+02  0.91188000000E+02 0.  0.
    9900012    2    3    3    0    0 -0.18307138869E+02 -0.12924583222E+02 -0.29216136896E+02  0.54367097782E+02  0.40000031014E+02 0.  0.
         12    1    3    3    0    0  0.18307138869E+02  0.12924583222E+02  0.29216136896E+02  0.36820902218E+02  0.00000000000E+00 0. -1.
         11    1    4    4    0    0 -0.91233152188E+01  0.10758079424E+02 -0.13790025895E+02  0.19726529546E+02  0.51100000000E-03 0. -1.
        -11    1    4    4    0    0 -0.14548997114E+02 -0.18051990604E+02 -0.10654503720E+02  0.25515997562E+02  0.51100000000E-03 0.  1.
        -12    1    4    4    0    0  0.53651734643E+01 -0.56306720417E+01 -0.47716072811E+01  0.91245706742E+01  0.00000000000E+00 0.  1.
</event>
<event>
 8    1  0.2472977E-006  0.9118800E+02  0.7816164E-02  0.1184000E+00
        -11   -1    0    0    0    0  0.00000000000E+00  0.00000000000E+00  0.45593999997E+02  0.45594000000E+02  0.51100000000E-03 0. -1.
         11   -1    0    0    0    0 -0.00000000000E+00 -0.00000000000E+00 -0.45593999997E+02  0.45594000000E+02  0.51100000000E-03 0.  1.
         23    2    1    2    0    0  0.35527136788E-14 -0.35527136788E-14 -0.35527136788E-14  0.91188000000E+02  0.91188000000E+02 0.  0.
    9900012    2    3    3    0    0 -0.28744026617E+02  0.21025955141E+02  0.93527471922E+01  0.54367031303E+02  0.39999879462E+02 0.  0.
         12    1    3    3    0    0  0.28744026617E+02 -0.21025955141E+02 -0.93527471922E+01  0.36820968697E+02  0.00000000000E+00 0. -1.
         11    1    4    4    0    0 -0.52469494510E+01  0.15866867903E+02  0.16991483208E+02  0.23832718633E+02  0.51100000000E-03 0. -1.
        -11    1    4    4    0    0  0.17765825760E+01  0.38492587448E+01 -0.74289316307E+00  0.43040596008E+01  0.51100000000E-03 0.  1.
         12    1    4    4    0    0 -0.25273659742E+02  0.13098284934E+01 -0.68958428529E+01  0.26230253069E+02  0.00000000000E+00 0. -1.
</event>
<event>
 8    1  0.2472977E-006  0.9118800E+02  0.7816164E-02  0.1184000E+00
        -11   -1    0    0    0    0  0.00000000000E+00  0.00000000000E+00  0.45593999997E+02  0.45594000000E+02  0.51100000000E-03 0. -1.
         11   -1    0    0    0    0 -0.00000000000E+00 -0.00000000000E+00 -0.45593999997E+02  0.45594000000E+02  0.51100000000E-03 0.  1.
         23    2    1    2    0    0 -0.44408920985E-15  0.11102230246E-15  0.00000000000E+00  0.91188000000E+02  0.91188000000E+02 0.  0.
    9900012    2    3    3    0    0  0.35873504440E+01  0.37836940443E+00 -0.36643788387E+02  0.54367089175E+02  0.40000011393E+02 0.  0.
         12    1    3    3    0    0 -0.35873504440E+01 -0.37836940443E+00  0.36643788387E+02  0.36820910825E+02  0.00000000000E+00 0. -1.
         11    1    4    4    0    0  0.39429953460E+01  0.15220260410E+02 -0.10990538251E+01  0.15761074164E+02  0.51100000000E-03 0. -1.
        -11    1    4    4    0    0 -0.14214383388E+01 -0.10482831121E+02 -0.25041123207E+02  0.27183967462E+02  0.51100000000E-03 0.  1.
         12    1    4    4    0    0  0.10657934368E+01 -0.43590598842E+01 -0.10503611355E+02  0.11422047549E+02  0.00000000000E+00 0. -1.
</event>
<event>
 8    1  0.2472977E-006  0.9118800E+02  0.7816164E-02  0.1184000E+00
        -11   -1    0    0    0    0  0.00000000000E+00  0.00000000000E+00  0.45593999997E+02  0.45594000000E+02  0.51100000000E-03 0.  1.
         11   -1    0    0    0    0 -0.00000000000E+00 -0.00000000000E+00 -0.45593999997E+02  0.45594000000E+02  0.51100000000E-03 0. -1.
         23    2    1    2    0    0  0.17763568394E-14  0.00000000000E+00  0.00000000000E+00  0.91188000000E+02  0.91188000000E+02 0.  0.
    9900012    2    3    3    0    0 -0.92535663293E+01  0.22794430488E+02 -0.27396448633E+02  0.54367082728E+02  0.39999996694E+02 0.  0.
        -12    1    3    3    0    0  0.92535663293E+01 -0.22794430488E+02  0.27396448633E+02  0.36820917272E+02  0.00000000000E+00 0.  1.
         11    1    4    4    0    0 -0.96744653202E+01  0.16872765681E+02 -0.12945322762E+02  0.23363794269E+02  0.51100000000E-03 0. -1.
        -11    1    4    4    0    0  0.62515918707E+01  0.10201766090E+02 -0.19003854604E+02  0.22456734454E+02  0.51100000000E-03 0.  1.
         12    1    4    4    0    0 -0.58306928797E+01 -0.42801012824E+01  0.45527287331E+01  0.85465540051E+01  0.00000000000E+00 0. -1.
</event>
<event>
 8    1  0.2472977E-006  0.9118800E+02  0.7816164E-02  0.1184000E+00
        -11   -1    0    0    0    0  0.00000000000E+00  0.00000000000E+00  0.45593999997E+02  0.45594000000E+02  0.51100000000E-03 0.  1.
         11   -1    0    0    0    0 -0.00000000000E+00 -0.00000000000E+00 -0.45593999997E+02  0.45594000000E+02  0.51100000000E-03 0. -1.
         23    2    1    2    0    0  0.00000000000E+00  0.00000000000E+00 -0.35527136788E-14  0.91188000000E+02  0.91188000000E+02 0.  0.
    9900012    2    3    3    0    0  0.25281057223E+02  0.14702482851E+02  0.22371524733E+02  0.54367082369E+02  0.39999995878E+02 0.  0.
         12    1    3    3    0    0 -0.25281057223E+02 -0.14702482851E+02 -0.22371524733E+02  0.36820917631E+02  0.00000000000E+00 0. -1.
         11    1    4    4    0    0  0.94555698986E+01  0.31965283521E+01 -0.53889033934E+01  0.11343098151E+02  0.51100000000E-03 0. -1.
        -11    1    4    4    0    0  0.42033138051E+01  0.18310513397E+02  0.20172812774E+02  0.27566013917E+02  0.51100000000E-03 0.  1.
        -12    1    4    4    0    0  0.11622173519E+02 -0.68045588984E+01  0.75876153529E+01  0.15457970302E+02  0.00000000000E+00 0.  1.
</event>
<event>
 8    1  0.2472977E-006  0.9118800E+02  0.7816164E-02  0.1184000E+00
        -11   -1    0    0    0    0  0.00000000000E+00  0.00000000000E+00  0.45593999997E+02  0.45594000000E+02  0.51100000000E-03 0. -1.
         11   -1    0    0    0    0 -0.00000000000E+00 -0.00000000000E+00 -0.45593999997E+02  0.45594000000E+02  0.51100000000E-03 0.  1.
         23    2    1    2    0    0  0.00000000000E+00  0.35527136788E-14  0.66613381478E-15  0.91188000000E+02  0.91188000000E+02 0.  0.
    9900012    2    3    3    0    0  0.32306758148E+02 -0.17613061994E+02  0.13548363349E+01  0.54367052751E+02  0.39999928357E+02 0.  0.
         12    1    3    3    0    0 -0.32306758148E+02  0.17613061994E+02 -0.13548363349E+01  0.36820947249E+02  0.00000000000E+00 0. -1.
         11    1    4    4    0    0  0.39705470389E+01  0.77295326792E+01  0.84067069171E+01  0.12090642691E+02  0.51100000000E-03 0. -1.
        -11    1    4    4    0    0  0.15362457915E+02 -0.10871538112E+02  0.49164199557E+01  0.19451648762E+02  0.51100000000E-03 0.  1.
         12    1    4    4    0    0  0.12973753194E+02 -0.14471056561E+02 -0.11968290538E+02  0.22824761298E+02  0.00000000000E+00 0. -1.
</event>
<event>
 8    1  0.2472977E-006  0.9118800E+02  0.7816164E-02  0.1184000E+00
        -11   -1    0    0    0    0  0.00000000000E+00  0.00000000000E+00  0.45593999997E+02  0.45594000000E+02  0.51100000000E-03 0.  1.
         11   -1    0    0    0    0 -0.00000000000E+00 -0.00000000000E+00 -0.45593999997E+02  0.45594000000E+02  0.51100000000E-03 0. -1.
         23    2    1    2    0    0  0.00000000000E+00  0.00000000000E+00  0.00000000000E+00  0.91188000000E+02  0.91188000000E+02 0.  0.
    9900012    2    3    3    0    0 -0.23859061545E+02 -0.20331585777E+02 -0.19317180165E+02  0.54367059660E+02  0.39999944107E+02 0.  0.
        -12    1    3    3    0    0  0.23859061545E+02  0.20331585777E+02  0.19317180165E+02  0.36820940340E+02  0.00000000000E+00 0.  1.
         11    1    4    4    0    0  0.52165926960E+01 -0.11358452707E+02 -0.15136454883E+02  0.19630067599E+02  0.51100000000E-03 0. -1.
        -11    1    4    4    0    0 -0.21427484753E+01 -0.71580877709E+01 -0.13774921261E+01  0.75978336638E+01  0.51100000000E-03 0.  1.
         12    1    4    4    0    0 -0.26932905765E+02 -0.18150452992E+01 -0.28032331556E+01  0.27139158397E+02  0.00000000000E+00 0. -1.
</event>
<event>
 8    1  0.2472977E-006  0.9118800E+02  0.7816164E-02  0.1184000E+00
        -11   -1    0    0    0    0  0.00000000000E+00  0.00000000000E+00  0.45593999997E+02  0.45594000000E+02  0.51100000000E-03 0.  1.
         11   -1    0    0    0    0 -0.00000000000E+00 -0.00000000000E+00 -0.45593999997E+02  0.45594000000E+02  0.51100000000E-03 0. -1.
         23    2    1    2    0    0 -0.17763568394E-14  0.17763568394E-14  0.00000000000E+00  0.91188000000E+02  0.91188000000E+02 0.  0.
    9900012    2    3    3    0    0  0.61846387352E+01  0.13908643542E+02 -0.33527290425E+02  0.54367091202E+02  0.40000016013E+02 0.  0.
        -12    1    3    3    0    0 -0.61846387352E+01 -0.13908643542E+02  0.33527290425E+02  0.36820908798E+02  0.00000000000E+00 0.  1.
         11    1    4    4    0    0  0.19934669631E+01 -0.37619523942E+01 -0.10915181546E+02  0.11716116455E+02  0.51100000000E-03 0. -1.
        -11    1    4    4    0    0  0.16529587823E+02  0.26943324258E+01 -0.99393970355E+01  0.19475069050E+02  0.51100000000E-03 0.  1.
         12    1    4    4    0    0 -0.12338416051E+02  0.14976263511E+02 -0.12672711844E+02  0.23175905697E+02  0.00000000000E+00 0. -1.
</event>
<event>
 8    1  0.2472977E-006  0.9118800E+02  0.7816164E-02  0.1184000E+00
        -11   -1    0    0    0    0  0.00000000000E+00  0.00000000000E+00  0.45593999997E+02  0.45594000000E+02  0.51100000000E-03 0. -1.
         11   -1    0    0    0    0 -0.00000000000E+00 -0.00000000000E+00 -0.45593999997E+02  0.45594000000E+02  0.51100000000E-03 0.  1.
         23    2    1    2    0    0  0.00000000000E+00 -0.35527136788E-14  0.00000000000E+00  0.91188000000E+02  0.91188000000E+02 0.  0.
    9900012    2    3    3    0    0 -0.86752896899E+01 -0.29722928771E+02  0.19926517328E+02  0.54367092370E+02  0.40000018675E+02 0.  0.
        -12    1    3    3    0    0  0.86752896899E+01  0.29722928771E+02 -0.19926517328E+02  0.36820907630E+02  0.00000000000E+00 0.  1.
         11    1    4    4    0    0  0.10511538589E+02 -0.12074199334E+02  0.15300850588E+02  0.22144858592E+02  0.51100000000E-03 0. -1.
        -11    1    4    4    0    0 -0.18932750513E+02 -0.65162335169E+01  0.62351841530E+01  0.20971119734E+02  0.51100000000E-03 0.  1.
        -12    1    4    4    0    0 -0.25407776619E+00 -0.11132495920E+02 -0.16095174136E+01  0.11251114044E+02  0.00000000000E+00 0.  1.
</event>
<event>
 8    1  0.2472977E-006  0.9118800E+02  0.7816164E-02  0.1184000E+00
        -11   -1    0    0    0    0  0.00000000000E+00  0.00000000000E+00  0.45593999997E+02  0.45594000000E+02  0.51100000000E-03 0. -1.
         11   -1    0    0    0    0 -0.00000000000E+00 -0.00000000000E+00 -0.45593999997E+02  0.45594000000E+02  0.51100000000E-03 0.  1.
         23    2    1    2    0    0  0.35527136788E-14 -0.35527136788E-14 -0.35527136788E-14  0.91188000000E+02  0.91188000000E+02 0.  0.
    9900012    2    3    3    0    0  0.18360873315E+02 -0.29177103548E+02 -0.12936613646E+02  0.54367068277E+02  0.39999963751E+02 0.  0.
         12    1    3    3    0    0 -0.18360873315E+02  0.29177103548E+02  0.12936613646E+02  0.36820931723E+02  0.00000000000E+00 0. -1.
         11    1    4    4    0    0  0.13438999893E+02 -0.66190472682E+01  0.12577852617E+02  0.19560697369E+02  0.51100000000E-03 0. -1.
        -11    1    4    4    0    0  0.38945904168E+01 -0.75820207405E+01 -0.74660587458E+01  0.11331235876E+02  0.51100000000E-03 0.  1.
         12    1    4    4    0    0  0.10272830054E+01 -0.14976035539E+02 -0.18048407517E+02  0.23475135032E+02  0.00000000000E+00 0. -1.
</event>
<event>
 8    1  0.2472977E-006  0.9118800E+02  0.7816164E-02  0.1184000E+00
        -11   -1    0    0    0    0  0.00000000000E+00  0.00000000000E+00  0.45593999997E+02  0.45594000000E+02  0.51100000000E-03 0. -1.
         11   -1    0    0    0    0 -0.00000000000E+00 -0.00000000000E+00 -0.45593999997E+02  0.45594000000E+02  0.51100000000E-03 0.  1.
         23    2    1    2    0    0  0.00000000000E+00 -0.22204460493E-14  0.00000000000E+00  0.91188000000E+02  0.91188000000E+02 0.  0.
    9900012    2    3    3    0    0 -0.22430677808E+02 -0.28602569736E+01 -0.29059667948E+02  0.54367072824E+02  0.39999974117E+02 0.  0.
         12    1    3    3    0    0  0.22430677808E+02  0.28602569736E+01  0.29059667948E+02  0.36820927176E+02  0.00000000000E+00 0. -1.
         11    1    4    4    0    0 -0.87693590635E+01 -0.18393528450E+02 -0.23078501997E+02  0.30787023271E+02  0.51100000000E-03 0. -1.
        -11    1    4    4    0    0 -0.86898448981E+01  0.14829630629E+02 -0.68157210253E+01  0.18490143383E+02  0.51100000000E-03 0.  1.
        -12    1    4    4    0    0 -0.49714738467E+01  0.70364084713E+00  0.83455507433E+00  0.50899061702E+01  0.00000000000E+00 0.  1.
</event>
<event>
 8    1  0.2472977E-006  0.9118800E+02  0.7816164E-02  0.1184000E+00
        -11   -1    0    0    0    0  0.00000000000E+00  0.00000000000E+00  0.45593999997E+02  0.45594000000E+02  0.51100000000E-03 0. -1.
         11   -1    0    0    0    0 -0.00000000000E+00 -0.00000000000E+00 -0.45593999997E+02  0.45594000000E+02  0.51100000000E-03 0.  1.
         23    2    1    2    0    0 -0.17763568394E-14 -0.35527136788E-14  0.35527136788E-14  0.91188000000E+02  0.91188000000E+02 0.  0.
    9900012    2    3    3    0    0  0.59171281171E+01  0.25868428562E+02 -0.25526377770E+02  0.54367028211E+02  0.39999872412E+02 0.  0.
         12    1    3    3    0    0 -0.59171281171E+01 -0.25868428562E+02  0.25526377770E+02  0.36820971789E+02  0.00000000000E+00 0. -1.
         11    1    4    4    0    0  0.23806596847E+01  0.72520785601E+01  0.53532748487E+00  0.76515854405E+01  0.51100000000E-03 0. -1.
        -11    1    4    4    0    0  0.40147944653E+00 -0.79395440286E+01 -0.16503194367E+02  0.18318104971E+02  0.51100000000E-03 0.  1.
        -12    1    4    4    0    0  0.31349889859E+01  0.26555894031E+02 -0.95585108875E+01  0.28397337800E+02  0.00000000000E+00 0.  1.
</event>
<event>
 8    1  0.2472977E-006  0.9118800E+02  0.7816164E-02  0.1184000E+00
        -11   -1    0    0    0    0  0.00000000000E+00  0.00000000000E+00  0.45593999997E+02  0.45594000000E+02  0.51100000000E-03 0.  1.
         11   -1    0    0    0    0 -0.00000000000E+00 -0.00000000000E+00 -0.45593999997E+02  0.45594000000E+02  0.51100000000E-03 0. -1.
         23    2    1    2    0    0  0.31086244690E-14  0.00000000000E+00 -0.13322676296E-14  0.91188000000E+02  0.91188000000E+02 0.  0.
    9900012    2    3    3    0    0  0.13070225014E+01  0.36611476564E+02 -0.36964178775E+01  0.54367190271E+02  0.40000241860E+02 0.  0.
        -12    1    3    3    0    0 -0.13070225014E+01 -0.36611476564E+02  0.36964178775E+01  0.36820809729E+02  0.00000000000E+00 0.  1.
         11    1    4    4    0    0 -0.10010966071E+02  0.14578302579E+02  0.74912964760E+01  0.19205881154E+02  0.51100000000E-03 0. -1.
        -11    1    4    4    0    0 -0.90884220182E+00  0.17065993179E+02  0.11049352562E+01  0.17125857629E+02  0.51100000000E-03 0.  1.
         12    1    4    4    0    0  0.12226830774E+02  0.49671808052E+01 -0.12292649610E+02  0.18035451488E+02  0.00000000000E+00 0. -1.
</event>
<event>
 8    1  0.2472977E-006  0.9118800E+02  0.7816164E-02  0.1184000E+00
        -11   -1    0    0    0    0  0.00000000000E+00  0.00000000000E+00  0.45593999997E+02  0.45594000000E+02  0.51100000000E-03 0. -1.
         11   -1    0    0    0    0 -0.00000000000E+00 -0.00000000000E+00 -0.45593999997E+02  0.45594000000E+02  0.51100000000E-03 0.  1.
         23    2    1    2    0    0  0.88817841970E-15  0.71054273576E-14  0.00000000000E+00  0.91188000000E+02  0.91188000000E+02 0.  0.
    9900012    2    3    3    0    0 -0.58853138903E+01 -0.32978275165E+02  0.15283238932E+02  0.54367069204E+02  0.39999965865E+02 0.  0.
        -12    1    3    3    0    0  0.58853138903E+01  0.32978275165E+02 -0.15283238932E+02  0.36820930796E+02  0.00000000000E+00 0.  1.
         11    1    4    4    0    0  0.53425593275E+00  0.25087976221E+01  0.20514075820E+01  0.32844738147E+01  0.51100000000E-03 0. -1.
        -11    1    4    4    0    0  0.99419237155E+01 -0.75809429007E-01  0.53340222123E+01  0.11282703021E+02  0.51100000000E-03 0.  1.
         12    1    4    4    0    0 -0.16361493538E+02 -0.35411263358E+02  0.78978091376E+01  0.39799892369E+02  0.00000000000E+00 0. -1.
</event>
<event>
 8    1  0.2472977E-006  0.9118800E+02  0.7816164E-02  0.1184000E+00
        -11   -1    0    0    0    0  0.00000000000E+00  0.00000000000E+00  0.45593999997E+02  0.45594000000E+02  0.51100000000E-03 0. -1.
         11   -1    0    0    0    0 -0.00000000000E+00 -0.00000000000E+00 -0.45593999997E+02  0.45594000000E+02  0.51100000000E-03 0.  1.
         23    2    1    2    0    0  0.00000000000E+00  0.00000000000E+00 -0.44408920985E-15  0.91188000000E+02  0.91188000000E+02 0.  0.
    9900012    2    3    3    0    0  0.36646611267E+02  0.17656292453E+01  0.31120699933E+01  0.54367128967E+02  0.40000102107E+02 0.  0.
        -12    1    3    3    0    0 -0.36646611267E+02 -0.17656292453E+01 -0.31120699933E+01  0.36820871033E+02  0.00000000000E+00 0.  1.
         11    1    4    4    0    0  0.14827847250E+01  0.55716268255E+01 -0.24708586233E+01  0.62727042510E+01  0.51100000000E-03 0. -1.
        -11    1    4    4    0    0 -0.29448574777E+01 -0.74563766308E+01 -0.35015990933E+01  0.87481960709E+01  0.51100000000E-03 0.  1.
         12    1    4    4    0    0  0.38108684019E+02  0.36503790506E+01  0.90845277099E+01  0.39346228645E+02  0.00000000000E+00 0. -1.
</event>
<event>
 8    1  0.2472977E-006  0.9118800E+02  0.7816164E-02  0.1184000E+00
        -11   -1    0    0    0    0  0.00000000000E+00  0.00000000000E+00  0.45593999997E+02  0.45594000000E+02  0.51100000000E-03 0.  1.
         11   -1    0    0    0    0 -0.00000000000E+00 -0.00000000000E+00 -0.45593999997E+02  0.45594000000E+02  0.51100000000E-03 0. -1.
         23    2    1    2    0    0  0.00000000000E+00  0.00000000000E+00  0.00000000000E+00  0.91188000000E+02  0.91188000000E+02 0.  0.
    9900012    2    3    3    0    0  0.10061919565E+02 -0.28351698977E+02 -0.21230129572E+02  0.54367089339E+02  0.40000011767E+02 0.  0.
        -12    1    3    3    0    0 -0.10061919565E+02  0.28351698977E+02  0.21230129572E+02  0.36820910661E+02  0.00000000000E+00 0.  1.
         11    1    4    4    0    0 -0.11462621189E+01  0.35045508507E+01 -0.62383998840E+01  0.72466148569E+01  0.51100000000E-03 0. -1.
        -11    1    4    4    0    0  0.17185301539E+02 -0.83818046704E+01 -0.12330004055E+02  0.22751224995E+02  0.51100000000E-03 0.  1.
         12    1    4    4    0    0 -0.59771198551E+01 -0.23474445158E+02 -0.26617256331E+01  0.24369249487E+02  0.00000000000E+00 0. -1.
</event>
<event>
 8    1  0.2472977E-006  0.9118800E+02  0.7816164E-02  0.1184000E+00
        -11   -1    0    0    0    0  0.00000000000E+00  0.00000000000E+00  0.45593999997E+02  0.45594000000E+02  0.51100000000E-03 0. -1.
         11   -1    0    0    0    0 -0.00000000000E+00 -0.00000000000E+00 -0.45593999997E+02  0.45594000000E+02  0.51100000000E-03 0.  1.
         23    2    1    2    0    0  0.00000000000E+00  0.17763568394E-14  0.00000000000E+00  0.91188000000E+02  0.91188000000E+02 0.  0.
    9900012    2    3    3    0    0 -0.84898020484E+01  0.14269232971E+02 -0.32864741251E+02  0.54367096074E+02  0.40000027121E+02 0.  0.
         12    1    3    3    0    0  0.84898020484E+01 -0.14269232971E+02  0.32864741251E+02  0.36820903926E+02  0.00000000000E+00 0. -1.
         11    1    4    4    0    0 -0.42220064280E+00  0.96950172332E+01  0.40594298535E+01  0.10519058110E+02  0.51100000000E-03 0. -1.
        -11    1    4    4    0    0 -0.49966270364E+01  0.45247186615E+01 -0.39356861418E+02  0.39929962455E+02  0.51100000000E-03 0.  1.
        -12    1    4    4    0    0 -0.30709743692E+01  0.49497076733E-01  0.24326903135E+01  0.39180755095E+01  0.00000000000E+00 0.  1.
</event>
<event>
 8    1  0.2472977E-006  0.9118800E+02  0.7816164E-02  0.1184000E+00
        -11   -1    0    0    0    0  0.00000000000E+00  0.00000000000E+00  0.45593999997E+02  0.45594000000E+02  0.51100000000E-03 0.  1.
         11   -1    0    0    0    0 -0.00000000000E+00 -0.00000000000E+00 -0.45593999997E+02  0.45594000000E+02  0.51100000000E-03 0. -1.
         23    2    1    2    0    0  0.35527136788E-14 -0.35527136788E-14 -0.35527136788E-14  0.91188000000E+02  0.91188000000E+02 0.  0.
    9900012    2    3    3    0    0 -0.24799678583E+02  0.21037408517E+02  0.17267994215E+02  0.54367078785E+02  0.39999987706E+02 0.  0.
         12    1    3    3    0    0  0.24799678583E+02 -0.21037408517E+02 -0.17267994215E+02  0.36820921215E+02  0.00000000000E+00 0. -1.
         11    1    4    4    0    0 -0.77351030838E+01  0.15967129637E+02 -0.40196369152E+01  0.18191715965E+02  0.51100000000E-03 0. -1.
        -11    1    4    4    0    0 -0.10184471710E+02  0.14059017111E+02  0.93256086931E+01  0.19706506639E+02  0.51100000000E-03 0.  1.
        -12    1    4    4    0    0 -0.68801037895E+01 -0.89887382312E+01  0.11962022437E+02  0.16468856181E+02  0.00000000000E+00 0.  1.
</event>
<event>
 8    1  0.2472977E-006  0.9118800E+02  0.7816164E-02  0.1184000E+00
        -11   -1    0    0    0    0  0.00000000000E+00  0.00000000000E+00  0.45593999997E+02  0.45594000000E+02  0.51100000000E-03 0. -1.
         11   -1    0    0    0    0 -0.00000000000E+00 -0.00000000000E+00 -0.45593999997E+02  0.45594000000E+02  0.51100000000E-03 0.  1.
         23    2    1    2    0    0  0.00000000000E+00  0.00000000000E+00  0.00000000000E+00  0.91188000000E+02  0.91188000000E+02 0.  0.
    9900012    2    3    3    0    0  0.22349353956E+02  0.10768365656E+02  0.27208983517E+02  0.54367080604E+02  0.39999991853E+02 0.  0.
        -12    1    3    3    0    0 -0.22349353956E+02 -0.10768365656E+02 -0.27208983517E+02  0.36820919396E+02  0.00000000000E+00 0.  1.
         11    1    4    4    0    0  0.26132756798E+02  0.16028653511E+02  0.23590786568E+02  0.38682863420E+02  0.51100000000E-03 0. -1.
        -11    1    4    4    0    0 -0.79491522769E+01 -0.59505085781E+00  0.48200441055E+01  0.93153600513E+01  0.51100000000E-03 0.  1.
        -12    1    4    4    0    0  0.41657494347E+01 -0.46652369970E+01 -0.12018471559E+01  0.63688571327E+01  0.00000000000E+00 0.  1.
</event>
<event>
 8    1  0.2472977E-006  0.9118800E+02  0.7816164E-02  0.1184000E+00
        -11   -1    0    0    0    0  0.00000000000E+00  0.00000000000E+00  0.45593999997E+02  0.45594000000E+02  0.51100000000E-03 0.  1.
         11   -1    0    0    0    0 -0.00000000000E+00 -0.00000000000E+00 -0.45593999997E+02  0.45594000000E+02  0.51100000000E-03 0. -1.
         23    2    1    2    0    0  0.35527136788E-14  0.00000000000E+00  0.00000000000E+00  0.91188000000E+02  0.91188000000E+02 0.  0.
    9900012    2    3    3    0    0  0.31903200397E+02 -0.10949558655E+02 -0.14767306416E+02  0.54367077020E+02  0.39999983683E+02 0.  0.
        -12    1    3    3    0    0 -0.31903200397E+02  0.10949558655E+02  0.14767306416E+02  0.36820922980E+02  0.00000000000E+00 0.  1.
         11    1    4    4    0    0  0.19605065559E+02 -0.22858956439E+02 -0.60880512352E+01  0.30723848281E+02  0.51100000000E-03 0. -1.
        -11    1    4    4    0    0 -0.16663499850E+01  0.58874731458E+01  0.29053295117E-01  0.61188157899E+01  0.51100000000E-03 0.  1.
         12    1    4    4    0    0  0.13964484823E+02  0.60219246389E+01 -0.87083084757E+01  0.17524412950E+02  0.00000000000E+00 0. -1.
</event>
<event>
 8    1  0.2472977E-006  0.9118800E+02  0.7816164E-02  0.1184000E+00
        -11   -1    0    0    0    0  0.00000000000E+00  0.00000000000E+00  0.45593999997E+02  0.45594000000E+02  0.51100000000E-03 0. -1.
         11   -1    0    0    0    0 -0.00000000000E+00 -0.00000000000E+00 -0.45593999997E+02  0.45594000000E+02  0.51100000000E-03 0.  1.
         23    2    1    2    0    0  0.17763568394E-14  0.35527136788E-14 -0.35527136788E-14  0.91188000000E+02  0.91188000000E+02 0.  0.
    9900012    2    3    3    0    0  0.12881271758E+02  0.19949988466E+02 -0.28139814913E+02  0.54367103959E+02  0.40000045096E+02 0.  0.
         12    1    3    3    0    0 -0.12881271758E+02 -0.19949988466E+02  0.28139814913E+02  0.36820896041E+02  0.00000000000E+00 0. -1.
         11    1    4    4    0    0  0.11618107928E+02  0.25414684060E+02 -0.25786156834E+02  0.38023840972E+02  0.51100000000E-03 0. -1.
        -11    1    4    4    0    0  0.40337981049E+01 -0.47300439319E+01 -0.79283061208E+01  0.10074863818E+02  0.51100000000E-03 0.  1.
         12    1    4    4    0    0 -0.27706342748E+01 -0.73465166217E+00  0.55746480422E+01  0.62683991692E+01  0.00000000000E+00 0. -1.
</event>
<event>
 8    1  0.2472977E-006  0.9118800E+02  0.7816164E-02  0.1184000E+00
        -11   -1    0    0    0    0  0.00000000000E+00  0.00000000000E+00  0.45593999997E+02  0.45594000000E+02  0.51100000000E-03 0. -1.
         11   -1    0    0    0    0 -0.00000000000E+00 -0.00000000000E+00 -0.45593999997E+02  0.45594000000E+02  0.51100000000E-03 0.  1.
         23    2    1    2    0    0 -0.17763568394E-14 -0.35527136788E-14  0.71054273576E-14  0.91188000000E+02  0.91188000000E+02 0.  0.
    9900012    2    3    3    0    0 -0.67697498685E+01 -0.16369219277E+02  0.32280013035E+02  0.54367080748E+02  0.39999992182E+02 0.  0.
        -12    1    3    3    0    0  0.67697498685E+01  0.16369219277E+02 -0.32280013035E+02  0.36820919252E+02  0.00000000000E+00 0.  1.
         11    1    4    4    0    0  0.65664298449E+00 -0.24462078318E+02  0.24826506543E+02  0.34859430331E+02  0.51100000000E-03 0. -1.
        -11    1    4    4    0    0 -0.11266551505E+02  0.39207185484E+01  0.30087678775E+01  0.12302841182E+02  0.51100000000E-03 0.  1.
         12    1    4    4    0    0  0.38401586520E+01  0.41721404927E+01  0.44447386143E+01  0.72048092350E+01  0.00000000000E+00 0. -1.
</event>
<event>
 8    1  0.2472977E-006  0.9118800E+02  0.7816164E-02  0.1184000E+00
        -11   -1    0    0    0    0  0.00000000000E+00  0.00000000000E+00  0.45593999997E+02  0.45594000000E+02  0.51100000000E-03 0.  1.
         11   -1    0    0    0    0 -0.00000000000E+00 -0.00000000000E+00 -0.45593999997E+02  0.45594000000E+02  0.51100000000E-03 0. -1.
         23    2    1    2    0    0  0.35527136788E-14 -0.13322676296E-14  0.00000000000E+00  0.91188000000E+02  0.91188000000E+02 0.  0.
    9900012    2    3    3    0    0  0.30846822711E+02 -0.35648581384E+01  0.19787502722E+02  0.54367082726E+02  0.39999996690E+02 0.  0.
         12    1    3    3    0    0 -0.30846822711E+02  0.35648581384E+01 -0.19787502722E+02  0.36820917274E+02  0.00000000000E+00 0. -1.
         11    1    4    4    0    0 -0.29329099289E+01 -0.16306229517E+01  0.86313116287E+01  0.92606928766E+01  0.51100000000E-03 0.  1.
        -11    1    4    4    0    0  0.73686908676E+01 -0.92417479379E+01  0.13087706112E+02  0.17635066248E+02  0.51100000000E-03 0. -1.
        -12    1    4    4    0    0  0.26411041773E+02  0.73075127512E+01 -0.19315150182E+01  0.27471323601E+02  0.00000000000E+00 0.  1.
</event>
<event>
 8    1  0.2472977E-006  0.9118800E+02  0.7816164E-02  0.1184000E+00
        -11   -1    0    0    0    0  0.00000000000E+00  0.00000000000E+00  0.45593999997E+02  0.45594000000E+02  0.51100000000E-03 0. -1.
         11   -1    0    0    0    0 -0.00000000000E+00 -0.00000000000E+00 -0.45593999997E+02  0.45594000000E+02  0.51100000000E-03 0.  1.
         23    2    1    2    0    0  0.00000000000E+00  0.17763568394E-14  0.00000000000E+00  0.91188000000E+02  0.91188000000E+02 0.  0.
    9900012    2    3    3    0    0  0.41276544275E+01 -0.10917008116E+02 -0.34922228601E+02  0.54367073237E+02  0.39999975057E+02 0.  0.
         12    1    3    3    0    0 -0.41276544275E+01  0.10917008116E+02  0.34922228601E+02  0.36820926763E+02  0.00000000000E+00 0. -1.
         11    1    4    4    0    0 -0.52760418250E+01 -0.65219216578E+01  0.25350528510E+01  0.87634794841E+01  0.51100000000E-03 0. -1.
        -11    1    4    4    0    0  0.16367168681E+02 -0.70795193223E+01 -0.30863832223E+02  0.35645195247E+02  0.51100000000E-03 0.  1.
         12    1    4    4    0    0 -0.69634724282E+01  0.26844328637E+01 -0.65934492289E+01  0.99583985054E+01  0.00000000000E+00 0. -1.
</event>
<event>
 8    1  0.2472977E-006  0.9118800E+02  0.7816164E-02  0.1184000E+00
        -11   -1    0    0    0    0  0.00000000000E+00  0.00000000000E+00  0.45593999997E+02  0.45594000000E+02  0.51100000000E-03 0.  1.
         11   -1    0    0    0    0 -0.00000000000E+00 -0.00000000000E+00 -0.45593999997E+02  0.45594000000E+02  0.51100000000E-03 0. -1.
         23    2    1    2    0    0  0.00000000000E+00 -0.22204460493E-15  0.35527136788E-14  0.91188000000E+02  0.91188000000E+02 0.  0.
    9900012    2    3    3    0    0  0.25657282597E+02 -0.18598367980E+01  0.26344354317E+02  0.54367080028E+02  0.39999990540E+02 0.  0.
         12    1    3    3    0    0 -0.25657282597E+02  0.18598367980E+01 -0.26344354317E+02  0.36820919972E+02  0.00000000000E+00 0. -1.
         11    1    4    4    0    0  0.15173435985E+02 -0.82849942051E+01  0.28023627186E+02  0.32927161576E+02  0.51100000000E-03 0. -1.
        -11    1    4    4    0    0  0.12967393823E+02  0.61025114935E+01  0.42955263417E+01  0.14961467037E+02  0.51100000000E-03 0.  1.
         12    1    4    4    0    0 -0.24835472100E+01  0.32264591362E+00 -0.59747992107E+01  0.64784514151E+01  0.00000000000E+00 0. -1.
</event>
<event>
 8    1  0.2472977E-006  0.9118800E+02  0.7816164E-02  0.1184000E+00
        -11   -1    0    0    0    0  0.00000000000E+00  0.00000000000E+00  0.45593999997E+02  0.45594000000E+02  0.51100000000E-03 0.  1.
         11   -1    0    0    0    0 -0.00000000000E+00 -0.00000000000E+00 -0.45593999997E+02  0.45594000000E+02  0.51100000000E-03 0. -1.
         23    2    1    2    0    0  0.71054273576E-14  0.00000000000E+00 -0.35527136788E-14  0.91188000000E+02  0.91188000000E+02 0.  0.
    9900012    2    3    3    0    0 -0.32580215475E+02 -0.54831243128E+00  0.17146675917E+02  0.54367087709E+02  0.40000008051E+02 0.  0.
         12    1    3    3    0    0  0.32580215475E+02  0.54831243128E+00 -0.17146675917E+02  0.36820912291E+02  0.00000000000E+00 0. -1.
         11    1    4    4    0    0 -0.66400816478E+01  0.65209710765E+01 -0.80232676666E+01  0.12287659353E+02  0.51100000000E-03 0. -1.
        -11    1    4    4    0    0 -0.16764637289E+02 -0.56215982860E+00  0.27529305674E+01  0.16998462110E+02  0.51100000000E-03 0.  1.
         12    1    4    4    0    0 -0.91754965378E+01 -0.65071236792E+01  0.22417013016E+02  0.25080966246E+02  0.00000000000E+00 0. -1.
</event>
<event>
 8    1  0.2472977E-006  0.9118800E+02  0.7816164E-02  0.1184000E+00
        -11   -1    0    0    0    0  0.00000000000E+00  0.00000000000E+00  0.45593999997E+02  0.45594000000E+02  0.51100000000E-03 0.  1.
         11   -1    0    0    0    0 -0.00000000000E+00 -0.00000000000E+00 -0.45593999997E+02  0.45594000000E+02  0.51100000000E-03 0. -1.
         23    2    1    2    0    0  0.88817841970E-15  0.00000000000E+00  0.00000000000E+00  0.91188000000E+02  0.91188000000E+02 0.  0.
    9900012    2    3    3    0    0 -0.27850298108E+01  0.32915471437E+02 -0.16266382882E+02  0.54367083892E+02  0.39999999349E+02 0.  0.
        -12    1    3    3    0    0  0.27850298108E+01 -0.32915471437E+02  0.16266382882E+02  0.36820916108E+02  0.00000000000E+00 0.  1.
         11    1    4    4    0    0  0.46663851830E+01  0.12972373669E+02 -0.12600365581E+02  0.18676906658E+02  0.51100000000E-03 0. -1.
        -11    1    4    4    0    0 -0.16349799667E+02  0.20497944836E+02 -0.48603643418E+00  0.26224376509E+02  0.51100000000E-03 0.  1.
        -12    1    4    4    0    0  0.88983846728E+01 -0.55484706770E+00 -0.31799808669E+01  0.94658007251E+01  0.00000000000E+00 0.  1.
</event>
<event>
 8    1  0.2472977E-006  0.9118800E+02  0.7816164E-02  0.1184000E+00
        -11   -1    0    0    0    0  0.00000000000E+00  0.00000000000E+00  0.45593999997E+02  0.45594000000E+02  0.51100000000E-03 0.  1.
         11   -1    0    0    0    0 -0.00000000000E+00 -0.00000000000E+00 -0.45593999997E+02  0.45594000000E+02  0.51100000000E-03 0. -1.
         23    2    1    2    0    0  0.00000000000E+00  0.00000000000E+00  0.00000000000E+00  0.91188000000E+02  0.91188000000E+02 0.  0.
    9900012    2    3    3    0    0 -0.29195091168E+02 -0.81187620997E+01 -0.20916799497E+02  0.54367080028E+02  0.39999990541E+02 0.  0.
        -12    1    3    3    0    0  0.29195091168E+02  0.81187620997E+01  0.20916799497E+02  0.36820919972E+02  0.00000000000E+00 0.  1.
         11    1    4    4    0    0 -0.24011557087E+02 -0.41908852339E+01 -0.21277043552E+02  0.32354767429E+02  0.51100000000E-03 0. -1.
        -11    1    4    4    0    0  0.29912367878E+01  0.64289237737E+01  0.42370667687E+01  0.82602235728E+01  0.51100000000E-03 0.  1.
        -12    1    4    4    0    0 -0.81747708691E+01 -0.10356800640E+02 -0.38768227128E+01  0.13752089027E+02  0.00000000000E+00 0.  1.
</event>
<event>
 8    1  0.2472977E-006  0.9118800E+02  0.7816164E-02  0.1184000E+00
        -11   -1    0    0    0    0  0.00000000000E+00  0.00000000000E+00  0.45593999997E+02  0.45594000000E+02  0.51100000000E-03 0. -1.
         11   -1    0    0    0    0 -0.00000000000E+00 -0.00000000000E+00 -0.45593999997E+02  0.45594000000E+02  0.51100000000E-03 0.  1.
         23    2    1    2    0    0  0.00000000000E+00 -0.44408920985E-15  0.71054273576E-14  0.91188000000E+02  0.91188000000E+02 0.  0.
    9900012    2    3    3    0    0  0.92009865992E+01  0.32328746725E+01  0.35505916188E+02  0.54367085870E+02  0.40000003858E+02 0.  0.
        -12    1    3    3    0    0 -0.92009865992E+01 -0.32328746725E+01 -0.35505916188E+02  0.36820914130E+02  0.00000000000E+00 0.  1.
         11    1    4    4    0    0  0.31604265579E+01  0.39530420787E+01  0.13827327017E+02  0.14724462992E+02  0.51100000000E-03 0. -1.
        -11    1    4    4    0    0  0.75028233825E+01  0.14937045019E+02  0.15341122054E+02  0.22688272273E+02  0.51100000000E-03 0.  1.
        -12    1    4    4    0    0 -0.14622633412E+01 -0.15657212425E+02  0.63374671172E+01  0.16954350606E+02  0.00000000000E+00 0.  1.
</event>
<event>
 8    1  0.2472977E-006  0.9118800E+02  0.7816164E-02  0.1184000E+00
        -11   -1    0    0    0    0  0.00000000000E+00  0.00000000000E+00  0.45593999997E+02  0.45594000000E+02  0.51100000000E-03 0.  1.
         11   -1    0    0    0    0 -0.00000000000E+00 -0.00000000000E+00 -0.45593999997E+02  0.45594000000E+02  0.51100000000E-03 0. -1.
         23    2    1    2    0    0  0.35527136788E-14 -0.17763568394E-14 -0.35527136788E-14  0.91188000000E+02  0.91188000000E+02 0.  0.
    9900012    2    3    3    0    0  0.30831681434E+02 -0.10615173088E+02 -0.17102795846E+02  0.54367080600E+02  0.39999991844E+02 0.  0.
         12    1    3    3    0    0 -0.30831681434E+02  0.10615173088E+02  0.17102795846E+02  0.36820919400E+02  0.00000000000E+00 0. -1.
         11    1    4    4    0    0  0.14311374683E+01 -0.29696953333E+01 -0.57823964320E+01  0.66560764407E+01  0.51100000000E-03 0. -1.
        -11    1    4    4    0    0  0.22113696703E+02 -0.17451620632E+02 -0.18346112888E+02  0.33617770641E+02  0.51100000000E-03 0.  1.
        -12    1    4    4    0    0  0.72868472629E+01  0.98061428778E+01  0.70257134739E+01  0.14093233518E+02  0.00000000000E+00 0.  1.
</event>
<event>
 8    1  0.2472977E-006  0.9118800E+02  0.7816164E-02  0.1184000E+00
        -11   -1    0    0    0    0  0.00000000000E+00  0.00000000000E+00  0.45593999997E+02  0.45594000000E+02  0.51100000000E-03 0. -1.
         11   -1    0    0    0    0 -0.00000000000E+00 -0.00000000000E+00 -0.45593999997E+02  0.45594000000E+02  0.51100000000E-03 0.  1.
         23    2    1    2    0    0  0.00000000000E+00  0.00000000000E+00  0.00000000000E+00  0.91188000000E+02  0.91188000000E+02 0.  0.
    9900012    2    3    3    0    0 -0.77230274199E+01 -0.22702553964E+01  0.35930199035E+02  0.54367103558E+02  0.40000044181E+02 0.  0.
        -12    1    3    3    0    0  0.77230274199E+01  0.22702553964E+01 -0.35930199035E+02  0.36820896442E+02  0.00000000000E+00 0.  1.
         11    1    4    4    0    0 -0.20689624816E+01 -0.11876173497E+02  0.13926018036E+02  0.18418959832E+02  0.51100000000E-03 0. -1.
        -11    1    4    4    0    0 -0.11115568795E+01  0.14056392225E+02  0.25165415427E+02  0.28846418407E+02  0.51100000000E-03 0.  1.
        -12    1    4    4    0    0 -0.45425080588E+01 -0.44504741242E+01 -0.31612344279E+01  0.71017253187E+01  0.00000000000E+00 0.  1.
</event>
<event>
 8    1  0.2472977E-006  0.9118800E+02  0.7816164E-02  0.1184000E+00
        -11   -1    0    0    0    0  0.00000000000E+00  0.00000000000E+00  0.45593999997E+02  0.45594000000E+02  0.51100000000E-03 0. -1.
         11   -1    0    0    0    0 -0.00000000000E+00 -0.00000000000E+00 -0.45593999997E+02  0.45594000000E+02  0.51100000000E-03 0.  1.
         23    2    1    2    0    0  0.00000000000E+00  0.11102230246E-15  0.35527136788E-14  0.91188000000E+02  0.91188000000E+02 0.  0.
    9900012    2    3    3    0    0 -0.20552840469E+02  0.33610271728E+00  0.30549099095E+02  0.54367086488E+02  0.40000005266E+02 0.  0.
        -12    1    3    3    0    0  0.20552840469E+02 -0.33610271728E+00 -0.30549099095E+02  0.36820913512E+02  0.00000000000E+00 0.  1.
         11    1    4    4    0    0 -0.64516357328E+01 -0.12631585307E+02  0.69007182038E+01  0.15773409999E+02  0.51100000000E-03 0.  1.
        -11    1    4    4    0    0 -0.95481733988E+01 -0.25328091530E+00  0.22642354629E+02  0.24574539464E+02  0.51100000000E-03 0. -1.
         12    1    4    4    0    0 -0.45530313376E+01  0.13220968940E+02  0.10060262622E+01  0.14019137025E+02  0.00000000000E+00 0. -1.
</event>
<event>
 8    1  0.2472977E-006  0.9118800E+02  0.7816164E-02  0.1184000E+00
        -11   -1    0    0    0    0  0.00000000000E+00  0.00000000000E+00  0.45593999997E+02  0.45594000000E+02  0.51100000000E-03 0. -1.
         11   -1    0    0    0    0 -0.00000000000E+00 -0.00000000000E+00 -0.45593999997E+02  0.45594000000E+02  0.51100000000E-03 0.  1.
         23    2    1    2    0    0 -0.11102230246E-14  0.00000000000E+00  0.17763568394E-14  0.91188000000E+02  0.91188000000E+02 0.  0.
    9900012    2    3    3    0    0  0.16333109530E+01 -0.33821520830E+02 -0.14464336237E+02  0.54367082049E+02  0.39999995148E+02 0.  0.
        -12    1    3    3    0    0 -0.16333109530E+01  0.33821520830E+02  0.14464336237E+02  0.36820917951E+02  0.00000000000E+00 0.  1.
         11    1    4    4    0    0 -0.28773755258E+01 -0.25342581059E+02 -0.93036303105E+01  0.27149277004E+02  0.51100000000E-03 0. -1.
        -11    1    4    4    0    0 -0.63392439139E+01  0.24165335234E+01 -0.90945519054E+01  0.11346211804E+02  0.51100000000E-03 0.  1.
        -12    1    4    4    0    0  0.10849930393E+02 -0.10895473295E+02  0.39338459788E+01  0.15871593242E+02  0.00000000000E+00 0.  1.
</event>
<event>
 8    1  0.2472977E-006  0.9118800E+02  0.7816164E-02  0.1184000E+00
        -11   -1    0    0    0    0  0.00000000000E+00  0.00000000000E+00  0.45593999997E+02  0.45594000000E+02  0.51100000000E-03 0.  1.
         11   -1    0    0    0    0 -0.00000000000E+00 -0.00000000000E+00 -0.45593999997E+02  0.45594000000E+02  0.51100000000E-03 0. -1.
         23    2    1    2    0    0  0.00000000000E+00  0.00000000000E+00  0.00000000000E+00  0.91188000000E+02  0.91188000000E+02 0.  0.
    9900012    2    3    3    0    0 -0.33217293948E+02 -0.12798780630E+02  0.94118228890E+01  0.54367084572E+02  0.40000000898E+02 0.  0.
         12    1    3    3    0    0  0.33217293948E+02  0.12798780630E+02 -0.94118228890E+01  0.36820915428E+02  0.00000000000E+00 0. -1.
         11    1    4    4    0    0 -0.92427435931E+01 -0.10471327738E+02 -0.73649607282E+01  0.15789859420E+02  0.51100000000E-03 0. -1.
        -11    1    4    4    0    0 -0.20204928237E+02 -0.12495376675E+02  0.99027646972E+01  0.25737876995E+02  0.51100000000E-03 0.  1.
        -12    1    4    4    0    0 -0.37696221183E+01  0.10167923783E+02  0.68740189200E+01  0.12839348156E+02  0.00000000000E+00 0.  1.
</event>
<event>
 8    1  0.2472977E-006  0.9118800E+02  0.7816164E-02  0.1184000E+00
        -11   -1    0    0    0    0  0.00000000000E+00  0.00000000000E+00  0.45593999997E+02  0.45594000000E+02  0.51100000000E-03 0.  1.
         11   -1    0    0    0    0 -0.00000000000E+00 -0.00000000000E+00 -0.45593999997E+02  0.45594000000E+02  0.51100000000E-03 0. -1.
         23    2    1    2    0    0  0.35527136788E-14 -0.17763568394E-14 -0.35527136788E-14  0.91188000000E+02  0.91188000000E+02 0.  0.
    9900012    2    3    3    0    0 -0.27978934384E+02  0.12122648854E+02 -0.20639781139E+02  0.54367082712E+02  0.39999996658E+02 0.  0.
        -12    1    3    3    0    0  0.27978934384E+02 -0.12122648854E+02  0.20639781139E+02  0.36820917288E+02  0.00000000000E+00 0.  1.
         11    1    4    4    0    0 -0.16864837050E+02 -0.31893071572E+01 -0.23798339809E+02  0.29342041286E+02  0.51100000000E-03 0. -1.
        -11    1    4    4    0    0 -0.38575042841E+01  0.44607615993E+01  0.89707508331E+01  0.10735599849E+02  0.51100000000E-03 0.  1.
         12    1    4    4    0    0 -0.72565930495E+01  0.10851194412E+02 -0.58121921623E+01  0.14289441577E+02  0.00000000000E+00 0. -1.
</event>
<event>
 8    1  0.2472977E-006  0.9118800E+02  0.7816164E-02  0.1184000E+00
        -11   -1    0    0    0    0  0.00000000000E+00  0.00000000000E+00  0.45593999997E+02  0.45594000000E+02  0.51100000000E-03 0.  1.
         11   -1    0    0    0    0 -0.00000000000E+00 -0.00000000000E+00 -0.45593999997E+02  0.45594000000E+02  0.51100000000E-03 0. -1.
         23    2    1    2    0    0  0.00000000000E+00  0.00000000000E+00  0.00000000000E+00  0.91188000000E+02  0.91188000000E+02 0.  0.
    9900012    2    3    3    0    0  0.18011436781E+02 -0.16619487316E+02 -0.27480120778E+02  0.54367132933E+02  0.40000111148E+02 0.  0.
        -12    1    3    3    0    0 -0.18011436781E+02  0.16619487316E+02  0.27480120778E+02  0.36820867067E+02  0.00000000000E+00 0.  1.
         11    1    4    4    0    0  0.13224234812E+02 -0.21326905568E+02 -0.14061575808E+02  0.28765347242E+02  0.51100000000E-03 0.  1.
        -11    1    4    4    0    0 -0.12133396157E+01 -0.59952880402E+01 -0.11712660364E+02  0.13213708214E+02  0.51100000000E-03 0. -1.
        -12    1    4    4    0    0  0.60005415849E+01  0.10702706293E+02 -0.17058846062E+01  0.12388077477E+02  0.00000000000E+00 0.  1.
</event>
<event>
 8    1  0.2472977E-006  0.9118800E+02  0.7816164E-02  0.1184000E+00
        -11   -1    0    0    0    0  0.00000000000E+00  0.00000000000E+00  0.45593999997E+02  0.45594000000E+02  0.51100000000E-03 0. -1.
         11   -1    0    0    0    0 -0.00000000000E+00 -0.00000000000E+00 -0.45593999997E+02  0.45594000000E+02  0.51100000000E-03 0.  1.
         23    2    1    2    0    0  0.00000000000E+00  0.00000000000E+00 -0.17763568394E-14  0.91188000000E+02  0.91188000000E+02 0.  0.
    9900012    2    3    3    0    0 -0.34913744336E+02 -0.11562502863E+02  0.17660315920E+01  0.54367083612E+02  0.39999998711E+02 0.  0.
        -12    1    3    3    0    0  0.34913744336E+02  0.11562502863E+02 -0.17660315920E+01  0.36820916388E+02  0.00000000000E+00 0.  1.
         11    1    4    4    0    0 -0.23216662231E+01  0.10455745867E+01 -0.18425303891E+01  0.31429729180E+01  0.51100000000E-03 0. -1.
        -11    1    4    4    0    0 -0.64057901983E+01  0.22743646567E-01 -0.15269957220E+02  0.16559174469E+02  0.51100000000E-03 0.  1.
         12    1    4    4    0    0 -0.26186287915E+02 -0.12630821096E+02  0.18878519201E+02  0.34664936226E+02  0.00000000000E+00 0. -1.
</event>
<event>
 8    1  0.2472977E-006  0.9118800E+02  0.7816164E-02  0.1184000E+00
        -11   -1    0    0    0    0  0.00000000000E+00  0.00000000000E+00  0.45593999997E+02  0.45594000000E+02  0.51100000000E-03 0.  1.
         11   -1    0    0    0    0 -0.00000000000E+00 -0.00000000000E+00 -0.45593999997E+02  0.45594000000E+02  0.51100000000E-03 0. -1.
         23    2    1    2    0    0  0.17763568394E-14  0.17763568394E-14  0.00000000000E+00  0.91188000000E+02  0.91188000000E+02 0.  0.
    9900012    2    3    3    0    0 -0.97188397872E+01  0.92282560522E+01 -0.34295211637E+02  0.54367107862E+02  0.40000053993E+02 0.  0.
        -12    1    3    3    0    0  0.97188397872E+01 -0.92282560522E+01  0.34295211637E+02  0.36820892138E+02  0.00000000000E+00 0.  1.
         11    1    4    4    0    0 -0.59378824948E+01  0.11248120576E+02 -0.30781153052E+02  0.33305525795E+02  0.51100000000E-03 0. -1.
        -11    1    4    4    0    0  0.65490777264E+01  0.35574197235E+01  0.25132079444E+01  0.78652316296E+01  0.51100000000E-03 0.  1.
        -12    1    4    4    0    0 -0.10330035019E+02 -0.55772842468E+01 -0.60272665300E+01  0.13196350438E+02  0.00000000000E+00 0.  1.
</event>
<event>
 8    1  0.2472977E-006  0.9118800E+02  0.7816164E-02  0.1184000E+00
        -11   -1    0    0    0    0  0.00000000000E+00  0.00000000000E+00  0.45593999997E+02  0.45594000000E+02  0.51100000000E-03 0.  1.
         11   -1    0    0    0    0 -0.00000000000E+00 -0.00000000000E+00 -0.45593999997E+02  0.45594000000E+02  0.51100000000E-03 0. -1.
         23    2    1    2    0    0  0.00000000000E+00  0.00000000000E+00  0.35527136788E-14  0.91188000000E+02  0.91188000000E+02 0.  0.
    9900012    2    3    3    0    0 -0.10511300765E+02 -0.29240056386E+02 -0.19756311900E+02  0.54367079301E+02  0.39999988882E+02 0.  0.
        -12    1    3    3    0    0  0.10511300765E+02  0.29240056386E+02  0.19756311900E+02  0.36820920699E+02  0.00000000000E+00 0.  1.
         11    1    4    4    0    0  0.27990784281E+01 -0.92894739035E+01 -0.88092611054E+01  0.13104665083E+02  0.51100000000E-03 0. -1.
        -11    1    4    4    0    0 -0.18866268648E+02 -0.10004753689E+02  0.47403964799E+01  0.21874701097E+02  0.51100000000E-03 0.  1.
        -12    1    4    4    0    0  0.55558894548E+01 -0.99458287944E+01 -0.15687447275E+02  0.19387713120E+02  0.00000000000E+00 0.  1.
</event>
<event>
 8    1  0.2472977E-006  0.9118800E+02  0.7816164E-02  0.1184000E+00
        -11   -1    0    0    0    0  0.00000000000E+00  0.00000000000E+00  0.45593999997E+02  0.45594000000E+02  0.51100000000E-03 0.  1.
         11   -1    0    0    0    0 -0.00000000000E+00 -0.00000000000E+00 -0.45593999997E+02  0.45594000000E+02  0.51100000000E-03 0. -1.
         23    2    1    2    0    0  0.17763568394E-14 -0.35527136788E-14  0.00000000000E+00  0.91188000000E+02  0.91188000000E+02 0.  0.
    9900012    2    3    3    0    0  0.15762985484E+02 -0.30317823697E+02  0.13716343205E+02  0.54367079099E+02  0.39999988421E+02 0.  0.
         12    1    3    3    0    0 -0.15762985484E+02  0.30317823697E+02 -0.13716343205E+02  0.36820920901E+02  0.00000000000E+00 0. -1.
         11    1    4    4    0    0  0.31295456002E+01 -0.47036971252E+01  0.71779751466E+01  0.91346674694E+01  0.51100000000E-03 0. -1.
        -11    1    4    4    0    0  0.12958101750E+01 -0.39136340813E+01  0.17808406629E+02  0.18279360018E+02  0.51100000000E-03 0.  1.
         12    1    4    4    0    0  0.11337629709E+02 -0.21700492491E+02 -0.11270038571E+02  0.26953051611E+02  0.00000000000E+00 0. -1.
</event>
<event>
 8    1  0.2472977E-006  0.9118800E+02  0.7816164E-02  0.1184000E+00
        -11   -1    0    0    0    0  0.00000000000E+00  0.00000000000E+00  0.45593999997E+02  0.45594000000E+02  0.51100000000E-03 0.  1.
         11   -1    0    0    0    0 -0.00000000000E+00 -0.00000000000E+00 -0.45593999997E+02  0.45594000000E+02  0.51100000000E-03 0. -1.
         23    2    1    2    0    0  0.00000000000E+00  0.00000000000E+00  0.35527136788E-14  0.91188000000E+02  0.91188000000E+02 0.  0.
    9900012    2    3    3    0    0  0.42504450762E+01  0.18038971878E+02 -0.31816780325E+02  0.54367105117E+02  0.40000047736E+02 0.  0.
        -12    1    3    3    0    0 -0.42504450762E+01 -0.18038971878E+02  0.31816780325E+02  0.36820894883E+02  0.00000000000E+00 0.  1.
         11    1    4    4    0    0  0.12693789739E+02 -0.57751075825E+01 -0.10234552442E+02  0.17298272442E+02  0.51100000000E-03 0. -1.
        -11    1    4    4    0    0 -0.13516932393E+01  0.45804964885E+01  0.25429129064E+01  0.54105849042E+01  0.51100000000E-03 0.  1.
         12    1    4    4    0    0 -0.70916514236E+01  0.19233582972E+02 -0.24125140789E+02  0.31658247771E+02  0.00000000000E+00 0. -1.
</event>
<event>
 8    1  0.2472977E-006  0.9118800E+02  0.7816164E-02  0.1184000E+00
        -11   -1    0    0    0    0  0.00000000000E+00  0.00000000000E+00  0.45593999997E+02  0.45594000000E+02  0.51100000000E-03 0. -1.
         11   -1    0    0    0    0 -0.00000000000E+00 -0.00000000000E+00 -0.45593999997E+02  0.45594000000E+02  0.51100000000E-03 0.  1.
         23    2    1    2    0    0  0.88817841970E-15  0.35527136788E-14 -0.71054273576E-14  0.91188000000E+02  0.91188000000E+02 0.  0.
    9900012    2    3    3    0    0 -0.77165863003E+01 -0.93404023022E+01  0.34770531169E+02  0.54367100268E+02  0.40000036680E+02 0.  0.
        -12    1    3    3    0    0  0.77165863003E+01  0.93404023022E+01 -0.34770531169E+02  0.36820899732E+02  0.00000000000E+00 0.  1.
         11    1    4    4    0    0 -0.12269001481E+02 -0.10485904357E+01  0.11079146213E+02  0.16564281461E+02  0.51100000000E-03 0. -1.
        -11    1    4    4    0    0 -0.10878085168E+02  0.17919394566E+01  0.89099974190E+01  0.14175042794E+02  0.51100000000E-03 0.  1.
         12    1    4    4    0    0  0.15430500349E+02 -0.10083751323E+02  0.14781387537E+02  0.23627776012E+02  0.00000000000E+00 0. -1.
</event>
<event>
 8    1  0.2472977E-006  0.9118800E+02  0.7816164E-02  0.1184000E+00
        -11   -1    0    0    0    0  0.00000000000E+00  0.00000000000E+00  0.45593999997E+02  0.45594000000E+02  0.51100000000E-03 0.  1.
         11   -1    0    0    0    0 -0.00000000000E+00 -0.00000000000E+00 -0.45593999997E+02  0.45594000000E+02  0.51100000000E-03 0. -1.
         23    2    1    2    0    0  0.00000000000E+00  0.88817841970E-15  0.00000000000E+00  0.91188000000E+02  0.91188000000E+02 0.  0.
    9900012    2    3    3    0    0  0.31475085959E+02 -0.57427827045E+01 -0.18224137962E+02  0.54367084832E+02  0.40000001492E+02 0.  0.
        -12    1    3    3    0    0 -0.31475085959E+02  0.57427827045E+01  0.18224137962E+02  0.36820915168E+02  0.00000000000E+00 0.  1.
         11    1    4    4    0    0 -0.56989896285E+01 -0.34783666454E+01 -0.12353478976E+02  0.14042291849E+02  0.51100000000E-03 0. -1.
        -11    1    4    4    0    0  0.30566380556E+02 -0.57724806640E+01 -0.49162881960E+00  0.31110558537E+02  0.51100000000E-03 0.  1.
        -12    1    4    4    0    0  0.66076950317E+01  0.35080646049E+01 -0.53790301668E+01  0.92142344467E+01  0.00000000000E+00 0.  1.
</event>
<event>
 8    1  0.2472977E-006  0.9118800E+02  0.7816164E-02  0.1184000E+00
        -11   -1    0    0    0    0  0.00000000000E+00  0.00000000000E+00  0.45593999997E+02  0.45594000000E+02  0.51100000000E-03 0.  1.
         11   -1    0    0    0    0 -0.00000000000E+00 -0.00000000000E+00 -0.45593999997E+02  0.45594000000E+02  0.51100000000E-03 0. -1.
         23    2    1    2    0    0  0.00000000000E+00 -0.17763568394E-14  0.88817841970E-15  0.91188000000E+02  0.91188000000E+02 0.  0.
    9900012    2    3    3    0    0  0.34734070828E+02  0.98144548973E+01 -0.72801357652E+01  0.54367087763E+02  0.40000008173E+02 0.  0.
        -12    1    3    3    0    0 -0.34734070828E+02 -0.98144548973E+01  0.72801357652E+01  0.36820912237E+02  0.00000000000E+00 0.  1.
         11    1    4    4    0    0 -0.20753462395E+01  0.15051481335E+01 -0.27861167126E+01  0.37861562983E+01  0.51100000000E-03 0. -1.
        -11    1    4    4    0    0  0.37740354330E+02 -0.32198037343E+01 -0.75384918428E+01  0.38620335842E+02  0.51100000000E-03 0.  1.
        -12    1    4    4    0    0 -0.93093726236E+00  0.11529110498E+02  0.30444727903E+01  0.11960595622E+02  0.00000000000E+00 0.  1.
</event>
<event>
 8    1  0.2472977E-006  0.9118800E+02  0.7816164E-02  0.1184000E+00
        -11   -1    0    0    0    0  0.00000000000E+00  0.00000000000E+00  0.45593999997E+02  0.45594000000E+02  0.51100000000E-03 0.  1.
         11   -1    0    0    0    0 -0.00000000000E+00 -0.00000000000E+00 -0.45593999997E+02  0.45594000000E+02  0.51100000000E-03 0. -1.
         23    2    1    2    0    0  0.00000000000E+00 -0.35527136788E-14  0.35527136788E-14  0.91188000000E+02  0.91188000000E+02 0.  0.
    9900012    2    3    3    0    0  0.60087900777E+01 -0.24349183049E+02 -0.26959077226E+02  0.54367080427E+02  0.39999991449E+02 0.  0.
        -12    1    3    3    0    0 -0.60087900777E+01  0.24349183049E+02  0.26959077226E+02  0.36820919573E+02  0.00000000000E+00 0.  1.
         11    1    4    4    0    0  0.59390083123E+01 -0.15755420122E+02 -0.29986750796E+02  0.34390555484E+02  0.51100000000E-03 0. -1.
        -11    1    4    4    0    0  0.28093642702E+00 -0.12919410478E+02 -0.22843418424E+01  0.13122816401E+02  0.51100000000E-03 0.  1.
        -12    1    4    4    0    0 -0.21115466160E+00  0.43256475515E+01  0.53120154123E+01  0.68537085415E+01  0.00000000000E+00 0.  1.
</event>
<event>
 8    1  0.2472977E-006  0.9118800E+02  0.7816164E-02  0.1184000E+00
        -11   -1    0    0    0    0  0.00000000000E+00  0.00000000000E+00  0.45593999997E+02  0.45594000000E+02  0.51100000000E-03 0.  1.
         11   -1    0    0    0    0 -0.00000000000E+00 -0.00000000000E+00 -0.45593999997E+02  0.45594000000E+02  0.51100000000E-03 0. -1.
         23    2    1    2    0    0 -0.35527136788E-14  0.00000000000E+00  0.88817841970E-15  0.91188000000E+02  0.91188000000E+02 0.  0.
    9900012    2    3    3    0    0 -0.20469584223E+02  0.29841834099E+02  0.68002905213E+01  0.54367042763E+02  0.39999905586E+02 0.  0.
         12    1    3    3    0    0  0.20469584223E+02 -0.29841834099E+02 -0.68002905213E+01  0.36820957237E+02  0.00000000000E+00 0. -1.
         11    1    4    4    0    0 -0.10707907158E+02  0.10370489369E+02  0.63468297603E+01  0.16201499120E+02  0.51100000000E-03 0.  1.
        -11    1    4    4    0    0  0.77075196306E+01  0.78846012933E+01  0.10225050148E+02  0.15037434861E+02  0.51100000000E-03 0. -1.
         12    1    4    4    0    0 -0.17469196696E+02  0.11586743437E+02 -0.97715893871E+01  0.23128108782E+02  0.00000000000E+00 0. -1.
</event>
<event>
 8    1  0.2472977E-006  0.9118800E+02  0.7816164E-02  0.1184000E+00
        -11   -1    0    0    0    0  0.00000000000E+00  0.00000000000E+00  0.45593999997E+02  0.45594000000E+02  0.51100000000E-03 0.  1.
         11   -1    0    0    0    0 -0.00000000000E+00 -0.00000000000E+00 -0.45593999997E+02  0.45594000000E+02  0.51100000000E-03 0. -1.
         23    2    1    2    0    0  0.00000000000E+00 -0.88817841970E-15  0.00000000000E+00  0.91188000000E+02  0.91188000000E+02 0.  0.
    9900012    2    3    3    0    0 -0.26827074947E+02  0.67162539291E+01  0.24310081595E+02  0.54367080889E+02  0.39999992502E+02 0.  0.
         12    1    3    3    0    0  0.26827074947E+02 -0.67162539291E+01 -0.24310081595E+02  0.36820919111E+02  0.00000000000E+00 0. -1.
         11    1    4    4    0    0  0.66952084082E-01 -0.11348529615E+02  0.88465297378E+01  0.14389395250E+02  0.51100000000E-03 0. -1.
        -11    1    4    4    0    0 -0.19089330963E+02  0.13643430207E+02  0.16687810812E+01  0.23522979722E+02  0.51100000000E-03 0.  1.
        -12    1    4    4    0    0 -0.78046960679E+01  0.44213533376E+01  0.13794770776E+02  0.16454705917E+02  0.00000000000E+00 0.  1.
</event>
<event>
 8    1  0.2472977E-006  0.9118800E+02  0.7816164E-02  0.1184000E+00
        -11   -1    0    0    0    0  0.00000000000E+00  0.00000000000E+00  0.45593999997E+02  0.45594000000E+02  0.51100000000E-03 0.  1.
         11   -1    0    0    0    0 -0.00000000000E+00 -0.00000000000E+00 -0.45593999997E+02  0.45594000000E+02  0.51100000000E-03 0. -1.
         23    2    1    2    0    0 -0.71054273576E-14 -0.88817841970E-15  0.00000000000E+00  0.91188000000E+02  0.91188000000E+02 0.  0.
    9900012    2    3    3    0    0 -0.35255216315E+02 -0.63330706792E+01 -0.85288547121E+01  0.54367089849E+02  0.40000012929E+02 0.  0.
        -12    1    3    3    0    0  0.35255216315E+02  0.63330706792E+01  0.85288547121E+01  0.36820910151E+02  0.00000000000E+00 0.  1.
         11    1    4    4    0    0  0.29742634025E+01 -0.90624005095E-01 -0.21126588538E+01  0.36493538047E+01  0.51100000000E-03 0. -1.
        -11    1    4    4    0    0 -0.13698213860E+02 -0.15883779652E+02 -0.11430594782E+02  0.23887109836E+02  0.51100000000E-03 0.  1.
        -12    1    4    4    0    0 -0.24531265858E+02  0.96413329781E+01  0.50143989236E+01  0.26830626208E+02  0.00000000000E+00 0.  1.
</event>
<event>
 8    1  0.2472977E-006  0.9118800E+02  0.7816164E-02  0.1184000E+00
        -11   -1    0    0    0    0  0.00000000000E+00  0.00000000000E+00  0.45593999997E+02  0.45594000000E+02  0.51100000000E-03 0.  1.
         11   -1    0    0    0    0 -0.00000000000E+00 -0.00000000000E+00 -0.45593999997E+02  0.45594000000E+02  0.51100000000E-03 0. -1.
         23    2    1    2    0    0 -0.35527136788E-14  0.44408920985E-15  0.35527136788E-14  0.91188000000E+02  0.91188000000E+02 0.  0.
    9900012    2    3    3    0    0 -0.24410719702E+02  0.19341905319E+01  0.27498214966E+02  0.54367134235E+02  0.40000114116E+02 0.  0.
         12    1    3    3    0    0  0.24410719702E+02 -0.19341905319E+01 -0.27498214966E+02  0.36820865765E+02  0.00000000000E+00 0. -1.
         11    1    4    4    0    0 -0.28597792797E+02 -0.65802555082E+01  0.12795272435E+02  0.32013317734E+02  0.51100000000E-03 0. -1.
        -11    1    4    4    0    0 -0.50933915211E+01  0.20367357237E+01  0.41362573035E+01  0.68701931805E+01  0.51100000000E-03 0.  1.
        -12    1    4    4    0    0  0.92804646162E+01  0.64777103163E+01  0.10566685227E+02  0.15483623320E+02  0.00000000000E+00 0.  1.
</event>
<event>
 8    1  0.2472977E-006  0.9118800E+02  0.7816164E-02  0.1184000E+00
        -11   -1    0    0    0    0  0.00000000000E+00  0.00000000000E+00  0.45593999997E+02  0.45594000000E+02  0.51100000000E-03 0.  1.
         11   -1    0    0    0    0 -0.00000000000E+00 -0.00000000000E+00 -0.45593999997E+02  0.45594000000E+02  0.51100000000E-03 0. -1.
         23    2    1    2    0    0 -0.44408920985E-15  0.00000000000E+00  0.00000000000E+00  0.91188000000E+02  0.91188000000E+02 0.  0.
    9900012    2    3    3    0    0  0.83253049777E+00 -0.23811494615E+02 -0.28073117644E+02  0.54367077726E+02  0.39999985293E+02 0.  0.
        -12    1    3    3    0    0 -0.83253049777E+00  0.23811494615E+02  0.28073117644E+02  0.36820922274E+02  0.00000000000E+00 0.  1.
         11    1    4    4    0    0 -0.10941423936E+01 -0.23789266312E+01 -0.11092762564E+02  0.11397623483E+02  0.51100000000E-03 0. -1.
        -11    1    4    4    0    0 -0.16151826019E+01  0.81719705394E+01 -0.86568298287E+01  0.12013767947E+02  0.51100000000E-03 0.  1.
         12    1    4    4    0    0  0.35418554933E+01 -0.29604538523E+02 -0.83235252513E+01  0.30955686297E+02  0.00000000000E+00 0. -1.
</event>
<event>
 8    1  0.2472977E-006  0.9118800E+02  0.7816164E-02  0.1184000E+00
        -11   -1    0    0    0    0  0.00000000000E+00  0.00000000000E+00  0.45593999997E+02  0.45594000000E+02  0.51100000000E-03 0.  1.
         11   -1    0    0    0    0 -0.00000000000E+00 -0.00000000000E+00 -0.45593999997E+02  0.45594000000E+02  0.51100000000E-03 0. -1.
         23    2    1    2    0    0  0.00000000000E+00  0.00000000000E+00 -0.17763568394E-14  0.91188000000E+02  0.91188000000E+02 0.  0.
    9900012    2    3    3    0    0  0.13699948601E+02 -0.31137667631E+02  0.14090305708E+02  0.54367086756E+02  0.40000005878E+02 0.  0.
         12    1    3    3    0    0 -0.13699948601E+02  0.31137667631E+02 -0.14090305708E+02  0.36820913244E+02  0.00000000000E+00 0. -1.
         11    1    4    4    0    0  0.32871043586E+01 -0.41608305927E+01  0.15372450455E+02  0.16261297597E+02  0.51100000000E-03 0.  1.
        -11    1    4    4    0    0 -0.48632358970E+01 -0.78050679509E+01  0.77043166165E+01  0.11996943106E+02  0.51100000000E-03 0. -1.
         12    1    4    4    0    0  0.15276080139E+02 -0.19171769087E+02 -0.89864613637E+01  0.26108846053E+02  0.00000000000E+00 0. -1.
</event>
<event>
 8    1  0.2472977E-006  0.9118800E+02  0.7816164E-02  0.1184000E+00
        -11   -1    0    0    0    0  0.00000000000E+00  0.00000000000E+00  0.45593999997E+02  0.45594000000E+02  0.51100000000E-03 0.  1.
         11   -1    0    0    0    0 -0.00000000000E+00 -0.00000000000E+00 -0.45593999997E+02  0.45594000000E+02  0.51100000000E-03 0. -1.
         23    2    1    2    0    0  0.00000000000E+00 -0.35527136788E-14  0.00000000000E+00  0.91188000000E+02  0.91188000000E+02 0.  0.
    9900012    2    3    3    0    0 -0.84960453880E+01 -0.26004902772E+02  0.24644337069E+02  0.54367067027E+02  0.39999960901E+02 0.  0.
         12    1    3    3    0    0  0.84960453880E+01  0.26004902772E+02 -0.24644337069E+02  0.36820932973E+02  0.00000000000E+00 0. -1.
         11    1    4    4    0    0  0.12025977389E+01 -0.60792469069E-01  0.57247871443E+01  0.58500534318E+01  0.51100000000E-03 0. -1.
        -11    1    4    4    0    0 -0.19473446075E+02 -0.14877579574E+02  0.22560217568E+02  0.33309471521E+02  0.51100000000E-03 0.  1.
        -12    1    4    4    0    0  0.97748029484E+01 -0.11066530729E+02 -0.36406676427E+01  0.15207542074E+02  0.00000000000E+00 0.  1.
</event>
<event>
 8    1  0.2472977E-006  0.9118800E+02  0.7816164E-02  0.1184000E+00
        -11   -1    0    0    0    0  0.00000000000E+00  0.00000000000E+00  0.45593999997E+02  0.45594000000E+02  0.51100000000E-03 0.  1.
         11   -1    0    0    0    0 -0.00000000000E+00 -0.00000000000E+00 -0.45593999997E+02  0.45594000000E+02  0.51100000000E-03 0. -1.
         23    2    1    2    0    0 -0.22204460493E-15  0.00000000000E+00  0.00000000000E+00  0.91188000000E+02  0.91188000000E+02 0.  0.
    9900012    2    3    3    0    0  0.11086085034E+01  0.32698198203E+02 -0.16893135800E+02  0.54367092682E+02  0.40000019388E+02 0.  0.
        -12    1    3    3    0    0 -0.11086085034E+01 -0.32698198203E+02  0.16893135800E+02  0.36820907318E+02  0.00000000000E+00 0.  1.
         11    1    4    4    0    0 -0.57690221508E+01  0.15735171436E+02 -0.22819334587E+01  0.16914031373E+02  0.51100000000E-03 0. -1.
        -11    1    4    4    0    0 -0.60382399608E+01  0.20264228101E+02 -0.93913322384E+01  0.23136473452E+02  0.51100000000E-03 0.  1.
        -12    1    4    4    0    0  0.12915870615E+02 -0.33012013334E+01 -0.52198701025E+01  0.14316587857E+02  0.00000000000E+00 0.  1.
</event>
<event>
 8    1  0.2472977E-006  0.9118800E+02  0.7816164E-02  0.1184000E+00
        -11   -1    0    0    0    0  0.00000000000E+00  0.00000000000E+00  0.45593999997E+02  0.45594000000E+02  0.51100000000E-03 0. -1.
         11   -1    0    0    0    0 -0.00000000000E+00 -0.00000000000E+00 -0.45593999997E+02  0.45594000000E+02  0.51100000000E-03 0.  1.
         23    2    1    2    0    0  0.00000000000E+00 -0.35527136788E-14  0.00000000000E+00  0.91188000000E+02  0.91188000000E+02 0.  0.
    9900012    2    3    3    0    0 -0.26821103451E+01  0.25547942555E+02  0.26379707055E+02  0.54367081639E+02  0.39999994211E+02 0.  0.
        -12    1    3    3    0    0  0.26821103451E+01 -0.25547942555E+02 -0.26379707055E+02  0.36820918361E+02  0.00000000000E+00 0.  1.
         11    1    4    4    0    0 -0.79266271974E+01  0.15992524459E+01  0.65061313054E+01  0.10378765434E+02  0.51100000000E-03 0. -1.
        -11    1    4    4    0    0 -0.26520137305E+01  0.24581565641E+02  0.24461947020E+01  0.24844927349E+02  0.51100000000E-03 0.  1.
         12    1    4    4    0    0  0.78965305828E+01 -0.63287553260E+00  0.17427381048E+02  0.19143388855E+02  0.00000000000E+00 0. -1.
</event>
<event>
 8    1  0.2472977E-006  0.9118800E+02  0.7816164E-02  0.1184000E+00
        -11   -1    0    0    0    0  0.00000000000E+00  0.00000000000E+00  0.45593999997E+02  0.45594000000E+02  0.51100000000E-03 0. -1.
         11   -1    0    0    0    0 -0.00000000000E+00 -0.00000000000E+00 -0.45593999997E+02  0.45594000000E+02  0.51100000000E-03 0.  1.
         23    2    1    2    0    0 -0.17763568394E-14  0.00000000000E+00  0.00000000000E+00  0.91188000000E+02  0.91188000000E+02 0.  0.
    9900012    2    3    3    0    0 -0.10699195560E+02 -0.23310294683E+01 -0.35154957510E+02  0.54367115688E+02  0.40000071834E+02 0.  0.
         12    1    3    3    0    0  0.10699195560E+02  0.23310294683E+01  0.35154957510E+02  0.36820884312E+02  0.00000000000E+00 0. -1.
         11    1    4    4    0    0 -0.67146538688E+01 -0.86984113386E+01 -0.22331831760E+02  0.24888946270E+02  0.51100000000E-03 0. -1.
        -11    1    4    4    0    0  0.85393416846E+01 -0.37036743992E+01 -0.90242884401E+01  0.12964387474E+02  0.51100000000E-03 0.  1.
         12    1    4    4    0    0 -0.12523883376E+02  0.10071056270E+02 -0.37988373090E+01  0.16513781944E+02  0.00000000000E+00 0. -1.
</event>
<event>
 8    1  0.2472977E-006  0.9118800E+02  0.7816164E-02  0.1184000E+00
        -11   -1    0    0    0    0  0.00000000000E+00  0.00000000000E+00  0.45593999997E+02  0.45594000000E+02  0.51100000000E-03 0.  1.
         11   -1    0    0    0    0 -0.00000000000E+00 -0.00000000000E+00 -0.45593999997E+02  0.45594000000E+02  0.51100000000E-03 0. -1.
         23    2    1    2    0    0  0.00000000000E+00  0.00000000000E+00  0.17763568394E-14  0.91188000000E+02  0.91188000000E+02 0.  0.
    9900012    2    3    3    0    0  0.35333546792E+02 -0.65310778726E+01 -0.80414664026E+01  0.54367086255E+02  0.40000004736E+02 0.  0.
        -12    1    3    3    0    0 -0.35333546792E+02  0.65310778726E+01  0.80414664026E+01  0.36820913745E+02  0.00000000000E+00 0.  1.
         11    1    4    4    0    0  0.12868346048E+02 -0.87422082831E+01 -0.58818801716E+01  0.16631808389E+02  0.51100000000E-03 0. -1.
        -11    1    4    4    0    0  0.13756175366E+02 -0.65648247344E+01  0.11661077010E+02  0.19191404372E+02  0.51100000000E-03 0.  1.
         12    1    4    4    0    0  0.87090253786E+01  0.87759551449E+01 -0.13820663241E+02  0.18543873494E+02  0.00000000000E+00 0. -1.
</event>
<event>
 8    1  0.2472977E-006  0.9118800E+02  0.7816164E-02  0.1184000E+00
        -11   -1    0    0    0    0  0.00000000000E+00  0.00000000000E+00  0.45593999997E+02  0.45594000000E+02  0.51100000000E-03 0.  1.
         11   -1    0    0    0    0 -0.00000000000E+00 -0.00000000000E+00 -0.45593999997E+02  0.45594000000E+02  0.51100000000E-03 0. -1.
         23    2    1    2    0    0 -0.35527136788E-14 -0.88817841970E-15  0.00000000000E+00  0.91188000000E+02  0.91188000000E+02 0.  0.
    9900012    2    3    3    0    0 -0.30984450464E+02  0.48768815139E+01  0.19286258059E+02  0.54367083475E+02  0.39999998398E+02 0.  0.
         12    1    3    3    0    0  0.30984450464E+02 -0.48768815139E+01 -0.19286258059E+02  0.36820916525E+02  0.00000000000E+00 0. -1.
         11    1    4    4    0    0 -0.29157130585E+01  0.81788545966E+01 -0.58701200465E+01  0.10481095113E+02  0.51100000000E-03 0. -1.
        -11    1    4    4    0    0 -0.18134516040E+02  0.49149119366E+01  0.41540945408E+01  0.19242492902E+02  0.51100000000E-03 0.  1.
        -12    1    4    4    0    0 -0.99342213648E+01 -0.82168850193E+01  0.21002283565E+02  0.24643495460E+02  0.00000000000E+00 0.  1.
</event>
<event>
 8    1  0.2472977E-006  0.9118800E+02  0.7816164E-02  0.1184000E+00
        -11   -1    0    0    0    0  0.00000000000E+00  0.00000000000E+00  0.45593999997E+02  0.45594000000E+02  0.51100000000E-03 0. -1.
         11   -1    0    0    0    0 -0.00000000000E+00 -0.00000000000E+00 -0.45593999997E+02  0.45594000000E+02  0.51100000000E-03 0.  1.
         23    2    1    2    0    0 -0.35527136788E-14  0.00000000000E+00  0.00000000000E+00  0.91188000000E+02  0.91188000000E+02 0.  0.
    9900012    2    3    3    0    0  0.28485206308E+02 -0.60466420884E+01 -0.22534660822E+02  0.54367084784E+02  0.40000001383E+02 0.  0.
         12    1    3    3    0    0 -0.28485206308E+02  0.60466420884E+01  0.22534660822E+02  0.36820915216E+02  0.00000000000E+00 0. -1.
         11    1    4    4    0    0  0.83417932477E+00 -0.89913509621E+00  0.21557143880E+01  0.24802023810E+01  0.51100000000E-03 0. -1.
        -11    1    4    4    0    0  0.99447705511E+01 -0.87764148802E+01  0.73028419183E+01  0.15141182907E+02  0.51100000000E-03 0.  1.
         12    1    4    4    0    0  0.17706256432E+02  0.36289078880E+01 -0.31993217128E+02  0.36745699497E+02  0.00000000000E+00 0. -1.
</event>
<event>
 8    1  0.2472977E-006  0.9118800E+02  0.7816164E-02  0.1184000E+00
        -11   -1    0    0    0    0  0.00000000000E+00  0.00000000000E+00  0.45593999997E+02  0.45594000000E+02  0.51100000000E-03 0.  1.
         11   -1    0    0    0    0 -0.00000000000E+00 -0.00000000000E+00 -0.45593999997E+02  0.45594000000E+02  0.51100000000E-03 0. -1.
         23    2    1    2    0    0  0.00000000000E+00  0.11102230246E-15  0.00000000000E+00  0.91188000000E+02  0.91188000000E+02 0.  0.
    9900012    2    3    3    0    0 -0.10868568669E+02 -0.64126539995E+00  0.35174347268E+02  0.54367194577E+02  0.40000251677E+02 0.  0.
         12    1    3    3    0    0  0.10868568669E+02  0.64126539995E+00 -0.35174347268E+02  0.36820805423E+02  0.00000000000E+00 0. -1.
         11    1    4    4    0    0  0.62195279478E+01  0.19153274145E+00  0.72041915804E+00  0.62640415635E+01  0.51100000000E-03 0.  1.
        -11    1    4    4    0    0 -0.15810633221E+02 -0.69775921599E+01  0.50038066914E+01  0.17991692441E+02  0.51100000000E-03 0. -1.
        -12    1    4    4    0    0 -0.12774633954E+01  0.61447940185E+01  0.29450121419E+02  0.30111460573E+02  0.00000000000E+00 0.  1.
</event>
<event>
 8    1  0.2472977E-006  0.9118800E+02  0.7816164E-02  0.1184000E+00
        -11   -1    0    0    0    0  0.00000000000E+00  0.00000000000E+00  0.45593999997E+02  0.45594000000E+02  0.51100000000E-03 0. -1.
         11   -1    0    0    0    0 -0.00000000000E+00 -0.00000000000E+00 -0.45593999997E+02  0.45594000000E+02  0.51100000000E-03 0.  1.
         23    2    1    2    0    0  0.00000000000E+00 -0.88817841970E-15 -0.35527136788E-14  0.91188000000E+02  0.91188000000E+02 0.  0.
    9900012    2    3    3    0    0 -0.29900357808E+02 -0.70888185133E+01 -0.20285390215E+02  0.54367084733E+02  0.40000001265E+02 0.  0.
         12    1    3    3    0    0  0.29900357808E+02  0.70888185133E+01  0.20285390215E+02  0.36820915267E+02  0.00000000000E+00 0. -1.
         11    1    4    4    0    0 -0.84147947490E+01 -0.10399275379E+02 -0.96184153381E+01  0.16476274244E+02  0.51100000000E-03 0. -1.
        -11    1    4    4    0    0 -0.25191055869E+02 -0.41886405724E+01 -0.13716625270E+02  0.28987580352E+02  0.51100000000E-03 0.  1.
         12    1    4    4    0    0  0.37054928098E+01  0.74990974380E+01  0.30496503930E+01  0.89032301367E+01  0.00000000000E+00 0. -1.
</event>
<event>
 8    1  0.2472977E-006  0.9118800E+02  0.7816164E-02  0.1184000E+00
        -11   -1    0    0    0    0  0.00000000000E+00  0.00000000000E+00  0.45593999997E+02  0.45594000000E+02  0.51100000000E-03 0. -1.
         11   -1    0    0    0    0 -0.00000000000E+00 -0.00000000000E+00 -0.45593999997E+02  0.45594000000E+02  0.51100000000E-03 0.  1.
         23    2    1    2    0    0 -0.88817841970E-15 -0.71054273576E-14  0.35527136788E-14  0.91188000000E+02  0.91188000000E+02 0.  0.
    9900012    2    3    3    0    0 -0.61412135051E+01  0.33001391681E+02  0.15131978015E+02  0.54367039735E+02  0.39999898683E+02 0.  0.
        -12    1    3    3    0    0  0.61412135051E+01 -0.33001391681E+02 -0.15131978015E+02  0.36820960265E+02  0.00000000000E+00 0.  1.
         11    1    4    4    0    0  0.18265538105E+01  0.10247973323E+02 -0.15317578268E+01  0.10521574899E+02  0.51100000000E-03 0. -1.
        -11    1    4    4    0    0 -0.16459563351E+02  0.19021781690E+02  0.44108216506E+00  0.25158297997E+02  0.51100000000E-03 0.  1.
         12    1    4    4    0    0  0.84917960358E+01  0.37316366680E+01  0.16222653677E+02  0.18687166839E+02  0.00000000000E+00 0. -1.
</event>
<event>
 8    1  0.2472977E-006  0.9118800E+02  0.7816164E-02  0.1184000E+00
        -11   -1    0    0    0    0  0.00000000000E+00  0.00000000000E+00  0.45593999997E+02  0.45594000000E+02  0.51100000000E-03 0. -1.
         11   -1    0    0    0    0 -0.00000000000E+00 -0.00000000000E+00 -0.45593999997E+02  0.45594000000E+02  0.51100000000E-03 0.  1.
         23    2    1    2    0    0 -0.35527136788E-14 -0.17763568394E-14  0.71054273576E-14  0.91188000000E+02  0.91188000000E+02 0.  0.
    9900012    2    3    3    0    0 -0.99571599642E+01 -0.10225707927E+02  0.33942138267E+02  0.54367097142E+02  0.40000029554E+02 0.  0.
        -12    1    3    3    0    0  0.99571599642E+01  0.10225707927E+02 -0.33942138267E+02  0.36820902858E+02  0.00000000000E+00 0.  1.
         11    1    4    4    0    0 -0.95525413046E+01 -0.53066276520E+01  0.10538071428E+02  0.15180984556E+02  0.51100000000E-03 0. -1.
        -11    1    4    4    0    0  0.74697780830E+01 -0.50034182372E+01 -0.45977384514E+01  0.10098068023E+02  0.51100000000E-03 0.  1.
        -12    1    4    4    0    0 -0.78743967426E+01  0.84337961997E-01  0.28001805291E+02  0.29088044563E+02  0.00000000000E+00 0.  1.
</event>
<event>
 8    1  0.2472977E-006  0.9118800E+02  0.7816164E-02  0.1184000E+00
        -11   -1    0    0    0    0  0.00000000000E+00  0.00000000000E+00  0.45593999997E+02  0.45594000000E+02  0.51100000000E-03 0. -1.
         11   -1    0    0    0    0 -0.00000000000E+00 -0.00000000000E+00 -0.45593999997E+02  0.45594000000E+02  0.51100000000E-03 0.  1.
         23    2    1    2    0    0  0.00000000000E+00  0.00000000000E+00  0.00000000000E+00  0.91188000000E+02  0.91188000000E+02 0.  0.
    9900012    2    3    3    0    0 -0.22110919065E+02 -0.10218854346E+02  0.27612743754E+02  0.54367063786E+02  0.39999953513E+02 0.  0.
        -12    1    3    3    0    0  0.22110919065E+02  0.10218854346E+02 -0.27612743754E+02  0.36820936214E+02  0.00000000000E+00 0.  1.
         11    1    4    4    0    0  0.47782084921E+00 -0.85862754512E+00 -0.13038500768E+01  0.16326601940E+01  0.51100000000E-03 0.  1.
        -11    1    4    4    0    0 -0.18486058729E+02  0.51774522267E+01  0.32000623067E+02  0.37317291646E+02  0.51100000000E-03 0. -1.
        -12    1    4    4    0    0 -0.41026811856E+01 -0.14537679027E+02 -0.30840292364E+01  0.15417111946E+02  0.00000000000E+00 0.  1.
</event>
<event>
 8    1  0.2472977E-006  0.9118800E+02  0.7816164E-02  0.1184000E+00
        -11   -1    0    0    0    0  0.00000000000E+00  0.00000000000E+00  0.45593999997E+02  0.45594000000E+02  0.51100000000E-03 0.  1.
         11   -1    0    0    0    0 -0.00000000000E+00 -0.00000000000E+00 -0.45593999997E+02  0.45594000000E+02  0.51100000000E-03 0. -1.
         23    2    1    2    0    0  0.00000000000E+00 -0.35527136788E-14  0.00000000000E+00  0.91188000000E+02  0.91188000000E+02 0.  0.
    9900012    2    3    3    0    0 -0.31983040936E+02  0.18071885144E+02 -0.25052514507E+01  0.54367024660E+02  0.39999864316E+02 0.  0.
        -12    1    3    3    0    0  0.31983040936E+02 -0.18071885144E+02  0.25052514507E+01  0.36820975340E+02  0.00000000000E+00 0.  1.
         11    1    4    4    0    0 -0.66568249637E+00  0.67888211741E+01 -0.30383828001E+01  0.74674625155E+01  0.51100000000E-03 0. -1.
        -11    1    4    4    0    0 -0.21922633476E+01 -0.12078866927E+01 -0.12415748458E+02  0.12665536660E+02  0.51100000000E-03 0.  1.
        -12    1    4    4    0    0 -0.29125095092E+02  0.12490950663E+02  0.12948879807E+02  0.34234025484E+02  0.00000000000E+00 0.  1.
</event>
<event>
 8    1  0.2472977E-006  0.9118800E+02  0.7816164E-02  0.1184000E+00
        -11   -1    0    0    0    0  0.00000000000E+00  0.00000000000E+00  0.45593999997E+02  0.45594000000E+02  0.51100000000E-03 0. -1.
         11   -1    0    0    0    0 -0.00000000000E+00 -0.00000000000E+00 -0.45593999997E+02  0.45594000000E+02  0.51100000000E-03 0.  1.
         23    2    1    2    0    0  0.00000000000E+00 -0.35527136788E-14  0.00000000000E+00  0.91188000000E+02  0.91188000000E+02 0.  0.
    9900012    2    3    3    0    0 -0.16638607917E+02 -0.19613146348E+02 -0.26348831958E+02  0.54367085717E+02  0.40000003510E+02 0.  0.
         12    1    3    3    0    0  0.16638607917E+02  0.19613146348E+02  0.26348831958E+02  0.36820914283E+02  0.00000000000E+00 0. -1.
         11    1    4    4    0    0 -0.16202170251E+02 -0.26628930213E+01 -0.15387932714E+02  0.22503106309E+02  0.51100000000E-03 0. -1.
        -11    1    4    4    0    0 -0.78335134872E+01 -0.39637331275E+01 -0.14083521187E+02  0.16595803179E+02  0.51100000000E-03 0.  1.
         12    1    4    4    0    0  0.73970758211E+01 -0.12986520199E+02  0.31226219433E+01  0.15268176230E+02  0.00000000000E+00 0. -1.
</event>
<event>
 8    1  0.2472977E-006  0.9118800E+02  0.7816164E-02  0.1184000E+00
        -11   -1    0    0    0    0  0.00000000000E+00  0.00000000000E+00  0.45593999997E+02  0.45594000000E+02  0.51100000000E-03 0.  1.
         11   -1    0    0    0    0 -0.00000000000E+00 -0.00000000000E+00 -0.45593999997E+02  0.45594000000E+02  0.51100000000E-03 0. -1.
         23    2    1    2    0    0  0.35527136788E-14  0.00000000000E+00  0.00000000000E+00  0.91188000000E+02  0.91188000000E+02 0.  0.
    9900012    2    3    3    0    0 -0.24345100056E+02  0.24982936929E+02 -0.11787631161E+02  0.54367091772E+02  0.40000017313E+02 0.  0.
        -12    1    3    3    0    0  0.24345100056E+02 -0.24982936929E+02  0.11787631161E+02  0.36820908228E+02  0.00000000000E+00 0.  1.
         11    1    4    4    0    0 -0.32048296344E+02  0.22172254895E+02 -0.13505766194E+02  0.41244489407E+02  0.51100000000E-03 0. -1.
        -11    1    4    4    0    0  0.14565469396E+01 -0.18222851437E+01  0.43300641193E+01  0.49185066505E+01  0.51100000000E-03 0.  1.
        -12    1    4    4    0    0  0.62466493480E+01  0.46329671779E+01 -0.26119290865E+01  0.82040957150E+01  0.00000000000E+00 0.  1.
</event>
<event>
 8    1  0.2472977E-006  0.9118800E+02  0.7816164E-02  0.1184000E+00
        -11   -1    0    0    0    0  0.00000000000E+00  0.00000000000E+00  0.45593999997E+02  0.45594000000E+02  0.51100000000E-03 0. -1.
         11   -1    0    0    0    0 -0.00000000000E+00 -0.00000000000E+00 -0.45593999997E+02  0.45594000000E+02  0.51100000000E-03 0.  1.
         23    2    1    2    0    0  0.00000000000E+00  0.00000000000E+00  0.00000000000E+00  0.91188000000E+02  0.91188000000E+02 0.  0.
    9900012    2    3    3    0    0  0.15906948213E+02  0.31629771806E+02  0.10114585102E+02  0.54367105147E+02  0.40000047805E+02 0.  0.
        -12    1    3    3    0    0 -0.15906948213E+02 -0.31629771806E+02 -0.10114585102E+02  0.36820894853E+02  0.00000000000E+00 0.  1.
         11    1    4    4    0    0  0.16821656412E+02  0.96665809215E+01 -0.15657943437E+01  0.19464393732E+02  0.51100000000E-03 0. -1.
        -11    1    4    4    0    0 -0.81195043480E+00  0.11936906559E+02  0.19024496222E+02  0.22473995160E+02  0.51100000000E-03 0.  1.
        -12    1    4    4    0    0 -0.10275776416E+00  0.10026284325E+02 -0.73441167764E+01  0.12428716255E+02  0.00000000000E+00 0.  1.
</event>
<event>
 8    1  0.2472977E-006  0.9118800E+02  0.7816164E-02  0.1184000E+00
        -11   -1    0    0    0    0  0.00000000000E+00  0.00000000000E+00  0.45593999997E+02  0.45594000000E+02  0.51100000000E-03 0.  1.
         11   -1    0    0    0    0 -0.00000000000E+00 -0.00000000000E+00 -0.45593999997E+02  0.45594000000E+02  0.51100000000E-03 0. -1.
         23    2    1    2    0    0 -0.35527136788E-14 -0.35527136788E-14 -0.17763568394E-14  0.91188000000E+02  0.91188000000E+02 0.  0.
    9900012    2    3    3    0    0  0.29036141089E+02  0.21937335525E+02  0.56066663759E+01  0.54367097144E+02  0.40000029560E+02 0.  0.
         12    1    3    3    0    0 -0.29036141089E+02 -0.21937335525E+02 -0.56066663759E+01  0.36820902856E+02  0.00000000000E+00 0. -1.
         11    1    4    4    0    0 -0.18120770962E+01 -0.17020410431E+00 -0.51433294604E+01  0.54558620803E+01  0.51100000000E-03 0. -1.
        -11    1    4    4    0    0  0.11416291311E+02  0.89811243150E+01 -0.99706122337E+01  0.17618325965E+02  0.51100000000E-03 0.  1.
        -12    1    4    4    0    0  0.19431926874E+02  0.13126415314E+02  0.20720608070E+02  0.31292909098E+02  0.00000000000E+00 0.  1.
</event>
<event>
 8    1  0.2472977E-006  0.9118800E+02  0.7816164E-02  0.1184000E+00
        -11   -1    0    0    0    0  0.00000000000E+00  0.00000000000E+00  0.45593999997E+02  0.45594000000E+02  0.51100000000E-03 0.  1.
         11   -1    0    0    0    0 -0.00000000000E+00 -0.00000000000E+00 -0.45593999997E+02  0.45594000000E+02  0.51100000000E-03 0. -1.
         23    2    1    2    0    0  0.00000000000E+00 -0.35527136788E-14 -0.35527136788E-14  0.91188000000E+02  0.91188000000E+02 0.  0.
    9900012    2    3    3    0    0  0.22839240869E+02 -0.14818427075E+02 -0.24790369558E+02  0.54367093883E+02  0.40000022125E+02 0.  0.
        -12    1    3    3    0    0 -0.22839240869E+02  0.14818427075E+02  0.24790369558E+02  0.36820906117E+02  0.00000000000E+00 0.  1.
         11    1    4    4    0    0  0.10426791219E+02 -0.60841818676E+01 -0.72013606451E+01  0.14056843157E+02  0.51100000000E-03 0. -1.
        -11    1    4    4    0    0  0.21133689808E+02 -0.13931746929E+02 -0.85518084270E+01  0.26718155719E+02  0.51100000000E-03 0.  1.
        -12    1    4    4    0    0 -0.87212401587E+01  0.51975017219E+01 -0.90372004859E+01  0.13592095007E+02  0.00000000000E+00 0.  1.
</event>
<event>
 8    1  0.2472977E-006  0.9118800E+02  0.7816164E-02  0.1184000E+00
        -11   -1    0    0    0    0  0.00000000000E+00  0.00000000000E+00  0.45593999997E+02  0.45594000000E+02  0.51100000000E-03 0.  1.
         11   -1    0    0    0    0 -0.00000000000E+00 -0.00000000000E+00 -0.45593999997E+02  0.45594000000E+02  0.51100000000E-03 0. -1.
         23    2    1    2    0    0  0.44408920985E-15 -0.71054273576E-14  0.00000000000E+00  0.91188000000E+02  0.91188000000E+02 0.  0.
    9900012    2    3    3    0    0  0.21424877761E+01 -0.33366028527E+02  0.15423934234E+02  0.54367083922E+02  0.39999999418E+02 0.  0.
         12    1    3    3    0    0 -0.21424877761E+01  0.33366028527E+02 -0.15423934234E+02  0.36820916078E+02  0.00000000000E+00 0. -1.
         11    1    4    4    0    0 -0.92528049739E+01  0.55255564719E+01  0.56783682074E+01  0.12181545057E+02  0.51100000000E-03 0. -1.
        -11    1    4    4    0    0  0.58741179555E+01 -0.28644439679E+02  0.52524452073E+01  0.29708540307E+02  0.51100000000E-03 0.  1.
         12    1    4    4    0    0  0.55211747946E+01 -0.10247145320E+02  0.44931208189E+01  0.12476998558E+02  0.00000000000E+00 0. -1.
</event>
<event>
 8    1  0.2472977E-006  0.9118800E+02  0.7816164E-02  0.1184000E+00
        -11   -1    0    0    0    0  0.00000000000E+00  0.00000000000E+00  0.45593999997E+02  0.45594000000E+02  0.51100000000E-03 0.  1.
         11   -1    0    0    0    0 -0.00000000000E+00 -0.00000000000E+00 -0.45593999997E+02  0.45594000000E+02  0.51100000000E-03 0. -1.
         23    2    1    2    0    0 -0.35527136788E-14  0.00000000000E+00  0.00000000000E+00  0.91188000000E+02  0.91188000000E+02 0.  0.
    9900012    2    3    3    0    0  0.22598947423E+02 -0.20474634880E+02 -0.20636189518E+02  0.54367144281E+02  0.40000137016E+02 0.  0.
        -12    1    3    3    0    0 -0.22598947423E+02  0.20474634880E+02  0.20636189518E+02  0.36820855719E+02  0.00000000000E+00 0.  1.
         11    1    4    4    0    0 -0.91645663537E+01 -0.88293174050E+01 -0.10582994237E+02  0.16551310811E+02  0.51100000000E-03 0. -1.
        -11    1    4    4    0    0  0.10830752647E+02 -0.38891561733E+01  0.30835975976E+01  0.11913828648E+02  0.51100000000E-03 0.  1.
        -12    1    4    4    0    0  0.20932761129E+02 -0.77561613016E+01 -0.13136792879E+02  0.25902004821E+02  0.00000000000E+00 0.  1.
</event>
<event>
 8    1  0.2472977E-006  0.9118800E+02  0.7816164E-02  0.1184000E+00
        -11   -1    0    0    0    0  0.00000000000E+00  0.00000000000E+00  0.45593999997E+02  0.45594000000E+02  0.51100000000E-03 0.  1.
         11   -1    0    0    0    0 -0.00000000000E+00 -0.00000000000E+00 -0.45593999997E+02  0.45594000000E+02  0.51100000000E-03 0. -1.
         23    2    1    2    0    0  0.00000000000E+00 -0.17763568394E-14  0.35527136788E-14  0.91188000000E+02  0.91188000000E+02 0.  0.
    9900012    2    3    3    0    0 -0.13924040360E+02  0.13660296195E+02 -0.31229752571E+02  0.54367081520E+02  0.39999993940E+02 0.  0.
        -12    1    3    3    0    0  0.13924040360E+02 -0.13660296195E+02  0.31229752571E+02  0.36820918480E+02  0.00000000000E+00 0.  1.
         11    1    4    4    0    0 -0.13744494465E+02  0.12526646353E+02 -0.46116556462E+01  0.19159732906E+02  0.51100000000E-03 0. -1.
        -11    1    4    4    0    0  0.72532011809E+01 -0.11709824562E+01 -0.26420459369E+02  0.27422997663E+02  0.51100000000E-03 0.  1.
         12    1    4    4    0    0 -0.74327470760E+01  0.23046322983E+01 -0.19763755550E+00  0.77843509511E+01  0.00000000000E+00 0. -1.
</event>
<event>
 8    1  0.2472977E-006  0.9118800E+02  0.7816164E-02  0.1184000E+00
        -11   -1    0    0    0    0  0.00000000000E+00  0.00000000000E+00  0.45593999997E+02  0.45594000000E+02  0.51100000000E-03 0.  1.
         11   -1    0    0    0    0 -0.00000000000E+00 -0.00000000000E+00 -0.45593999997E+02  0.45594000000E+02  0.51100000000E-03 0. -1.
         23    2    1    2    0    0 -0.71054273576E-14  0.00000000000E+00 -0.88817841970E-15  0.91188000000E+02  0.91188000000E+02 0.  0.
    9900012    2    3    3    0    0  0.36119255105E+02 -0.42702581110E+01  0.57396211514E+01  0.54367096363E+02  0.40000027780E+02 0.  0.
         12    1    3    3    0    0 -0.36119255105E+02  0.42702581110E+01 -0.57396211514E+01  0.36820903637E+02  0.00000000000E+00 0. -1.
         11    1    4    4    0    0  0.17321887627E+01  0.20145174698E+01 -0.11145675026E+02  0.11457959268E+02  0.51100000000E-03 0. -1.
        -11    1    4    4    0    0  0.27277933774E+01  0.33812782515E+01 -0.20176416811E+01  0.47900707237E+01  0.51100000000E-03 0.  1.
        -12    1    4    4    0    0  0.31659272965E+02 -0.96660538323E+01  0.18902937859E+02  0.38119066371E+02  0.00000000000E+00 0.  1.
</event>
<event>
 8    1  0.2472977E-006  0.9118800E+02  0.7816164E-02  0.1184000E+00
        -11   -1    0    0    0    0  0.00000000000E+00  0.00000000000E+00  0.45593999997E+02  0.45594000000E+02  0.51100000000E-03 0.  1.
         11   -1    0    0    0    0 -0.00000000000E+00 -0.00000000000E+00 -0.45593999997E+02  0.45594000000E+02  0.51100000000E-03 0. -1.
         23    2    1    2    0    0 -0.17763568394E-14  0.26645352591E-14 -0.71054273576E-14  0.91188000000E+02  0.91188000000E+02 0.  0.
    9900012    2    3    3    0    0 -0.88095816358E+01  0.65004496070E+01 -0.35155591122E+02  0.54367079848E+02  0.39999990130E+02 0.  0.
        -12    1    3    3    0    0  0.88095816358E+01 -0.65004496070E+01  0.35155591122E+02  0.36820920152E+02  0.00000000000E+00 0.  1.
         11    1    4    4    0    0 -0.37207288557E+01 -0.12947731362E+02 -0.23215221364E+02  0.26840903000E+02  0.51100000000E-03 0. -1.
        -11    1    4    4    0    0  0.11841279142E+00  0.57424661232E+01  0.30959258431E+01  0.65249288005E+01  0.51100000000E-03 0.  1.
         12    1    4    4    0    0 -0.52072655715E+01  0.13705714845E+02 -0.15036295601E+02  0.21001248047E+02  0.00000000000E+00 0. -1.
</event>
<event>
 8    1  0.2472977E-006  0.9118800E+02  0.7816164E-02  0.1184000E+00
        -11   -1    0    0    0    0  0.00000000000E+00  0.00000000000E+00  0.45593999997E+02  0.45594000000E+02  0.51100000000E-03 0. -1.
         11   -1    0    0    0    0 -0.00000000000E+00 -0.00000000000E+00 -0.45593999997E+02  0.45594000000E+02  0.51100000000E-03 0.  1.
         23    2    1    2    0    0 -0.35527136788E-14 -0.35527136788E-14  0.94368957093E-15  0.91188000000E+02  0.91188000000E+02 0.  0.
    9900012    2    3    3    0    0  0.23618375894E+02  0.28243985390E+02 -0.47799256900E+00  0.54367097411E+02  0.40000030167E+02 0.  0.
        -12    1    3    3    0    0 -0.23618375894E+02 -0.28243985390E+02  0.47799256900E+00  0.36820902589E+02  0.00000000000E+00 0.  1.
         11    1    4    4    0    0  0.14121525221E+02 -0.48211837984E+01 -0.59909905439E+01  0.16079591280E+02  0.51100000000E-03 0.  1.
        -11    1    4    4    0    0 -0.94133379477E+00  0.85030687603E+01  0.77000895482E+01  0.11509981189E+02  0.51100000000E-03 0. -1.
        -12    1    4    4    0    0  0.10438184468E+02  0.24562100429E+02 -0.21870915733E+01  0.26777524941E+02  0.00000000000E+00 0.  1.
</event>
<event>
 8    1  0.2472977E-006  0.9118800E+02  0.7816164E-02  0.1184000E+00
        -11   -1    0    0    0    0  0.00000000000E+00  0.00000000000E+00  0.45593999997E+02  0.45594000000E+02  0.51100000000E-03 0. -1.
         11   -1    0    0    0    0 -0.00000000000E+00 -0.00000000000E+00 -0.45593999997E+02  0.45594000000E+02  0.51100000000E-03 0.  1.
         23    2    1    2    0    0  0.17763568394E-14 -0.88817841970E-15  0.00000000000E+00  0.91188000000E+02  0.91188000000E+02 0.  0.
    9900012    2    3    3    0    0 -0.37910244095E+01 -0.49089072200E+01  0.36294733243E+02  0.54367124164E+02  0.40000091157E+02 0.  0.
        -12    1    3    3    0    0  0.37910244095E+01  0.49089072200E+01 -0.36294733243E+02  0.36820875836E+02  0.00000000000E+00 0.  1.
         11    1    4    4    0    0 -0.71255132127E+01 -0.10039548404E+02  0.48273055306E+01  0.13223779703E+02  0.51100000000E-03 0. -1.
        -11    1    4    4    0    0 -0.85541096051E+01  0.93867229313E+01  0.97077391694E+01  0.15985104271E+02  0.51100000000E-03 0.  1.
         12    1    4    4    0    0  0.11888598408E+02 -0.42560817477E+01  0.21759688543E+02  0.25158240189E+02  0.00000000000E+00 0. -1.
</event>
<event>
 8    1  0.2472977E-006  0.9118800E+02  0.7816164E-02  0.1184000E+00
        -11   -1    0    0    0    0  0.00000000000E+00  0.00000000000E+00  0.45593999997E+02  0.45594000000E+02  0.51100000000E-03 0. -1.
         11   -1    0    0    0    0 -0.00000000000E+00 -0.00000000000E+00 -0.45593999997E+02  0.45594000000E+02  0.51100000000E-03 0.  1.
         23    2    1    2    0    0  0.00000000000E+00  0.17763568394E-14  0.17763568394E-14  0.91188000000E+02  0.91188000000E+02 0.  0.
    9900012    2    3    3    0    0  0.34023956853E+02 -0.10186840950E+02 -0.97148266039E+01  0.54367092564E+02  0.40000019117E+02 0.  0.
         12    1    3    3    0    0 -0.34023956853E+02  0.10186840950E+02  0.97148266039E+01  0.36820907436E+02  0.00000000000E+00 0. -1.
         11    1    4    4    0    0  0.45649748847E+01 -0.10040757176E+02  0.70265319131E+01  0.13077765534E+02  0.51100000000E-03 0. -1.
        -11    1    4    4    0    0  0.26455550181E+02 -0.17548928004E+01 -0.24831968462E+01  0.26629721196E+02  0.51100000000E-03 0.  1.
        -12    1    4    4    0    0  0.30034317873E+01  0.16088090261E+01 -0.14258161671E+02  0.14659605834E+02  0.00000000000E+00 0.  1.
</event>
<event>
 8    1  0.2472977E-006  0.9118800E+02  0.7816164E-02  0.1184000E+00
        -11   -1    0    0    0    0  0.00000000000E+00  0.00000000000E+00  0.45593999997E+02  0.45594000000E+02  0.51100000000E-03 0. -1.
         11   -1    0    0    0    0 -0.00000000000E+00 -0.00000000000E+00 -0.45593999997E+02  0.45594000000E+02  0.51100000000E-03 0.  1.
         23    2    1    2    0    0  0.00000000000E+00  0.00000000000E+00  0.35527136788E-14  0.91188000000E+02  0.91188000000E+02 0.  0.
    9900012    2    3    3    0    0  0.25041107218E+02  0.19472014053E+01  0.26924524449E+02  0.54367100217E+02  0.40000036565E+02 0.  0.
        -12    1    3    3    0    0 -0.25041107218E+02 -0.19472014053E+01 -0.26924524449E+02  0.36820899783E+02  0.00000000000E+00 0.  1.
         11    1    4    4    0    0  0.29536990366E+01  0.73915621321E+01  0.82085609131E+01  0.11434159404E+02  0.51100000000E-03 0. -1.
        -11    1    4    4    0    0 -0.76661016263E+01  0.10292540567E+01  0.65761531981E+01  0.10152549887E+02  0.51100000000E-03 0.  1.
         12    1    4    4    0    0  0.29753509808E+02 -0.64736147835E+01  0.12139810338E+02  0.32780390926E+02  0.00000000000E+00 0. -1.
</event>
<event>
 8    1  0.2472977E-006  0.9118800E+02  0.7816164E-02  0.1184000E+00
        -11   -1    0    0    0    0  0.00000000000E+00  0.00000000000E+00  0.45593999997E+02  0.45594000000E+02  0.51100000000E-03 0.  1.
         11   -1    0    0    0    0 -0.00000000000E+00 -0.00000000000E+00 -0.45593999997E+02  0.45594000000E+02  0.51100000000E-03 0. -1.
         23    2    1    2    0    0  0.88817841970E-15  0.00000000000E+00 -0.17763568394E-14  0.91188000000E+02  0.91188000000E+02 0.  0.
    9900012    2    3    3    0    0 -0.74602150567E+01 -0.34115569521E+02  0.11672760369E+02  0.54367078948E+02  0.39999988078E+02 0.  0.
         12    1    3    3    0    0  0.74602150567E+01  0.34115569521E+02 -0.11672760369E+02  0.36820921052E+02  0.00000000000E+00 0. -1.
         11    1    4    4    0    0 -0.52170395689E+01 -0.56908929262E+01 -0.11542187406E+02  0.13886174942E+02  0.51100000000E-03 0. -1.
        -11    1    4    4    0    0  0.39005019413E+01 -0.25768375825E+01 -0.70966346006E+00  0.47283855393E+01  0.51100000000E-03 0.  1.
         12    1    4    4    0    0 -0.61436774291E+01 -0.25847839013E+02  0.23924611235E+02  0.35752518467E+02  0.00000000000E+00 0. -1.
</event>
<event>
 8    1  0.2472977E-006  0.9118800E+02  0.7816164E-02  0.1184000E+00
        -11   -1    0    0    0    0  0.00000000000E+00  0.00000000000E+00  0.45593999997E+02  0.45594000000E+02  0.51100000000E-03 0.  1.
         11   -1    0    0    0    0 -0.00000000000E+00 -0.00000000000E+00 -0.45593999997E+02  0.45594000000E+02  0.51100000000E-03 0. -1.
         23    2    1    2    0    0  0.00000000000E+00  0.35527136788E-14  0.00000000000E+00  0.91188000000E+02  0.91188000000E+02 0.  0.
    9900012    2    3    3    0    0 -0.99106894461E+01 -0.28059266548E+02 -0.21684878323E+02  0.54367107122E+02  0.40000052305E+02 0.  0.
        -12    1    3    3    0    0  0.99106894461E+01  0.28059266548E+02  0.21684878323E+02  0.36820892878E+02  0.00000000000E+00 0.  1.
         11    1    4    4    0    0 -0.26567974656E+01 -0.73732498332E+01 -0.31719172948E+01  0.84548474535E+01  0.51100000000E-03 0. -1.
        -11    1    4    4    0    0 -0.17224121600E+01 -0.17899113130E+02  0.72699491013E+01  0.19395801471E+02  0.51100000000E-03 0.  1.
         12    1    4    4    0    0 -0.55314798205E+01 -0.27869035843E+01 -0.25782910129E+02  0.26516458197E+02  0.00000000000E+00 0. -1.
</event>
<event>
 8    1  0.2472977E-006  0.9118800E+02  0.7816164E-02  0.1184000E+00
        -11   -1    0    0    0    0  0.00000000000E+00  0.00000000000E+00  0.45593999997E+02  0.45594000000E+02  0.51100000000E-03 0. -1.
         11   -1    0    0    0    0 -0.00000000000E+00 -0.00000000000E+00 -0.45593999997E+02  0.45594000000E+02  0.51100000000E-03 0.  1.
         23    2    1    2    0    0  0.00000000000E+00  0.00000000000E+00  0.35527136788E-14  0.91188000000E+02  0.91188000000E+02 0.  0.
    9900012    2    3    3    0    0 -0.82013573868E+01 -0.19868313301E+02  0.29895941806E+02  0.54367089190E+02  0.40000011426E+02 0.  0.
         12    1    3    3    0    0  0.82013573868E+01  0.19868313301E+02 -0.29895941806E+02  0.36820910810E+02  0.00000000000E+00 0. -1.
         11    1    4    4    0    0  0.50616622498E+01 -0.17653673142E+02  0.28449795531E+02  0.33862419673E+02  0.51100000000E-03 0. -1.
        -11    1    4    4    0    0 -0.58914415115E+01 -0.86208267560E+01 -0.83692797023E+00  0.10475122230E+02  0.51100000000E-03 0.  1.
         12    1    4    4    0    0 -0.73715781250E+01  0.64061865964E+01  0.22830742456E+01  0.10029547287E+02  0.00000000000E+00 0. -1.
</event>
<event>
 8    1  0.2472977E-006  0.9118800E+02  0.7816164E-02  0.1184000E+00
        -11   -1    0    0    0    0  0.00000000000E+00  0.00000000000E+00  0.45593999997E+02  0.45594000000E+02  0.51100000000E-03 0.  1.
         11   -1    0    0    0    0 -0.00000000000E+00 -0.00000000000E+00 -0.45593999997E+02  0.45594000000E+02  0.51100000000E-03 0. -1.
         23    2    1    2    0    0  0.00000000000E+00  0.00000000000E+00  0.00000000000E+00  0.91188000000E+02  0.91188000000E+02 0.  0.
    9900012    2    3    3    0    0 -0.35685131456E+02 -0.89360923618E+01 -0.15808708947E+01  0.54367061574E+02  0.39999948471E+02 0.  0.
        -12    1    3    3    0    0  0.35685131456E+02  0.89360923618E+01  0.15808708947E+01  0.36820938426E+02  0.00000000000E+00 0.  1.
         11    1    4    4    0    0 -0.33965035620E+02 -0.78380061032E+01  0.98308805506E+01  0.36217457075E+02  0.51100000000E-03 0. -1.
        -11    1    4    4    0    0  0.46316815154E+00 -0.14325050835E+01 -0.14375072215E+02  0.14453694925E+02  0.51100000000E-03 0.  1.
        -12    1    4    4    0    0 -0.21832639881E+01  0.33441882485E+00  0.29633207697E+01  0.36959095736E+01  0.00000000000E+00 0.  1.
</event>
<event>
 8    1  0.2472977E-006  0.9118800E+02  0.7816164E-02  0.1184000E+00
        -11   -1    0    0    0    0  0.00000000000E+00  0.00000000000E+00  0.45593999997E+02  0.45594000000E+02  0.51100000000E-03 0. -1.
         11   -1    0    0    0    0 -0.00000000000E+00 -0.00000000000E+00 -0.45593999997E+02  0.45594000000E+02  0.51100000000E-03 0.  1.
         23    2    1    2    0    0  0.00000000000E+00 -0.35527136788E-14  0.00000000000E+00  0.91188000000E+02  0.91188000000E+02 0.  0.
    9900012    2    3    3    0    0  0.10894068001E+02 -0.21974491540E+02  0.27463088741E+02  0.54367078783E+02  0.39999987702E+02 0.  0.
        -12    1    3    3    0    0 -0.10894068001E+02  0.21974491540E+02 -0.27463088741E+02  0.36820921217E+02  0.00000000000E+00 0.  1.
         11    1    4    4    0    0 -0.25596115773E+01  0.76090220674E+01  0.14352111507E+02  0.16444814782E+02  0.51100000000E-03 0. -1.
        -11    1    4    4    0    0  0.79280826932E+01 -0.33716172722E+01  0.48644336519E+01  0.98936855233E+01  0.51100000000E-03 0.  1.
         12    1    4    4    0    0  0.55255968848E+01 -0.26211896335E+02  0.82465435817E+01  0.28028578478E+02  0.00000000000E+00 0. -1.
</event>
<event>
 8    1  0.2472977E-006  0.9118800E+02  0.7816164E-02  0.1184000E+00
        -11   -1    0    0    0    0  0.00000000000E+00  0.00000000000E+00  0.45593999997E+02  0.45594000000E+02  0.51100000000E-03 0. -1.
         11   -1    0    0    0    0 -0.00000000000E+00 -0.00000000000E+00 -0.45593999997E+02  0.45594000000E+02  0.51100000000E-03 0.  1.
         23    2    1    2    0    0  0.00000000000E+00  0.00000000000E+00  0.00000000000E+00  0.91188000000E+02  0.91188000000E+02 0.  0.
    9900012    2    3    3    0    0 -0.24089056245E+02 -0.27799548973E+02  0.16377166105E+01  0.54367086519E+02  0.40000005337E+02 0.  0.
         12    1    3    3    0    0  0.24089056245E+02  0.27799548973E+02 -0.16377166105E+01  0.36820913481E+02  0.00000000000E+00 0. -1.
         11    1    4    4    0    0 -0.32214580400E+01  0.77252570722E+01  0.19704147781E+01  0.85988326763E+01  0.51100000000E-03 0. -1.
        -11    1    4    4    0    0 -0.69955509421E+01 -0.22967064726E+02 -0.83386964269E+01  0.25415696990E+02  0.51100000000E-03 0.  1.
         12    1    4    4    0    0 -0.13872047263E+02 -0.12557741319E+02  0.80059982592E+01  0.20352556852E+02  0.00000000000E+00 0. -1.
</event>
<event>
 8    1  0.2472977E-006  0.9118800E+02  0.7816164E-02  0.1184000E+00
        -11   -1    0    0    0    0  0.00000000000E+00  0.00000000000E+00  0.45593999997E+02  0.45594000000E+02  0.51100000000E-03 0. -1.
         11   -1    0    0    0    0 -0.00000000000E+00 -0.00000000000E+00 -0.45593999997E+02  0.45594000000E+02  0.51100000000E-03 0.  1.
         23    2    1    2    0    0  0.44408920985E-15 -0.35527136788E-14  0.00000000000E+00  0.91188000000E+02  0.91188000000E+02 0.  0.
    9900012    2    3    3    0    0 -0.24504423378E+01  0.29468113777E+02 -0.21940926983E+02  0.54367100037E+02  0.40000036154E+02 0.  0.
         12    1    3    3    0    0  0.24504423378E+01 -0.29468113777E+02  0.21940926983E+02  0.36820899963E+02  0.00000000000E+00 0. -1.
         11    1    4    4    0    0 -0.85324478774E+01  0.14400420208E+02 -0.18247460077E+02  0.24761756167E+02  0.51100000000E-03 0.  1.
        -11    1    4    4    0    0  0.38053445951E+01 -0.65769321343E+01 -0.59285587561E+00  0.76215590359E+01  0.51100000000E-03 0. -1.
        -12    1    4    4    0    0  0.22766609445E+01  0.21644625703E+02 -0.31006110309E+01  0.21983784834E+02  0.00000000000E+00 0.  1.
</event>
<event>
 8    1  0.2472977E-006  0.9118800E+02  0.7816164E-02  0.1184000E+00
        -11   -1    0    0    0    0  0.00000000000E+00  0.00000000000E+00  0.45593999997E+02  0.45594000000E+02  0.51100000000E-03 0. -1.
         11   -1    0    0    0    0 -0.00000000000E+00 -0.00000000000E+00 -0.45593999997E+02  0.45594000000E+02  0.51100000000E-03 0.  1.
         23    2    1    2    0    0  0.35527136788E-14  0.00000000000E+00  0.00000000000E+00  0.91188000000E+02  0.91188000000E+02 0.  0.
    9900012    2    3    3    0    0  0.26696467340E+02 -0.23833582274E+02  0.86625070481E+01  0.54367081478E+02  0.39999993845E+02 0.  0.
        -12    1    3    3    0    0 -0.26696467340E+02  0.23833582274E+02 -0.86625070481E+01  0.36820918522E+02  0.00000000000E+00 0.  1.
         11    1    4    4    0    0  0.10538404861E+02 -0.86761550771E+01  0.49672622883E+01  0.14526091657E+02  0.51100000000E-03 0. -1.
        -11    1    4    4    0    0 -0.51085515886E+01 -0.15608584149E+02 -0.45269425932E+01  0.17035797838E+02  0.51100000000E-03 0.  1.
        -12    1    4    4    0    0  0.21266614068E+02  0.45115695216E+00  0.82221873530E+01  0.22805191983E+02  0.00000000000E+00 0.  1.
</event>
<event>
 8    1  0.2472977E-006  0.9118800E+02  0.7816164E-02  0.1184000E+00
        -11   -1    0    0    0    0  0.00000000000E+00  0.00000000000E+00  0.45593999997E+02  0.45594000000E+02  0.51100000000E-03 0.  1.
         11   -1    0    0    0    0 -0.00000000000E+00 -0.00000000000E+00 -0.45593999997E+02  0.45594000000E+02  0.51100000000E-03 0. -1.
         23    2    1    2    0    0 -0.44408920985E-15  0.00000000000E+00  0.00000000000E+00  0.91188000000E+02  0.91188000000E+02 0.  0.
    9900012    2    3    3    0    0  0.38652209870E+01  0.25142075299E+02  0.26621603123E+02  0.54367168444E+02  0.40000192102E+02 0.  0.
         12    1    3    3    0    0 -0.38652209870E+01 -0.25142075299E+02 -0.26621603123E+02  0.36820831556E+02  0.00000000000E+00 0. -1.
         11    1    4    4    0    0 -0.28507561659E-01  0.60061146699E+01  0.14101578362E+01  0.61695033425E+01  0.51100000000E-03 0. -1.
        -11    1    4    4    0    0 -0.11736664672E+02  0.22069114569E+02  0.13193415982E+02  0.28264135243E+02  0.51100000000E-03 0.  1.
        -12    1    4    4    0    0  0.15630393220E+02 -0.29331539403E+01  0.12018029304E+02  0.19933529859E+02  0.00000000000E+00 0.  1.
</event>
<event>
 8    1  0.2472977E-006  0.9118800E+02  0.7816164E-02  0.1184000E+00
        -11   -1    0    0    0    0  0.00000000000E+00  0.00000000000E+00  0.45593999997E+02  0.45594000000E+02  0.51100000000E-03 0.  1.
         11   -1    0    0    0    0 -0.00000000000E+00 -0.00000000000E+00 -0.45593999997E+02  0.45594000000E+02  0.51100000000E-03 0. -1.
         23    2    1    2    0    0  0.00000000000E+00  0.00000000000E+00  0.17763568394E-14  0.91188000000E+02  0.91188000000E+02 0.  0.
    9900012    2    3    3    0    0  0.12796254423E+02  0.32505782253E+02  0.11636445010E+02  0.54367124676E+02  0.40000092324E+02 0.  0.
        -12    1    3    3    0    0 -0.12796254423E+02 -0.32505782253E+02 -0.11636445010E+02  0.36820875324E+02  0.00000000000E+00 0.  1.
         11    1    4    4    0    0  0.54624661836E+01 -0.82134867351E+00  0.10901800210E+02  0.12221391023E+02  0.51100000000E-03 0. -1.
        -11    1    4    4    0    0  0.37925327551E+01 -0.18546507645E+01 -0.47592991806E+01  0.63619150504E+01  0.51100000000E-03 0.  1.
         12    1    4    4    0    0  0.35412554844E+01  0.35181781691E+02  0.54939439809E+01  0.35783818603E+02  0.00000000000E+00 0. -1.
</event>
<event>
 8    1  0.2472977E-006  0.9118800E+02  0.7816164E-02  0.1184000E+00
        -11   -1    0    0    0    0  0.00000000000E+00  0.00000000000E+00  0.45593999997E+02  0.45594000000E+02  0.51100000000E-03 0.  1.
         11   -1    0    0    0    0 -0.00000000000E+00 -0.00000000000E+00 -0.45593999997E+02  0.45594000000E+02  0.51100000000E-03 0. -1.
         23    2    1    2    0    0 -0.71054273576E-14  0.00000000000E+00  0.22204460493E-15  0.91188000000E+02  0.91188000000E+02 0.  0.
    9900012    2    3    3    0    0 -0.36393309864E+02  0.55292580493E+01 -0.85541480427E+00  0.54367116905E+02  0.40000074608E+02 0.  0.
         12    1    3    3    0    0  0.36393309864E+02 -0.55292580493E+01  0.85541480427E+00  0.36820883095E+02  0.00000000000E+00 0. -1.
         11    1    4    4    0    0  0.24376045804E+01  0.37112231861E+01  0.75683255168E+01  0.87746592535E+01  0.51100000000E-03 0. -1.
        -11    1    4    4    0    0 -0.27461738003E+02 -0.21048032296E+01  0.45344451386E+01  0.27913051495E+02  0.51100000000E-03 0.  1.
         12    1    4    4    0    0 -0.11369176441E+02  0.39228380929E+01 -0.12958185460E+02  0.17679406157E+02  0.00000000000E+00 0. -1.
</event>
<event>
 8    1  0.2472977E-006  0.9118800E+02  0.7816164E-02  0.1184000E+00
        -11   -1    0    0    0    0  0.00000000000E+00  0.00000000000E+00  0.45593999997E+02  0.45594000000E+02  0.51100000000E-03 0. -1.
         11   -1    0    0    0    0 -0.00000000000E+00 -0.00000000000E+00 -0.45593999997E+02  0.45594000000E+02  0.51100000000E-03 0.  1.
         23    2    1    2    0    0  0.00000000000E+00 -0.17763568394E-14 -0.17763568394E-14  0.91188000000E+02  0.91188000000E+02 0.  0.
    9900012    2    3    3    0    0 -0.35026143350E+02  0.99615396316E+01 -0.54513349045E+01  0.54367081461E+02  0.39999993808E+02 0.  0.
         12    1    3    3    0    0  0.35026143350E+02 -0.99615396316E+01  0.54513349045E+01  0.36820918539E+02  0.00000000000E+00 0. -1.
         11    1    4    4    0    0 -0.16803881876E+02  0.68299240476E-01 -0.55541144413E+01  0.17698115673E+02  0.51100000000E-03 0. -1.
        -11    1    4    4    0    0 -0.16593604793E+02  0.15597131699E+02 -0.10064306409E+02  0.24897961784E+02  0.51100000000E-03 0.  1.
         12    1    4    4    0    0 -0.16286566809E+01 -0.57038913077E+01  0.10167085946E+02  0.11771004004E+02  0.00000000000E+00 0. -1.
</event>
<event>
 8    1  0.2472977E-006  0.9118800E+02  0.7816164E-02  0.1184000E+00
        -11   -1    0    0    0    0  0.00000000000E+00  0.00000000000E+00  0.45593999997E+02  0.45594000000E+02  0.51100000000E-03 0. -1.
         11   -1    0    0    0    0 -0.00000000000E+00 -0.00000000000E+00 -0.45593999997E+02  0.45594000000E+02  0.51100000000E-03 0.  1.
         23    2    1    2    0    0  0.35527136788E-14 -0.88817841970E-15  0.00000000000E+00  0.91188000000E+02  0.91188000000E+02 0.  0.
    9900012    2    3    3    0    0  0.11517652623E+02  0.49519758187E+01 -0.34620835022E+02  0.54367073829E+02  0.39999976408E+02 0.  0.
         12    1    3    3    0    0 -0.11517652623E+02 -0.49519758187E+01  0.34620835022E+02  0.36820926171E+02  0.00000000000E+00 0. -1.
         11    1    4    4    0    0  0.11243052176E+02  0.14585443768E+01 -0.13510038573E+01  0.11417477200E+02  0.51100000000E-03 0. -1.
        -11    1    4    4    0    0  0.30296179358E+01 -0.10902794680E+02 -0.20914053345E+02  0.23779132538E+02  0.51100000000E-03 0.  1.
        -12    1    4    4    0    0 -0.27550174891E+01  0.14396226122E+02 -0.12355777820E+02  0.19170464091E+02  0.00000000000E+00 0.  1.
</event>
<event>
 8    1  0.2472977E-006  0.9118800E+02  0.7816164E-02  0.1184000E+00
        -11   -1    0    0    0    0  0.00000000000E+00  0.00000000000E+00  0.45593999997E+02  0.45594000000E+02  0.51100000000E-03 0.  1.
         11   -1    0    0    0    0 -0.00000000000E+00 -0.00000000000E+00 -0.45593999997E+02  0.45594000000E+02  0.51100000000E-03 0. -1.
         23    2    1    2    0    0  0.00000000000E+00  0.00000000000E+00 -0.17763568394E-14  0.91188000000E+02  0.91188000000E+02 0.  0.
    9900012    2    3    3    0    0 -0.52791607714E+01  0.35877712332E+02  0.63797639275E+01  0.54367066166E+02  0.39999958938E+02 0.  0.
         12    1    3    3    0    0  0.52791607714E+01 -0.35877712332E+02 -0.63797639275E+01  0.36820933834E+02  0.00000000000E+00 0. -1.
         11    1    4    4    0    0  0.30683717407E+01  0.45780335529E+01  0.18044813854E+02  0.18867660259E+02  0.51100000000E-03 0. -1.
        -11    1    4    4    0    0 -0.18131666012E+01  0.13849079226E+02 -0.91477007059E+01  0.16696256975E+02  0.51100000000E-03 0.  1.
        -12    1    4    4    0    0 -0.65343659108E+01  0.17450599554E+02 -0.25173492205E+01  0.18803148932E+02  0.00000000000E+00 0.  1.
</event>
<event>
 8    1  0.2472977E-006  0.9118800E+02  0.7816164E-02  0.1184000E+00
        -11   -1    0    0    0    0  0.00000000000E+00  0.00000000000E+00  0.45593999997E+02  0.45594000000E+02  0.51100000000E-03 0.  1.
         11   -1    0    0    0    0 -0.00000000000E+00 -0.00000000000E+00 -0.45593999997E+02  0.45594000000E+02  0.51100000000E-03 0. -1.
         23    2    1    2    0    0 -0.13322676296E-14  0.00000000000E+00  0.00000000000E+00  0.91188000000E+02  0.91188000000E+02 0.  0.
    9900012    2    3    3    0    0  0.39642257342E+01  0.29449308398E+02 -0.21744145981E+02  0.54367017731E+02  0.39999848521E+02 0.  0.
        -12    1    3    3    0    0 -0.39642257342E+01 -0.29449308398E+02  0.21744145981E+02  0.36820982269E+02  0.00000000000E+00 0.  1.
         11    1    4    4    0    0  0.20623402169E+00  0.18351759108E+02 -0.14572475474E+01  0.18410680745E+02  0.51100000000E-03 0. -1.
        -11    1    4    4    0    0  0.87113090998E+01 -0.24542493343E+01  0.21296357020E+01  0.92976123016E+01  0.51100000000E-03 0.  1.
         12    1    4    4    0    0 -0.49533173873E+01  0.13551798625E+02 -0.22416534136E+02  0.26658724684E+02  0.00000000000E+00 0. -1.
</event>
<event>
 8    1  0.2472977E-006  0.9118800E+02  0.7816164E-02  0.1184000E+00
        -11   -1    0    0    0    0  0.00000000000E+00  0.00000000000E+00  0.45593999997E+02  0.45594000000E+02  0.51100000000E-03 0. -1.
         11   -1    0    0    0    0 -0.00000000000E+00 -0.00000000000E+00 -0.45593999997E+02  0.45594000000E+02  0.51100000000E-03 0.  1.
         23    2    1    2    0    0  0.00000000000E+00  0.00000000000E+00  0.17763568394E-14  0.91188000000E+02  0.91188000000E+02 0.  0.
    9900012    2    3    3    0    0 -0.61310570237E+01  0.35509199069E+02  0.75688626448E+01  0.54367071706E+02  0.39999971567E+02 0.  0.
        -12    1    3    3    0    0  0.61310570237E+01 -0.35509199069E+02 -0.75688626448E+01  0.36820928294E+02  0.00000000000E+00 0.  1.
         11    1    4    4    0    0 -0.27372279735E+01  0.19147616196E+02  0.11623330680E+01  0.19377168044E+02  0.51100000000E-03 0. -1.
        -11    1    4    4    0    0 -0.11534821104E+00  0.90501561437E+01 -0.11932510490E+02  0.14976763278E+02  0.51100000000E-03 0.  1.
         12    1    4    4    0    0 -0.32784808392E+01  0.73114267287E+01  0.18339040067E+02  0.20013140383E+02  0.00000000000E+00 0. -1.
</event>
<event>
 8    1  0.2472977E-006  0.9118800E+02  0.7816164E-02  0.1184000E+00
        -11   -1    0    0    0    0  0.00000000000E+00  0.00000000000E+00  0.45593999997E+02  0.45594000000E+02  0.51100000000E-03 0. -1.
         11   -1    0    0    0    0 -0.00000000000E+00 -0.00000000000E+00 -0.45593999997E+02  0.45594000000E+02  0.51100000000E-03 0.  1.
         23    2    1    2    0    0  0.66613381478E-15 -0.35527136788E-14 -0.71054273576E-14  0.91188000000E+02  0.91188000000E+02 0.  0.
    9900012    2    3    3    0    0  0.42870397429E-01  0.16806860330E+02  0.32761360708E+02  0.54367093609E+02  0.40000021501E+02 0.  0.
        -12    1    3    3    0    0 -0.42870397429E-01 -0.16806860330E+02 -0.32761360708E+02  0.36820906391E+02  0.00000000000E+00 0.  1.
         11    1    4    4    0    0  0.24544258385E+01 -0.48051360581E+01 -0.25691434742E+01  0.59761222532E+01  0.51100000000E-03 0. -1.
        -11    1    4    4    0    0  0.28199355998E+01 -0.18720108099E+01  0.19031787369E+02  0.19330426586E+02  0.51100000000E-03 0.  1.
         12    1    4    4    0    0 -0.52314910409E+01  0.23484007198E+02  0.16298716812E+02  0.29060544770E+02  0.00000000000E+00 0. -1.
</event>
<event>
 8    1  0.2472977E-006  0.9118800E+02  0.7816164E-02  0.1184000E+00
        -11   -1    0    0    0    0  0.00000000000E+00  0.00000000000E+00  0.45593999997E+02  0.45594000000E+02  0.51100000000E-03 0.  1.
         11   -1    0    0    0    0 -0.00000000000E+00 -0.00000000000E+00 -0.45593999997E+02  0.45594000000E+02  0.51100000000E-03 0. -1.
         23    2    1    2    0    0  0.00000000000E+00  0.00000000000E+00  0.17763568394E-14  0.91188000000E+02  0.91188000000E+02 0.  0.
    9900012    2    3    3    0    0  0.34016225723E+02  0.12971116585E+02  0.55163668087E+01  0.54367030693E+02  0.39999878072E+02 0.  0.
        -12    1    3    3    0    0 -0.34016225723E+02 -0.12971116585E+02 -0.55163668087E+01  0.36820969307E+02  0.00000000000E+00 0.  1.
         11    1    4    4    0    0  0.22824738348E+02  0.11834904059E+02  0.20302185238E+02  0.32759920031E+02  0.51100000000E-03 0. -1.
        -11    1    4    4    0    0  0.47814851409E+01 -0.29362214903E+01 -0.76670920863E+00  0.56632005143E+01  0.51100000000E-03 0.  1.
        -12    1    4    4    0    0  0.64100022346E+01  0.40724340161E+01 -0.14019109221E+02  0.15943910148E+02  0.00000000000E+00 0.  1.
</event>
<event>
 8    1  0.2472977E-006  0.9118800E+02  0.7816164E-02  0.1184000E+00
        -11   -1    0    0    0    0  0.00000000000E+00  0.00000000000E+00  0.45593999997E+02  0.45594000000E+02  0.51100000000E-03 0. -1.
         11   -1    0    0    0    0 -0.00000000000E+00 -0.00000000000E+00 -0.45593999997E+02  0.45594000000E+02  0.51100000000E-03 0.  1.
         23    2    1    2    0    0  0.00000000000E+00 -0.17763568394E-14  0.00000000000E+00  0.91188000000E+02  0.91188000000E+02 0.  0.
    9900012    2    3    3    0    0 -0.18492660172E+02 -0.11284060163E+02 -0.29773651497E+02  0.54367098091E+02  0.40000031717E+02 0.  0.
         12    1    3    3    0    0  0.18492660172E+02  0.11284060163E+02  0.29773651497E+02  0.36820901909E+02  0.00000000000E+00 0. -1.
         11    1    4    4    0    0  0.43076715081E+01 -0.17944138236E+01 -0.14285180487E+02  0.15028051657E+02  0.51100000000E-03 0.  1.
        -11    1    4    4    0    0 -0.29045390377E+01 -0.12577505841E+02 -0.14160737783E+02  0.19161328112E+02  0.51100000000E-03 0. -1.
        -12    1    4    4    0    0 -0.19895792642E+02  0.30878595011E+01 -0.13277332263E+01  0.20177718322E+02  0.00000000000E+00 0.  1.
</event>
<event>
 8    1  0.2472977E-006  0.9118800E+02  0.7816164E-02  0.1184000E+00
        -11   -1    0    0    0    0  0.00000000000E+00  0.00000000000E+00  0.45593999997E+02  0.45594000000E+02  0.51100000000E-03 0. -1.
         11   -1    0    0    0    0 -0.00000000000E+00 -0.00000000000E+00 -0.45593999997E+02  0.45594000000E+02  0.51100000000E-03 0.  1.
         23    2    1    2    0    0  0.00000000000E+00  0.00000000000E+00  0.35527136788E-14  0.91188000000E+02  0.91188000000E+02 0.  0.
    9900012    2    3    3    0    0 -0.10127663342E+01  0.25181533997E+02  0.26844831932E+02  0.54367077259E+02  0.39999984227E+02 0.  0.
        -12    1    3    3    0    0  0.10127663342E+01 -0.25181533997E+02 -0.26844831932E+02  0.36820922741E+02  0.00000000000E+00 0.  1.
         11    1    4    4    0    0 -0.10398945046E+02  0.15262654277E+02  0.19889993521E+02  0.27142190703E+02  0.51100000000E-03 0. -1.
        -11    1    4    4    0    0  0.41165443348E+01  0.14980877771E+02 -0.20030398111E+01  0.15664763158E+02  0.51100000000E-03 0.  1.
         12    1    4    4    0    0  0.52696343765E+01 -0.50619980509E+01  0.89578782221E+01  0.11560123398E+02  0.00000000000E+00 0. -1.
</event>
<event>
 8    1  0.2472977E-006  0.9118800E+02  0.7816164E-02  0.1184000E+00
        -11   -1    0    0    0    0  0.00000000000E+00  0.00000000000E+00  0.45593999997E+02  0.45594000000E+02  0.51100000000E-03 0.  1.
         11   -1    0    0    0    0 -0.00000000000E+00 -0.00000000000E+00 -0.45593999997E+02  0.45594000000E+02  0.51100000000E-03 0. -1.
         23    2    1    2    0    0  0.17763568394E-14  0.00000000000E+00  0.35527136788E-14  0.91188000000E+02  0.91188000000E+02 0.  0.
    9900012    2    3    3    0    0 -0.15219435939E+02 -0.15384268627E+02  0.29790458727E+02  0.54367103994E+02  0.40000045176E+02 0.  0.
         12    1    3    3    0    0  0.15219435939E+02  0.15384268627E+02 -0.29790458727E+02  0.36820896006E+02  0.00000000000E+00 0. -1.
         11    1    4    4    0    0  0.23155874643E+01 -0.81424893695E+01 -0.37975604529E+01  0.92781217976E+01  0.51100000000E-03 0. -1.
        -11    1    4    4    0    0 -0.10520378998E+02 -0.66308668075E+01  0.18418904510E+01  0.12571369439E+02  0.51100000000E-03 0.  1.
        -12    1    4    4    0    0 -0.70146444051E+01 -0.61091244964E+00  0.31746128729E+02  0.32517612757E+02  0.00000000000E+00 0.  1.
</event>
<event>
 8    1  0.2472977E-006  0.9118800E+02  0.7816164E-02  0.1184000E+00
        -11   -1    0    0    0    0  0.00000000000E+00  0.00000000000E+00  0.45593999997E+02  0.45594000000E+02  0.51100000000E-03 0.  1.
         11   -1    0    0    0    0 -0.00000000000E+00 -0.00000000000E+00 -0.45593999997E+02  0.45594000000E+02  0.51100000000E-03 0. -1.
         23    2    1    2    0    0  0.00000000000E+00  0.00000000000E+00  0.00000000000E+00  0.91188000000E+02  0.91188000000E+02 0.  0.
    9900012    2    3    3    0    0 -0.75514761067E+01 -0.11997690054E+02  0.33982509709E+02  0.54367077630E+02  0.39999985074E+02 0.  0.
         12    1    3    3    0    0  0.75514761067E+01  0.11997690054E+02 -0.33982509709E+02  0.36820922370E+02  0.00000000000E+00 0. -1.
         11    1    4    4    0    0 -0.10807560843E+02 -0.99431264236E+01 -0.21030993229E+01  0.14835503412E+02  0.51100000000E-03 0. -1.
        -11    1    4    4    0    0 -0.10283946394E+01  0.13932411957E+01  0.33339794205E+02  0.33384735950E+02  0.51100000000E-03 0.  1.
        -12    1    4    4    0    0  0.42844793757E+01 -0.34478048257E+01  0.27458148271E+01  0.61468382687E+01  0.00000000000E+00 0.  1.
</event>
<event>
 8    1  0.2472977E-006  0.9118800E+02  0.7816164E-02  0.1184000E+00
        -11   -1    0    0    0    0  0.00000000000E+00  0.00000000000E+00  0.45593999997E+02  0.45594000000E+02  0.51100000000E-03 0. -1.
         11   -1    0    0    0    0 -0.00000000000E+00 -0.00000000000E+00 -0.45593999997E+02  0.45594000000E+02  0.51100000000E-03 0.  1.
         23    2    1    2    0    0  0.00000000000E+00  0.00000000000E+00 -0.35527136788E-14  0.91188000000E+02  0.91188000000E+02 0.  0.
    9900012    2    3    3    0    0 -0.29178628116E+02 -0.10902136275E+02 -0.19634921993E+02  0.54367094583E+02  0.40000023720E+02 0.  0.
        -12    1    3    3    0    0  0.29178628116E+02  0.10902136275E+02  0.19634921993E+02  0.36820905417E+02  0.00000000000E+00 0.  1.
         11    1    4    4    0    0 -0.17344752137E+02  0.54413028427E+01 -0.50352206322E+01  0.18862705278E+02  0.51100000000E-03 0. -1.
        -11    1    4    4    0    0 -0.15437586985E+00 -0.14495263368E+02 -0.18084030083E+02  0.23176898764E+02  0.51100000000E-03 0.  1.
        -12    1    4    4    0    0 -0.11679500109E+02 -0.18481757495E+01  0.34843287217E+01  0.12327490541E+02  0.00000000000E+00 0.  1.
</event>
<event>
 8    1  0.2472977E-006  0.9118800E+02  0.7816164E-02  0.1184000E+00
        -11   -1    0    0    0    0  0.00000000000E+00  0.00000000000E+00  0.45593999997E+02  0.45594000000E+02  0.51100000000E-03 0.  1.
         11   -1    0    0    0    0 -0.00000000000E+00 -0.00000000000E+00 -0.45593999997E+02  0.45594000000E+02  0.51100000000E-03 0. -1.
         23    2    1    2    0    0 -0.88817841970E-15  0.35527136788E-14  0.00000000000E+00  0.91188000000E+02  0.91188000000E+02 0.  0.
    9900012    2    3    3    0    0  0.59830777482E+01  0.31026497630E+02  0.18903421213E+02  0.54367080564E+02  0.39999991762E+02 0.  0.
         12    1    3    3    0    0 -0.59830777482E+01 -0.31026497630E+02 -0.18903421213E+02  0.36820919436E+02  0.00000000000E+00 0. -1.
         11    1    4    4    0    0 -0.37985098898E+01  0.93877739314E+01 -0.43167335209E+01  0.11008776740E+02  0.51100000000E-03 0.  1.
        -11    1    4    4    0    0 -0.28553632553E+01 -0.38583320859E+01  0.11721261569E+02  0.12666009586E+02  0.51100000000E-03 0. -1.
         12    1    4    4    0    0  0.12636950893E+02  0.25497055785E+02  0.11498893165E+02  0.30692294238E+02  0.00000000000E+00 0. -1.
</event>
<event>
 8    1  0.2472977E-006  0.9118800E+02  0.7816164E-02  0.1184000E+00
        -11   -1    0    0    0    0  0.00000000000E+00  0.00000000000E+00  0.45593999997E+02  0.45594000000E+02  0.51100000000E-03 0. -1.
         11   -1    0    0    0    0 -0.00000000000E+00 -0.00000000000E+00 -0.45593999997E+02  0.45594000000E+02  0.51100000000E-03 0.  1.
         23    2    1    2    0    0  0.00000000000E+00  0.35527136788E-14  0.00000000000E+00  0.91188000000E+02  0.91188000000E+02 0.  0.
    9900012    2    3    3    0    0 -0.15959301146E+02  0.31596689785E+02 -0.10135533930E+02  0.54367093622E+02  0.40000021530E+02 0.  0.
        -12    1    3    3    0    0  0.15959301146E+02 -0.31596689785E+02  0.10135533930E+02  0.36820906378E+02  0.00000000000E+00 0.  1.
         11    1    4    4    0    0 -0.15944026327E+02  0.17798462949E+02  0.11940135518E+02  0.26712620525E+02  0.51100000000E-03 0.  1.
        -11    1    4    4    0    0 -0.46074589441E+00  0.10054128335E+02 -0.73738114866E+01  0.12476813674E+02  0.51100000000E-03 0. -1.
        -12    1    4    4    0    0  0.44547107475E+00  0.37440985013E+01 -0.14701857961E+02  0.15177659423E+02  0.00000000000E+00 0.  1.
</event>
<event>
 8    1  0.2472977E-006  0.9118800E+02  0.7816164E-02  0.1184000E+00
        -11   -1    0    0    0    0  0.00000000000E+00  0.00000000000E+00  0.45593999997E+02  0.45594000000E+02  0.51100000000E-03 0.  1.
         11   -1    0    0    0    0 -0.00000000000E+00 -0.00000000000E+00 -0.45593999997E+02  0.45594000000E+02  0.51100000000E-03 0. -1.
         23    2    1    2    0    0  0.00000000000E+00 -0.22204460493E-15  0.00000000000E+00  0.91188000000E+02  0.91188000000E+02 0.  0.
    9900012    2    3    3    0    0 -0.23695204253E+02 -0.16872444235E+01 -0.28133083375E+02  0.54367083682E+02  0.39999998869E+02 0.  0.
        -12    1    3    3    0    0  0.23695204253E+02  0.16872444235E+01  0.28133083375E+02  0.36820916318E+02  0.00000000000E+00 0.  1.
         11    1    4    4    0    0 -0.27331547895E+01 -0.16945926583E+01 -0.27467010663E+02  0.27654628083E+02  0.51100000000E-03 0. -1.
        -11    1    4    4    0    0 -0.59538126522E+01  0.20020400616E+01  0.72787046440E+01  0.96143429865E+01  0.51100000000E-03 0.  1.
        -12    1    4    4    0    0 -0.15008236811E+02 -0.19946918268E+01 -0.79447773563E+01  0.17098112612E+02  0.00000000000E+00 0.  1.
</event>
<event>
 8    1  0.2472977E-006  0.9118800E+02  0.7816164E-02  0.1184000E+00
        -11   -1    0    0    0    0  0.00000000000E+00  0.00000000000E+00  0.45593999997E+02  0.45594000000E+02  0.51100000000E-03 0.  1.
         11   -1    0    0    0    0 -0.00000000000E+00 -0.00000000000E+00 -0.45593999997E+02  0.45594000000E+02  0.51100000000E-03 0. -1.
         23    2    1    2    0    0  0.17763568394E-14 -0.71054273576E-14  0.00000000000E+00  0.91188000000E+02  0.91188000000E+02 0.  0.
    9900012    2    3    3    0    0 -0.87201217452E+01  0.35716226105E+02  0.20225193611E+01  0.54367083186E+02  0.39999997739E+02 0.  0.
        -12    1    3    3    0    0  0.87201217452E+01 -0.35716226105E+02 -0.20225193611E+01  0.36820916814E+02  0.00000000000E+00 0.  1.
         11    1    4    4    0    0  0.10211789718E+02  0.31782692171E+01  0.18549002547E+01  0.10854616515E+02  0.51100000000E-03 0. -1.
        -11    1    4    4    0    0  0.30259325733E+01 -0.11851889498E+01  0.36543740162E+00  0.32702424284E+01  0.51100000000E-03 0.  1.
         12    1    4    4    0    0 -0.21957844037E+02  0.33723145838E+02 -0.19781829518E+00  0.40242224243E+02  0.00000000000E+00 0. -1.
</event>
<event>
 8    1  0.2472977E-006  0.9118800E+02  0.7816164E-02  0.1184000E+00
        -11   -1    0    0    0    0  0.00000000000E+00  0.00000000000E+00  0.45593999997E+02  0.45594000000E+02  0.51100000000E-03 0.  1.
         11   -1    0    0    0    0 -0.00000000000E+00 -0.00000000000E+00 -0.45593999997E+02  0.45594000000E+02  0.51100000000E-03 0. -1.
         23    2    1    2    0    0  0.17763568394E-14  0.00000000000E+00  0.00000000000E+00  0.91188000000E+02  0.91188000000E+02 0.  0.
    9900012    2    3    3    0    0  0.95868104330E+01  0.27540479798E+02 -0.22480983592E+02  0.54367087667E+02  0.40000007954E+02 0.  0.
        -12    1    3    3    0    0 -0.95868104330E+01 -0.27540479798E+02  0.22480983592E+02  0.36820912333E+02  0.00000000000E+00 0.  1.
         11    1    4    4    0    0 -0.95860643080E+01  0.94737388880E+01 -0.12743123201E+02  0.18548087411E+02  0.51100000000E-03 0. -1.
        -11    1    4    4    0    0  0.10563131485E+02  0.18196878768E+02  0.21391348449E+01  0.21149043520E+02  0.51100000000E-03 0.  1.
         12    1    4    4    0    0  0.86097432561E+01 -0.13013785796E+00 -0.11876995237E+02  0.14669956736E+02  0.00000000000E+00 0. -1.
</event>
<event>
 8    1  0.2472977E-006  0.9118800E+02  0.7816164E-02  0.1184000E+00
        -11   -1    0    0    0    0  0.00000000000E+00  0.00000000000E+00  0.45593999997E+02  0.45594000000E+02  0.51100000000E-03 0. -1.
         11   -1    0    0    0    0 -0.00000000000E+00 -0.00000000000E+00 -0.45593999997E+02  0.45594000000E+02  0.51100000000E-03 0.  1.
         23    2    1    2    0    0  0.00000000000E+00  0.00000000000E+00  0.00000000000E+00  0.91188000000E+02  0.91188000000E+02 0.  0.
    9900012    2    3    3    0    0 -0.55494289988E+01  0.26361188165E+02  0.25101237781E+02  0.54367074675E+02  0.39999978336E+02 0.  0.
        -12    1    3    3    0    0  0.55494289988E+01 -0.26361188165E+02 -0.25101237781E+02  0.36820925325E+02  0.00000000000E+00 0.  1.
         11    1    4    4    0    0 -0.35531591496E+01  0.29935903882E+02  0.18029504133E+02  0.35126148390E+02  0.51100000000E-03 0. -1.
        -11    1    4    4    0    0  0.10967903609E+01  0.52364410817E+01 -0.24675679515E+01  0.58917023138E+01  0.51100000000E-03 0.  1.
         12    1    4    4    0    0 -0.30930602101E+01 -0.88111567992E+01  0.95393016000E+01  0.13349223971E+02  0.00000000000E+00 0. -1.
</event>
<event>
 8    1  0.2472977E-006  0.9118800E+02  0.7816164E-02  0.1184000E+00
        -11   -1    0    0    0    0  0.00000000000E+00  0.00000000000E+00  0.45593999997E+02  0.45594000000E+02  0.51100000000E-03 0. -1.
         11   -1    0    0    0    0 -0.00000000000E+00 -0.00000000000E+00 -0.45593999997E+02  0.45594000000E+02  0.51100000000E-03 0.  1.
         23    2    1    2    0    0  0.88817841970E-15  0.35527136788E-14  0.00000000000E+00  0.91188000000E+02  0.91188000000E+02 0.  0.
    9900012    2    3    3    0    0 -0.61683548642E+01  0.31179932779E+02 -0.18588713870E+02  0.54367121505E+02  0.40000085094E+02 0.  0.
         12    1    3    3    0    0  0.61683548642E+01 -0.31179932779E+02  0.18588713870E+02  0.36820878495E+02  0.00000000000E+00 0. -1.
         11    1    4    4    0    0  0.10057290927E+02  0.88842130936E+01  0.50180995082E+01  0.14326886124E+02  0.51100000000E-03 0. -1.
        -11    1    4    4    0    0 -0.13058530537E+02  0.11061595219E+02 -0.22566532670E+02  0.28321943888E+02  0.51100000000E-03 0.  1.
        -12    1    4    4    0    0 -0.31671152538E+01  0.11234124466E+02 -0.10402807080E+01  0.11718291493E+02  0.00000000000E+00 0.  1.
</event>
<event>
 8    1  0.2472977E-006  0.9118800E+02  0.7816164E-02  0.1184000E+00
        -11   -1    0    0    0    0  0.00000000000E+00  0.00000000000E+00  0.45593999997E+02  0.45594000000E+02  0.51100000000E-03 0. -1.
         11   -1    0    0    0    0 -0.00000000000E+00 -0.00000000000E+00 -0.45593999997E+02  0.45594000000E+02  0.51100000000E-03 0.  1.
         23    2    1    2    0    0 -0.35527136788E-14  0.00000000000E+00 -0.35527136788E-14  0.91188000000E+02  0.91188000000E+02 0.  0.
    9900012    2    3    3    0    0 -0.18877982566E+02  0.10521749519E+02 -0.29810989985E+02  0.54367074393E+02  0.39999977693E+02 0.  0.
         12    1    3    3    0    0  0.18877982566E+02 -0.10521749519E+02  0.29810989985E+02  0.36820925607E+02  0.00000000000E+00 0. -1.
         11    1    4    4    0    0 -0.55339744372E+01  0.10218574564E+02 -0.15847537920E+02  0.19651681800E+02  0.51100000000E-03 0. -1.
        -11    1    4    4    0    0 -0.21801388354E+02  0.28355436326E+01 -0.13657314371E+02  0.25881713196E+02  0.51100000000E-03 0.  1.
         12    1    4    4    0    0  0.84573802259E+01 -0.25323686768E+01 -0.30613769447E+00  0.88336793970E+01  0.00000000000E+00 0. -1.
</event>
<event>
 8    1  0.2472977E-006  0.9118800E+02  0.7816164E-02  0.1184000E+00
        -11   -1    0    0    0    0  0.00000000000E+00  0.00000000000E+00  0.45593999997E+02  0.45594000000E+02  0.51100000000E-03 0. -1.
         11   -1    0    0    0    0 -0.00000000000E+00 -0.00000000000E+00 -0.45593999997E+02  0.45594000000E+02  0.51100000000E-03 0.  1.
         23    2    1    2    0    0  0.00000000000E+00  0.00000000000E+00  0.00000000000E+00  0.91188000000E+02  0.91188000000E+02 0.  0.
    9900012    2    3    3    0    0 -0.22798471944E+02 -0.27193285726E+02  0.98254181147E+01  0.54367028357E+02  0.39999872746E+02 0.  0.
        -12    1    3    3    0    0  0.22798471944E+02  0.27193285726E+02 -0.98254181147E+01  0.36820971643E+02  0.00000000000E+00 0.  1.
         11    1    4    4    0    0 -0.21825629494E+01  0.53893059477E+01  0.35137500273E+01  0.67937205669E+01  0.51100000000E-03 0. -1.
        -11    1    4    4    0    0 -0.18429983993E+01  0.21910309099E+01  0.75104850812E+01  0.80377015348E+01  0.51100000000E-03 0.  1.
        -12    1    4    4    0    0 -0.18772910596E+02 -0.34773622584E+02 -0.11988169938E+01  0.39535606256E+02  0.00000000000E+00 0.  1.
</event>
<event>
 8    1  0.2472977E-006  0.9118800E+02  0.7816164E-02  0.1184000E+00
        -11   -1    0    0    0    0  0.00000000000E+00  0.00000000000E+00  0.45593999997E+02  0.45594000000E+02  0.51100000000E-03 0. -1.
         11   -1    0    0    0    0 -0.00000000000E+00 -0.00000000000E+00 -0.45593999997E+02  0.45594000000E+02  0.51100000000E-03 0.  1.
         23    2    1    2    0    0  0.35527136788E-14 -0.35527136788E-14 -0.88817841970E-15  0.91188000000E+02  0.91188000000E+02 0.  0.
    9900012    2    3    3    0    0 -0.28625589877E+02  0.21805060813E+02 -0.78035681446E+01  0.54367071866E+02  0.39999971932E+02 0.  0.
         12    1    3    3    0    0  0.28625589877E+02 -0.21805060813E+02  0.78035681446E+01  0.36820928134E+02  0.00000000000E+00 0. -1.
         11    1    4    4    0    0  0.41241073388E+01  0.21207711286E+01  0.20834311683E+01  0.50839568464E+01  0.51100000000E-03 0. -1.
        -11    1    4    4    0    0  0.15768835428E+01  0.10321366266E+02  0.38704657519E+01  0.11135424047E+02  0.51100000000E-03 0.  1.
         12    1    4    4    0    0 -0.34326580759E+02  0.93629234188E+01 -0.13757465065E+02  0.38147690972E+02  0.00000000000E+00 0. -1.
</event>
<event>
 8    1  0.2472977E-006  0.9118800E+02  0.7816164E-02  0.1184000E+00
        -11   -1    0    0    0    0  0.00000000000E+00  0.00000000000E+00  0.45593999997E+02  0.45594000000E+02  0.51100000000E-03 0.  1.
         11   -1    0    0    0    0 -0.00000000000E+00 -0.00000000000E+00 -0.45593999997E+02  0.45594000000E+02  0.51100000000E-03 0. -1.
         23    2    1    2    0    0 -0.35527136788E-14  0.35527136788E-14  0.00000000000E+00  0.91188000000E+02  0.91188000000E+02 0.  0.
    9900012    2    3    3    0    0  0.29527268567E+02  0.18315250988E+02  0.12185059078E+02  0.54367032162E+02  0.39999881420E+02 0.  0.
         12    1    3    3    0    0 -0.29527268567E+02 -0.18315250988E+02 -0.12185059078E+02  0.36820967838E+02  0.00000000000E+00 0. -1.
         11    1    4    4    0    0  0.96888390866E+01 -0.84756447281E+01  0.95164746289E+01  0.16008542908E+02  0.51100000000E-03 0. -1.
        -11    1    4    4    0    0  0.99521581658E+01  0.11313896292E+01  0.41004328960E+01  0.10823079268E+02  0.51100000000E-03 0.  1.
        -12    1    4    4    0    0  0.98862713141E+01  0.25659506087E+02 -0.14318484467E+01  0.27535409986E+02  0.00000000000E+00 0.  1.
</event>
<event>
 8    1  0.2472977E-006  0.9118800E+02  0.7816164E-02  0.1184000E+00
        -11   -1    0    0    0    0  0.00000000000E+00  0.00000000000E+00  0.45593999997E+02  0.45594000000E+02  0.51100000000E-03 0.  1.
         11   -1    0    0    0    0 -0.00000000000E+00 -0.00000000000E+00 -0.45593999997E+02  0.45594000000E+02  0.51100000000E-03 0. -1.
         23    2    1    2    0    0  0.00000000000E+00  0.00000000000E+00  0.00000000000E+00  0.91188000000E+02  0.91188000000E+02 0.  0.
    9900012    2    3    3    0    0 -0.10706606936E+02  0.34865270155E+02  0.50558215371E+01  0.54367084388E+02  0.40000000479E+02 0.  0.
        -12    1    3    3    0    0  0.10706606936E+02 -0.34865270155E+02 -0.50558215371E+01  0.36820915612E+02  0.00000000000E+00 0.  1.
         11    1    4    4    0    0  0.57584502329E+01  0.15328497809E+02  0.13282246836E+02  0.21084133263E+02  0.51100000000E-03 0. -1.
        -11    1    4    4    0    0 -0.14932959571E+02  0.39101008006E+01  0.25213755056E+00  0.15438450162E+02  0.51100000000E-03 0.  1.
         12    1    4    4    0    0 -0.15320975982E+01  0.15626671545E+02 -0.84785628491E+01  0.17844500963E+02  0.00000000000E+00 0. -1.
</event>
<event>
 8    1  0.2472977E-006  0.9118800E+02  0.7816164E-02  0.1184000E+00
        -11   -1    0    0    0    0  0.00000000000E+00  0.00000000000E+00  0.45593999997E+02  0.45594000000E+02  0.51100000000E-03 0. -1.
         11   -1    0    0    0    0 -0.00000000000E+00 -0.00000000000E+00 -0.45593999997E+02  0.45594000000E+02  0.51100000000E-03 0.  1.
         23    2    1    2    0    0  0.00000000000E+00  0.00000000000E+00  0.00000000000E+00  0.91188000000E+02  0.91188000000E+02 0.  0.
    9900012    2    3    3    0    0 -0.28853297840E+02 -0.11859140121E+02  0.19560875835E+02  0.54367083878E+02  0.39999999316E+02 0.  0.
        -12    1    3    3    0    0  0.28853297840E+02  0.11859140121E+02 -0.19560875835E+02  0.36820916122E+02  0.00000000000E+00 0.  1.
         11    1    4    4    0    0 -0.32349759442E+01 -0.13883887196E+02  0.19379503214E+02  0.24058107534E+02  0.51100000000E-03 0. -1.
        -11    1    4    4    0    0 -0.68132057428E+01 -0.39314972973E+00 -0.72389687067E+01  0.99487188824E+01  0.51100000000E-03 0.  1.
         12    1    4    4    0    0 -0.18805116153E+02  0.24178968044E+01  0.74203413274E+01  0.20360257461E+02  0.00000000000E+00 0. -1.
</event>
<event>
 8    1  0.2472977E-006  0.9118800E+02  0.7816164E-02  0.1184000E+00
        -11   -1    0    0    0    0  0.00000000000E+00  0.00000000000E+00  0.45593999997E+02  0.45594000000E+02  0.51100000000E-03 0.  1.
         11   -1    0    0    0    0 -0.00000000000E+00 -0.00000000000E+00 -0.45593999997E+02  0.45594000000E+02  0.51100000000E-03 0. -1.
         23    2    1    2    0    0 -0.17763568394E-14  0.00000000000E+00  0.17763568394E-14  0.91188000000E+02  0.91188000000E+02 0.  0.
    9900012    2    3    3    0    0 -0.94932778822E+01  0.33120316080E+02 -0.12988859679E+02  0.54366971525E+02  0.39999743185E+02 0.  0.
        -12    1    3    3    0    0  0.94932778822E+01 -0.33120316080E+02  0.12988859679E+02  0.36821028475E+02  0.00000000000E+00 0.  1.
         11    1    4    4    0    0 -0.39887011068E+01 -0.41019654755E+01 -0.13725820634E+01  0.58838625973E+01  0.51100000000E-03 0. -1.
        -11    1    4    4    0    0 -0.21437882801E+01  0.34397258598E+02  0.16557541787E+01  0.34503749788E+02  0.51100000000E-03 0.  1.
        -12    1    4    4    0    0 -0.33607884953E+01  0.28250229577E+01 -0.13272031794E+02  0.13979359140E+02  0.00000000000E+00 0.  1.
</event>
<event>
 8    1  0.2472977E-006  0.9118800E+02  0.7816164E-02  0.1184000E+00
        -11   -1    0    0    0    0  0.00000000000E+00  0.00000000000E+00  0.45593999997E+02  0.45594000000E+02  0.51100000000E-03 0. -1.
         11   -1    0    0    0    0 -0.00000000000E+00 -0.00000000000E+00 -0.45593999997E+02  0.45594000000E+02  0.51100000000E-03 0.  1.
         23    2    1    2    0    0  0.00000000000E+00 -0.17763568394E-14  0.44408920985E-15  0.91188000000E+02  0.91188000000E+02 0.  0.
    9900012    2    3    3    0    0 -0.33418039118E+02  0.15314695023E+02  0.21151737468E+01  0.54367093138E+02  0.40000020427E+02 0.  0.
        -12    1    3    3    0    0  0.33418039118E+02 -0.15314695023E+02 -0.21151737468E+01  0.36820906862E+02  0.00000000000E+00 0.  1.
         11    1    4    4    0    0  0.25967016438E+01  0.74347787143E+01  0.85247968725E+01  0.11605643280E+02  0.51100000000E-03 0. -1.
        -11    1    4    4    0    0 -0.40917951957E+01  0.93714979985E+01 -0.33412380280E+00  0.10231295208E+02  0.51100000000E-03 0.  1.
         12    1    4    4    0    0 -0.31922945566E+02 -0.14915816894E+01 -0.60754993229E+01  0.32530154650E+02  0.00000000000E+00 0. -1.
</event>
<event>
 8    1  0.2472977E-006  0.9118800E+02  0.7816164E-02  0.1184000E+00
        -11   -1    0    0    0    0  0.00000000000E+00  0.00000000000E+00  0.45593999997E+02  0.45594000000E+02  0.51100000000E-03 0.  1.
         11   -1    0    0    0    0 -0.00000000000E+00 -0.00000000000E+00 -0.45593999997E+02  0.45594000000E+02  0.51100000000E-03 0. -1.
         23    2    1    2    0    0  0.00000000000E+00 -0.26367796835E-15 -0.17763568394E-14  0.91188000000E+02  0.91188000000E+02 0.  0.
    9900012    2    3    3    0    0  0.34917581746E+02  0.71536672685E-01 -0.11684894443E+02  0.54367090307E+02  0.40000013972E+02 0.  0.
        -12    1    3    3    0    0 -0.34917581746E+02 -0.71536672685E-01  0.11684894443E+02  0.36820909693E+02  0.00000000000E+00 0.  1.
         11    1    4    4    0    0  0.25913474431E+02 -0.52594825222E+01 -0.22032645566E+02  0.34418131622E+02  0.51100000000E-03 0. -1.
        -11    1    4    4    0    0  0.30793189759E+01  0.40346425544E+01 -0.25620562411E+01  0.56854796051E+01  0.51100000000E-03 0.  1.
        -12    1    4    4    0    0  0.59247883400E+01  0.12963766406E+01  0.12909807364E+02  0.14263479080E+02  0.00000000000E+00 0.  1.
</event>
<event>
 8    1  0.2472977E-006  0.9118800E+02  0.7816164E-02  0.1184000E+00
        -11   -1    0    0    0    0  0.00000000000E+00  0.00000000000E+00  0.45593999997E+02  0.45594000000E+02  0.51100000000E-03 0. -1.
         11   -1    0    0    0    0 -0.00000000000E+00 -0.00000000000E+00 -0.45593999997E+02  0.45594000000E+02  0.51100000000E-03 0.  1.
         23    2    1    2    0    0  0.00000000000E+00  0.00000000000E+00  0.00000000000E+00  0.91188000000E+02  0.91188000000E+02 0.  0.
    9900012    2    3    3    0    0  0.96712265815E+01 -0.23013423744E+02 -0.27067129017E+02  0.54367085166E+02  0.40000002252E+02 0.  0.
         12    1    3    3    0    0 -0.96712265815E+01  0.23013423744E+02  0.27067129017E+02  0.36820914834E+02  0.00000000000E+00 0. -1.
         11    1    4    4    0    0 -0.53372314208E+01  0.19515484501E+01  0.23368189139E+01  0.61445344405E+01  0.51100000000E-03 0. -1.
        -11    1    4    4    0    0 -0.30573269710E+01 -0.14181897495E+02 -0.21094733826E+02  0.25601977662E+02  0.51100000000E-03 0.  1.
        -12    1    4    4    0    0  0.18065784973E+02 -0.10783074699E+02 -0.83092141051E+01  0.22620573064E+02  0.00000000000E+00 0.  1.
</event>
<event>
 8    1  0.2472977E-006  0.9118800E+02  0.7816164E-02  0.1184000E+00
        -11   -1    0    0    0    0  0.00000000000E+00  0.00000000000E+00  0.45593999997E+02  0.45594000000E+02  0.51100000000E-03 0.  1.
         11   -1    0    0    0    0 -0.00000000000E+00 -0.00000000000E+00 -0.45593999997E+02  0.45594000000E+02  0.51100000000E-03 0. -1.
         23    2    1    2    0    0  0.00000000000E+00 -0.71054273576E-14  0.17763568394E-14  0.91188000000E+02  0.91188000000E+02 0.  0.
    9900012    2    3    3    0    0  0.25495795372E+02 -0.26142062530E+02  0.47277591151E+01  0.54366882130E+02  0.39999539390E+02 0.  0.
         12    1    3    3    0    0 -0.25495795372E+02  0.26142062530E+02 -0.47277591151E+01  0.36821117870E+02  0.00000000000E+00 0. -1.
         11    1    4    4    0    0  0.95383432017E+00  0.40119528636E+01  0.34683029355E+00  0.41383399091E+01  0.51100000000E-03 0. -1.
        -11    1    4    4    0    0  0.19932661596E+02 -0.36735142022E+01  0.10255773604E+02  0.22715338373E+02  0.51100000000E-03 0.  1.
         12    1    4    4    0    0  0.46092994553E+01 -0.26480501191E+02 -0.58748447824E+01  0.27513203849E+02  0.00000000000E+00 0. -1.
</event>
<event>
 8    1  0.2472977E-006  0.9118800E+02  0.7816164E-02  0.1184000E+00
        -11   -1    0    0    0    0  0.00000000000E+00  0.00000000000E+00  0.45593999997E+02  0.45594000000E+02  0.51100000000E-03 0.  1.
         11   -1    0    0    0    0 -0.00000000000E+00 -0.00000000000E+00 -0.45593999997E+02  0.45594000000E+02  0.51100000000E-03 0. -1.
         23    2    1    2    0    0 -0.17763568394E-14  0.00000000000E+00 -0.71054273576E-14  0.91188000000E+02  0.91188000000E+02 0.  0.
    9900012    2    3    3    0    0 -0.15720080514E+02 -0.10196732265E+02 -0.31696638660E+02  0.54367201766E+02  0.40000268065E+02 0.  0.
        -12    1    3    3    0    0  0.15720080514E+02  0.10196732265E+02  0.31696638660E+02  0.36820798234E+02  0.00000000000E+00 0.  1.
         11    1    4    4    0    0 -0.12647731897E+02 -0.95170501748E+01 -0.18349454420E+02  0.24233073349E+02  0.51100000000E-03 0. -1.
        -11    1    4    4    0    0 -0.13620486008E+02 -0.35506928481E+01 -0.17290650982E+01  0.14181492347E+02  0.51100000000E-03 0.  1.
        -12    1    4    4    0    0  0.10548137391E+02  0.28710107575E+01 -0.11618119142E+02  0.15952636071E+02  0.00000000000E+00 0.  1.
</event>
<event>
 8    1  0.2472977E-006  0.9118800E+02  0.7816164E-02  0.1184000E+00
        -11   -1    0    0    0    0  0.00000000000E+00  0.00000000000E+00  0.45593999997E+02  0.45594000000E+02  0.51100000000E-03 0.  1.
         11   -1    0    0    0    0 -0.00000000000E+00 -0.00000000000E+00 -0.45593999997E+02  0.45594000000E+02  0.51100000000E-03 0. -1.
         23    2    1    2    0    0 -0.71054273576E-14  0.00000000000E+00  0.00000000000E+00  0.91188000000E+02  0.91188000000E+02 0.  0.
    9900012    2    3    3    0    0 -0.31211704614E+02  0.59809026784E+01  0.18596652699E+02  0.54367120144E+02  0.40000081992E+02 0.  0.
         12    1    3    3    0    0  0.31211704614E+02 -0.59809026784E+01 -0.18596652699E+02  0.36820879856E+02  0.00000000000E+00 0. -1.
         11    1    4    4    0    0 -0.18477790939E+02 -0.11766116418E+02  0.79405952354E+01  0.23300714721E+02  0.51100000000E-03 0.  1.
        -11    1    4    4    0    0 -0.15939615149E+02  0.13777890705E+02  0.21908573519E+01  0.21182574432E+02  0.51100000000E-03 0. -1.
        -12    1    4    4    0    0  0.32057014736E+01  0.39691283916E+01  0.84652001116E+01  0.98838309909E+01  0.00000000000E+00 0.  1.
</event>
<event>
 8    1  0.2472977E-006  0.9118800E+02  0.7816164E-02  0.1184000E+00
        -11   -1    0    0    0    0  0.00000000000E+00  0.00000000000E+00  0.45593999997E+02  0.45594000000E+02  0.51100000000E-03 0. -1.
         11   -1    0    0    0    0 -0.00000000000E+00 -0.00000000000E+00 -0.45593999997E+02  0.45594000000E+02  0.51100000000E-03 0.  1.
         23    2    1    2    0    0  0.33306690739E-15  0.71054273576E-14  0.88817841970E-15  0.91188000000E+02  0.91188000000E+02 0.  0.
    9900012    2    3    3    0    0  0.82662256666E+00 -0.36077796370E+02 -0.73137954338E+01  0.54367050807E+02  0.39999923925E+02 0.  0.
        -12    1    3    3    0    0 -0.82662256666E+00  0.36077796370E+02  0.73137954338E+01  0.36820949193E+02  0.00000000000E+00 0.  1.
         11    1    4    4    0    0  0.21387106183E+01 -0.17677440698E+02  0.60614112622E+01  0.18809750117E+02  0.51100000000E-03 0. -1.
        -11    1    4    4    0    0  0.32291965033E+01  0.34329570343E+01  0.48454791890E+01  0.67595541930E+01  0.51100000000E-03 0.  1.
        -12    1    4    4    0    0 -0.45412845549E+01 -0.21833312707E+02 -0.18220685885E+02  0.28797746497E+02  0.00000000000E+00 0.  1.
</event>
<event>
 8    1  0.2472977E-006  0.9118800E+02  0.7816164E-02  0.1184000E+00
        -11   -1    0    0    0    0  0.00000000000E+00  0.00000000000E+00  0.45593999997E+02  0.45594000000E+02  0.51100000000E-03 0.  1.
         11   -1    0    0    0    0 -0.00000000000E+00 -0.00000000000E+00 -0.45593999997E+02  0.45594000000E+02  0.51100000000E-03 0. -1.
         23    2    1    2    0    0 -0.35527136788E-14  0.00000000000E+00 -0.44408920985E-15  0.91188000000E+02  0.91188000000E+02 0.  0.
    9900012    2    3    3    0    0 -0.24381337610E+02  0.27562199195E+02  0.12867846056E+01  0.54367078464E+02  0.39999986975E+02 0.  0.
         12    1    3    3    0    0  0.24381337610E+02 -0.27562199195E+02 -0.12867846056E+01  0.36820921536E+02  0.00000000000E+00 0. -1.
         11    1    4    4    0    0 -0.72048688872E+01  0.26011346088E+02 -0.10044330373E+02  0.28799111685E+02  0.51100000000E-03 0. -1.
        -11    1    4    4    0    0 -0.16983108352E+02 -0.10178748731E+01  0.35613731745E+01  0.17382330618E+02  0.51100000000E-03 0.  1.
        -12    1    4    4    0    0 -0.19336037084E+00  0.25687279801E+01  0.77697418037E+01  0.81856361613E+01  0.00000000000E+00 0.  1.
</event>
<event>
 8    1  0.2472977E-006  0.9118800E+02  0.7816164E-02  0.1184000E+00
        -11   -1    0    0    0    0  0.00000000000E+00  0.00000000000E+00  0.45593999997E+02  0.45594000000E+02  0.51100000000E-03 0.  1.
         11   -1    0    0    0    0 -0.00000000000E+00 -0.00000000000E+00 -0.45593999997E+02  0.45594000000E+02  0.51100000000E-03 0. -1.
         23    2    1    2    0    0 -0.35527136788E-14 -0.35527136788E-14  0.00000000000E+00  0.91188000000E+02  0.91188000000E+02 0.  0.
    9900012    2    3    3    0    0  0.11524293252E+02  0.18181588808E+02 -0.29873084792E+02  0.54367072506E+02  0.39999973392E+02 0.  0.
        -12    1    3    3    0    0 -0.11524293252E+02 -0.18181588808E+02  0.29873084792E+02  0.36820927494E+02  0.00000000000E+00 0.  1.
         11    1    4    4    0    0  0.46064777171E+01 -0.83258017449E+00 -0.56801514368E+01  0.73604991211E+01  0.51100000000E-03 0. -1.
        -11    1    4    4    0    0  0.16819736496E+02  0.96966125206E+01 -0.18455824581E+00  0.19415506488E+02  0.51100000000E-03 0.  1.
        -12    1    4    4    0    0 -0.99019209611E+01  0.93175564617E+01 -0.24008375109E+02  0.27591066897E+02  0.00000000000E+00 0.  1.
</event>
<event>
 8    1  0.2472977E-006  0.9118800E+02  0.7816164E-02  0.1184000E+00
        -11   -1    0    0    0    0  0.00000000000E+00  0.00000000000E+00  0.45593999997E+02  0.45594000000E+02  0.51100000000E-03 0. -1.
         11   -1    0    0    0    0 -0.00000000000E+00 -0.00000000000E+00 -0.45593999997E+02  0.45594000000E+02  0.51100000000E-03 0.  1.
         23    2    1    2    0    0  0.00000000000E+00  0.71054273576E-14 -0.35527136788E-14  0.91188000000E+02  0.91188000000E+02 0.  0.
    9900012    2    3    3    0    0  0.17864341792E+02  0.26626800988E+02 -0.18101384685E+02  0.54367063482E+02  0.39999952820E+02 0.  0.
         12    1    3    3    0    0 -0.17864341792E+02 -0.26626800988E+02  0.18101384685E+02  0.36820936518E+02  0.00000000000E+00 0. -1.
         11    1    4    4    0    0 -0.45430222307E+01 -0.72534885433E+00  0.54265523964E+01  0.71142570322E+01  0.51100000000E-03 0. -1.
        -11    1    4    4    0    0  0.18027727825E+01 -0.34391755987E+01 -0.29139609702E+01  0.48548004388E+01  0.51100000000E-03 0.  1.
        -12    1    4    4    0    0  0.20604591240E+02  0.30791325441E+02 -0.20613976111E+02  0.42398006011E+02  0.00000000000E+00 0.  1.
</event>
<event>
 8    1  0.2472977E-006  0.9118800E+02  0.7816164E-02  0.1184000E+00
        -11   -1    0    0    0    0  0.00000000000E+00  0.00000000000E+00  0.45593999997E+02  0.45594000000E+02  0.51100000000E-03 0.  1.
         11   -1    0    0    0    0 -0.00000000000E+00 -0.00000000000E+00 -0.45593999997E+02  0.45594000000E+02  0.51100000000E-03 0. -1.
         23    2    1    2    0    0 -0.17763568394E-14 -0.17763568394E-14  0.00000000000E+00  0.91188000000E+02  0.91188000000E+02 0.  0.
    9900012    2    3    3    0    0  0.10752328813E+02  0.13724841917E+02  0.32431409583E+02  0.54367079478E+02  0.39999989286E+02 0.  0.
         12    1    3    3    0    0 -0.10752328813E+02 -0.13724841917E+02 -0.32431409583E+02  0.36820920522E+02  0.00000000000E+00 0. -1.
         11    1    4    4    0    0  0.39850614223E-01 -0.79467014081E+01  0.68464065243E+01  0.10489277091E+02  0.51100000000E-03 0. -1.
        -11    1    4    4    0    0  0.15741962578E+02  0.24640340186E+02  0.23995270086E+02  0.37824975043E+02  0.51100000000E-03 0.  1.
        -12    1    4    4    0    0 -0.50294843797E+01 -0.29687968609E+01  0.15897329732E+01  0.60528273437E+01  0.00000000000E+00 0.  1.
</event>
<event>
 8    1  0.2472977E-006  0.9118800E+02  0.7816164E-02  0.1184000E+00
        -11   -1    0    0    0    0  0.00000000000E+00  0.00000000000E+00  0.45593999997E+02  0.45594000000E+02  0.51100000000E-03 0. -1.
         11   -1    0    0    0    0 -0.00000000000E+00 -0.00000000000E+00 -0.45593999997E+02  0.45594000000E+02  0.51100000000E-03 0.  1.
         23    2    1    2    0    0  0.55511151231E-15  0.00000000000E+00  0.00000000000E+00  0.91188000000E+02  0.91188000000E+02 0.  0.
    9900012    2    3    3    0    0  0.80313122503E+00  0.26497046380E+02 -0.25554681725E+02  0.54367078709E+02  0.39999987533E+02 0.  0.
         12    1    3    3    0    0 -0.80313122503E+00 -0.26497046380E+02  0.25554681725E+02  0.36820921291E+02  0.00000000000E+00 0. -1.
         11    1    4    4    0    0 -0.77780086218E+00  0.40429038970E+01  0.32764178863E+01  0.52616499816E+01  0.51100000000E-03 0. -1.
        -11    1    4    4    0    0  0.49222968964E+01 -0.13418262045E+01 -0.24075249697E+02  0.24609899483E+02  0.51100000000E-03 0.  1.
         12    1    4    4    0    0 -0.33413648092E+01  0.23795968688E+02 -0.47558499141E+01  0.24495529245E+02  0.00000000000E+00 0. -1.
</event>
<event>
 8    1  0.2472977E-006  0.9118800E+02  0.7816164E-02  0.1184000E+00
        -11   -1    0    0    0    0  0.00000000000E+00  0.00000000000E+00  0.45593999997E+02  0.45594000000E+02  0.51100000000E-03 0.  1.
         11   -1    0    0    0    0 -0.00000000000E+00 -0.00000000000E+00 -0.45593999997E+02  0.45594000000E+02  0.51100000000E-03 0. -1.
         23    2    1    2    0    0  0.00000000000E+00  0.00000000000E+00  0.35527136788E-14  0.91188000000E+02  0.91188000000E+02 0.  0.
    9900012    2    3    3    0    0  0.18306180962E+02  0.21446108162E+02 -0.23679657026E+02  0.54367109549E+02  0.40000057840E+02 0.  0.
        -12    1    3    3    0    0 -0.18306180962E+02 -0.21446108162E+02  0.23679657026E+02  0.36820890451E+02  0.00000000000E+00 0.  1.
         11    1    4    4    0    0 -0.20486990845E+01  0.35413843493E+01 -0.12090560234E+02  0.12764020451E+02  0.51100000000E-03 0. -1.
        -11    1    4    4    0    0  0.11800460499E+02  0.80312457095E+01  0.92489148895E+01  0.17008650814E+02  0.51100000000E-03 0.  1.
        -12    1    4    4    0    0  0.85544195483E+01  0.98734781029E+01 -0.20838011682E+02  0.24594438284E+02  0.00000000000E+00 0.  1.
</event>
<event>
 8    1  0.2472977E-006  0.9118800E+02  0.7816164E-02  0.1184000E+00
        -11   -1    0    0    0    0  0.00000000000E+00  0.00000000000E+00  0.45593999997E+02  0.45594000000E+02  0.51100000000E-03 0.  1.
         11   -1    0    0    0    0 -0.00000000000E+00 -0.00000000000E+00 -0.45593999997E+02  0.45594000000E+02  0.51100000000E-03 0. -1.
         23    2    1    2    0    0 -0.71054273576E-14  0.17763568394E-14  0.17763568394E-14  0.91188000000E+02  0.91188000000E+02 0.  0.
    9900012    2    3    3    0    0 -0.34238767863E+02  0.93162587297E+01  0.98326321787E+01  0.54367264578E+02  0.40000411255E+02 0.  0.
         12    1    3    3    0    0  0.34238767863E+02 -0.93162587297E+01 -0.98326321787E+01  0.36820735422E+02  0.00000000000E+00 0. -1.
         11    1    4    4    0    0 -0.27188624833E+02  0.22322549030E+02  0.11916347370E+02  0.37141847698E+02  0.51100000000E-03 0.  1.
        -11    1    4    4    0    0  0.63186647587E+00 -0.41776565325E+01 -0.34342674187E+01  0.54448381346E+01  0.51100000000E-03 0. -1.
         12    1    4    4    0    0 -0.76820095053E+01 -0.88286337677E+01  0.13505522270E+01  0.11780578745E+02  0.00000000000E+00 0. -1.
</event>
<event>
 8    1  0.2472977E-006  0.9118800E+02  0.7816164E-02  0.1184000E+00
        -11   -1    0    0    0    0  0.00000000000E+00  0.00000000000E+00  0.45593999997E+02  0.45594000000E+02  0.51100000000E-03 0. -1.
         11   -1    0    0    0    0 -0.00000000000E+00 -0.00000000000E+00 -0.45593999997E+02  0.45594000000E+02  0.51100000000E-03 0.  1.
         23    2    1    2    0    0  0.71054273576E-14 -0.88817841970E-15  0.00000000000E+00  0.91188000000E+02  0.91188000000E+02 0.  0.
    9900012    2    3    3    0    0  0.32216267203E+02 -0.95409587907E+00  0.17803971057E+02  0.54367088050E+02  0.40000008827E+02 0.  0.
        -12    1    3    3    0    0 -0.32216267203E+02  0.95409587907E+00 -0.17803971057E+02  0.36820911950E+02  0.00000000000E+00 0.  1.
         11    1    4    4    0    0  0.22857893294E+02  0.15544243730E+02  0.15280795643E+02  0.31584957096E+02  0.51100000000E-03 0. -1.
        -11    1    4    4    0    0 -0.14840163638E+00 -0.44104775311E+01  0.55684976116E+01  0.71051038704E+01  0.51100000000E-03 0.  1.
        -12    1    4    4    0    0  0.95067755451E+01 -0.12087862078E+02 -0.30453221979E+01  0.15677027083E+02  0.00000000000E+00 0.  1.
</event>
<event>
 8    1  0.2472977E-006  0.9118800E+02  0.7816164E-02  0.1184000E+00
        -11   -1    0    0    0    0  0.00000000000E+00  0.00000000000E+00  0.45593999997E+02  0.45594000000E+02  0.51100000000E-03 0. -1.
         11   -1    0    0    0    0 -0.00000000000E+00 -0.00000000000E+00 -0.45593999997E+02  0.45594000000E+02  0.51100000000E-03 0.  1.
         23    2    1    2    0    0  0.17763568394E-14  0.00000000000E+00  0.00000000000E+00  0.91188000000E+02  0.91188000000E+02 0.  0.
    9900012    2    3    3    0    0 -0.15032716327E+02 -0.12103592681E+02 -0.31357651971E+02  0.54367056868E+02  0.39999937742E+02 0.  0.
         12    1    3    3    0    0  0.15032716327E+02  0.12103592681E+02  0.31357651971E+02  0.36820943132E+02  0.00000000000E+00 0. -1.
         11    1    4    4    0    0 -0.75069024237E+00  0.88779273556E+01 -0.19453141421E+00  0.89117323066E+01  0.51100000000E-03 0. -1.
        -11    1    4    4    0    0 -0.37315757019E+01 -0.23438867193E+00  0.25226802183E+01  0.45103781453E+01  0.51100000000E-03 0.  1.
        -12    1    4    4    0    0 -0.10550450383E+02 -0.20747131365E+02 -0.33685800775E+02  0.40944946416E+02  0.00000000000E+00 0.  1.
</event>
<event>
 8    1  0.2472977E-006  0.9118800E+02  0.7816164E-02  0.1184000E+00
        -11   -1    0    0    0    0  0.00000000000E+00  0.00000000000E+00  0.45593999997E+02  0.45594000000E+02  0.51100000000E-03 0.  1.
         11   -1    0    0    0    0 -0.00000000000E+00 -0.00000000000E+00 -0.45593999997E+02  0.45594000000E+02  0.51100000000E-03 0. -1.
         23    2    1    2    0    0  0.00000000000E+00  0.00000000000E+00 -0.35527136788E-14  0.91188000000E+02  0.91188000000E+02 0.  0.
    9900012    2    3    3    0    0  0.22121979813E+02 -0.18032945302E+02 -0.23263932846E+02  0.54367086397E+02  0.40000005059E+02 0.  0.
        -12    1    3    3    0    0 -0.22121979813E+02  0.18032945302E+02  0.23263932846E+02  0.36820913603E+02  0.00000000000E+00 0.  1.
         11    1    4    4    0    0  0.15362508068E+02 -0.42123638057E+01 -0.32479342483E+02  0.36175383223E+02  0.51100000000E-03 0. -1.
        -11    1    4    4    0    0  0.34042254403E+01 -0.10162029838E+02  0.61152253618E+01  0.12339026816E+02  0.51100000000E-03 0.  1.
         12    1    4    4    0    0  0.33552463051E+01 -0.36585516577E+01  0.31001842755E+01  0.58526763572E+01  0.00000000000E+00 0. -1.
</event>
<event>
 8    1  0.2472977E-006  0.9118800E+02  0.7816164E-02  0.1184000E+00
        -11   -1    0    0    0    0  0.00000000000E+00  0.00000000000E+00  0.45593999997E+02  0.45594000000E+02  0.51100000000E-03 0.  1.
         11   -1    0    0    0    0 -0.00000000000E+00 -0.00000000000E+00 -0.45593999997E+02  0.45594000000E+02  0.51100000000E-03 0. -1.
         23    2    1    2    0    0 -0.17763568394E-14  0.17763568394E-14  0.00000000000E+00  0.91188000000E+02  0.91188000000E+02 0.  0.
    9900012    2    3    3    0    0  0.75645972490E+01 -0.96394477902E+01  0.34722360121E+02  0.54367022587E+02  0.39999859592E+02 0.  0.
         12    1    3    3    0    0 -0.75645972490E+01  0.96394477902E+01 -0.34722360121E+02  0.36820977413E+02  0.00000000000E+00 0. -1.
         11    1    4    4    0    0  0.79001761063E+00  0.11330932956E+01  0.18371205745E+02  0.18423062423E+02  0.51100000000E-03 0. -1.
        -11    1    4    4    0    0  0.43924957932E+01  0.16005525032E+00  0.22671177426E+02  0.23093330707E+02  0.51100000000E-03 0.  1.
         12    1    4    4    0    0  0.23820838451E+01 -0.10932596336E+02 -0.63200230507E+01  0.12850629458E+02  0.00000000000E+00 0. -1.
</event>
<event>
 8    1  0.2472977E-006  0.9118800E+02  0.7816164E-02  0.1184000E+00
        -11   -1    0    0    0    0  0.00000000000E+00  0.00000000000E+00  0.45593999997E+02  0.45594000000E+02  0.51100000000E-03 0.  1.
         11   -1    0    0    0    0 -0.00000000000E+00 -0.00000000000E+00 -0.45593999997E+02  0.45594000000E+02  0.51100000000E-03 0. -1.
         23    2    1    2    0    0  0.00000000000E+00  0.00000000000E+00  0.35527136788E-14  0.91188000000E+02  0.91188000000E+02 0.  0.
    9900012    2    3    3    0    0  0.21330972832E+02  0.22274412147E+02  0.20115174528E+02  0.54367080881E+02  0.39999992485E+02 0.  0.
         12    1    3    3    0    0 -0.21330972832E+02 -0.22274412147E+02 -0.20115174528E+02  0.36820919119E+02  0.00000000000E+00 0. -1.
         11    1    4    4    0    0  0.16800046094E+02  0.30473560744E+02  0.13323788453E+02  0.37261277382E+02  0.51100000000E-03 0.  1.
        -11    1    4    4    0    0 -0.36599064806E+01  0.51459316493E+00  0.21631753581E+01  0.42824116410E+01  0.51100000000E-03 0. -1.
         12    1    4    4    0    0  0.81908332190E+01 -0.87137417618E+01  0.46282107169E+01  0.12823391858E+02  0.00000000000E+00 0. -1.
</event>
<event>
 8    1  0.2472977E-006  0.9118800E+02  0.7816164E-02  0.1184000E+00
        -11   -1    0    0    0    0  0.00000000000E+00  0.00000000000E+00  0.45593999997E+02  0.45594000000E+02  0.51100000000E-03 0.  1.
         11   -1    0    0    0    0 -0.00000000000E+00 -0.00000000000E+00 -0.45593999997E+02  0.45594000000E+02  0.51100000000E-03 0. -1.
         23    2    1    2    0    0 -0.35527136788E-14  0.00000000000E+00  0.00000000000E+00  0.91188000000E+02  0.91188000000E+02 0.  0.
    9900012    2    3    3    0    0 -0.15334690629E+02 -0.16439123698E+02  0.29161277449E+02  0.54367114255E+02  0.40000068566E+02 0.  0.
         12    1    3    3    0    0  0.15334690629E+02  0.16439123698E+02 -0.29161277449E+02  0.36820885745E+02  0.00000000000E+00 0. -1.
         11    1    4    4    0    0  0.52055142368E+01 -0.17081151619E+02  0.10882080773E+02  0.20911307977E+02  0.51100000000E-03 0. -1.
        -11    1    4    4    0    0 -0.18437597331E+01  0.40792973496E+00  0.14191122665E+02  0.14316208276E+02  0.51100000000E-03 0.  1.
         12    1    4    4    0    0 -0.18696445133E+02  0.23409818680E+00  0.40880740099E+01  0.19139598002E+02  0.00000000000E+00 0. -1.
</event>
<event>
 8    1  0.2472977E-006  0.9118800E+02  0.7816164E-02  0.1184000E+00
        -11   -1    0    0    0    0  0.00000000000E+00  0.00000000000E+00  0.45593999997E+02  0.45594000000E+02  0.51100000000E-03 0.  1.
         11   -1    0    0    0    0 -0.00000000000E+00 -0.00000000000E+00 -0.45593999997E+02  0.45594000000E+02  0.51100000000E-03 0. -1.
         23    2    1    2    0    0  0.00000000000E+00  0.00000000000E+00  0.35527136788E-14  0.91188000000E+02  0.91188000000E+02 0.  0.
    9900012    2    3    3    0    0 -0.22144070214E+02  0.23760258589E+02 -0.17345599737E+02  0.54367087952E+02  0.40000008603E+02 0.  0.
        -12    1    3    3    0    0  0.22144070214E+02 -0.23760258589E+02  0.17345599737E+02  0.36820912048E+02  0.00000000000E+00 0.  1.
         11    1    4    4    0    0 -0.76190481720E+01 -0.20238596029E+01 -0.39646763562E+01  0.88240898460E+01  0.51100000000E-03 0. -1.
        -11    1    4    4    0    0  0.54842006970E+01  0.13549087420E+02  0.53112460310E+01  0.15551963280E+02  0.51100000000E-03 0.  1.
         12    1    4    4    0    0 -0.20009222739E+02  0.12235030772E+02 -0.18692169412E+02  0.29991034826E+02  0.00000000000E+00 0. -1.
</event>
<event>
 8    1  0.2472977E-006  0.9118800E+02  0.7816164E-02  0.1184000E+00
        -11   -1    0    0    0    0  0.00000000000E+00  0.00000000000E+00  0.45593999997E+02  0.45594000000E+02  0.51100000000E-03 0.  1.
         11   -1    0    0    0    0 -0.00000000000E+00 -0.00000000000E+00 -0.45593999997E+02  0.45594000000E+02  0.51100000000E-03 0. -1.
         23    2    1    2    0    0  0.00000000000E+00  0.00000000000E+00  0.00000000000E+00  0.91188000000E+02  0.91188000000E+02 0.  0.
    9900012    2    3    3    0    0 -0.15972716289E+02 -0.21945559474E+02 -0.24880618671E+02  0.54367076169E+02  0.39999981743E+02 0.  0.
        -12    1    3    3    0    0  0.15972716289E+02  0.21945559474E+02  0.24880618671E+02  0.36820923831E+02  0.00000000000E+00 0.  1.
         11    1    4    4    0    0  0.67382375414E+01 -0.52646011098E+01 -0.18750011024E+02  0.20607833066E+02  0.51100000000E-03 0. -1.
        -11    1    4    4    0    0 -0.13945228401E+02  0.20374491496E+00 -0.65347430653E+00  0.13962017622E+02  0.51100000000E-03 0.  1.
         12    1    4    4    0    0 -0.87657254295E+01 -0.16884703279E+02 -0.54771333407E+01  0.19797225481E+02  0.00000000000E+00 0. -1.
</event>
<event>
 8    1  0.2472977E-006  0.9118800E+02  0.7816164E-02  0.1184000E+00
        -11   -1    0    0    0    0  0.00000000000E+00  0.00000000000E+00  0.45593999997E+02  0.45594000000E+02  0.51100000000E-03 0. -1.
         11   -1    0    0    0    0 -0.00000000000E+00 -0.00000000000E+00 -0.45593999997E+02  0.45594000000E+02  0.51100000000E-03 0.  1.
         23    2    1    2    0    0 -0.35527136788E-14  0.88817841970E-15  0.00000000000E+00  0.91188000000E+02  0.91188000000E+02 0.  0.
    9900012    2    3    3    0    0  0.31642309415E+02 -0.62986917643E+01 -0.17744585500E+02  0.54367087767E+02  0.40000008183E+02 0.  0.
         12    1    3    3    0    0 -0.31642309415E+02  0.62986917643E+01  0.17744585500E+02  0.36820912233E+02  0.00000000000E+00 0. -1.
         11    1    4    4    0    0  0.15621584305E+02 -0.16840413571E+01 -0.17416172414E+02  0.23456192217E+02  0.51100000000E-03 0. -1.
        -11    1    4    4    0    0  0.18159580855E+02  0.24853592020E+01 -0.82151095764E+01  0.20085701700E+02  0.51100000000E-03 0.  1.
         12    1    4    4    0    0 -0.21388557451E+01 -0.71000096093E+01  0.78866964906E+01  0.10825193850E+02  0.00000000000E+00 0. -1.
</event>
<event>
 8    1  0.2472977E-006  0.9118800E+02  0.7816164E-02  0.1184000E+00
        -11   -1    0    0    0    0  0.00000000000E+00  0.00000000000E+00  0.45593999997E+02  0.45594000000E+02  0.51100000000E-03 0.  1.
         11   -1    0    0    0    0 -0.00000000000E+00 -0.00000000000E+00 -0.45593999997E+02  0.45594000000E+02  0.51100000000E-03 0. -1.
         23    2    1    2    0    0 -0.44408920985E-15  0.00000000000E+00  0.00000000000E+00  0.91188000000E+02  0.91188000000E+02 0.  0.
    9900012    2    3    3    0    0  0.17030722919E+01 -0.30856059779E+02  0.20019574808E+02  0.54367078559E+02  0.39999987190E+02 0.  0.
         12    1    3    3    0    0 -0.17030722919E+01  0.30856059779E+02 -0.20019574808E+02  0.36820921441E+02  0.00000000000E+00 0. -1.
         11    1    4    4    0    0 -0.29453075469E+00 -0.25484640191E+02  0.16958490064E+02  0.30612808096E+02  0.51100000000E-03 0. -1.
        -11    1    4    4    0    0  0.31522541136E+01 -0.12205966033E+02  0.82759363350E+01  0.15080233264E+02  0.51100000000E-03 0.  1.
         12    1    4    4    0    0 -0.11546510671E+01  0.68345464452E+01 -0.52148515915E+01  0.86740371985E+01  0.00000000000E+00 0. -1.
</event>
<event>
 8    1  0.2472977E-006  0.9118800E+02  0.7816164E-02  0.1184000E+00
        -11   -1    0    0    0    0  0.00000000000E+00  0.00000000000E+00  0.45593999997E+02  0.45594000000E+02  0.51100000000E-03 0.  1.
         11   -1    0    0    0    0 -0.00000000000E+00 -0.00000000000E+00 -0.45593999997E+02  0.45594000000E+02  0.51100000000E-03 0. -1.
         23    2    1    2    0    0  0.35527136788E-14 -0.35527136788E-14  0.00000000000E+00  0.91188000000E+02  0.91188000000E+02 0.  0.
    9900012    2    3    3    0    0  0.12879487654E+02 -0.86431449893E+01  0.33394542427E+02  0.54367073593E+02  0.39999975870E+02 0.  0.
         12    1    3    3    0    0 -0.12879487654E+02  0.86431449893E+01 -0.33394542427E+02  0.36820926407E+02  0.00000000000E+00 0. -1.
         11    1    4    4    0    0  0.47322553297E+01 -0.50510512394E+01 -0.23516209743E+01  0.73100944314E+01  0.51100000000E-03 0. -1.
        -11    1    4    4    0    0  0.46334475696E+01  0.12428256093E+02  0.21848372748E+02  0.25559377494E+02  0.51100000000E-03 0.  1.
        -12    1    4    4    0    0  0.35137847550E+01 -0.16020349843E+02  0.13897790654E+02  0.21497601667E+02  0.00000000000E+00 0.  1.
</event>
<event>
 8    1  0.2472977E-006  0.9118800E+02  0.7816164E-02  0.1184000E+00
        -11   -1    0    0    0    0  0.00000000000E+00  0.00000000000E+00  0.45593999997E+02  0.45594000000E+02  0.51100000000E-03 0. -1.
         11   -1    0    0    0    0 -0.00000000000E+00 -0.00000000000E+00 -0.45593999997E+02  0.45594000000E+02  0.51100000000E-03 0.  1.
         23    2    1    2    0    0  0.00000000000E+00  0.35527136788E-14 -0.35527136788E-14  0.91188000000E+02  0.91188000000E+02 0.  0.
    9900012    2    3    3    0    0  0.58719914390E+01  0.23159284898E+02 -0.28016918699E+02  0.54367075326E+02  0.39999979821E+02 0.  0.
         12    1    3    3    0    0 -0.58719914390E+01 -0.23159284898E+02  0.28016918699E+02  0.36820924674E+02  0.00000000000E+00 0. -1.
         11    1    4    4    0    0  0.61623308441E+00  0.16883567655E+02 -0.25334015944E+01  0.17083697605E+02  0.51100000000E-03 0. -1.
        -11    1    4    4    0    0  0.15211929859E+02  0.80833991836E+00 -0.10589737269E+02  0.18552594405E+02  0.51100000000E-03 0.  1.
        -12    1    4    4    0    0 -0.99561715048E+01  0.54673773246E+01 -0.14893779836E+02  0.18730783316E+02  0.00000000000E+00 0.  1.
</event>
<event>
 8    1  0.2472977E-006  0.9118800E+02  0.7816164E-02  0.1184000E+00
        -11   -1    0    0    0    0  0.00000000000E+00  0.00000000000E+00  0.45593999997E+02  0.45594000000E+02  0.51100000000E-03 0.  1.
         11   -1    0    0    0    0 -0.00000000000E+00 -0.00000000000E+00 -0.45593999997E+02  0.45594000000E+02  0.51100000000E-03 0. -1.
         23    2    1    2    0    0 -0.71054273576E-14 -0.35527136788E-14  0.17763568394E-14  0.91188000000E+02  0.91188000000E+02 0.  0.
    9900012    2    3    3    0    0 -0.22232106588E+02 -0.26068956580E+02  0.13487874893E+02  0.54367084345E+02  0.40000000382E+02 0.  0.
        -12    1    3    3    0    0  0.22232106588E+02  0.26068956580E+02 -0.13487874893E+02  0.36820915655E+02  0.00000000000E+00 0.  1.
         11    1    4    4    0    0 -0.91512484930E+00  0.62729769241E+00  0.84550293512E+01  0.85275129713E+01  0.51100000000E-03 0. -1.
        -11    1    4    4    0    0 -0.28377390413E+02 -0.21546282706E+02  0.81690489412E+01  0.36554780070E+02  0.51100000000E-03 0.  1.
         12    1    4    4    0    0  0.70604086749E+01 -0.51499715664E+01 -0.31362033992E+01  0.92847913036E+01  0.00000000000E+00 0. -1.
</event>
<event>
 8    1  0.2472977E-006  0.9118800E+02  0.7816164E-02  0.1184000E+00
        -11   -1    0    0    0    0  0.00000000000E+00  0.00000000000E+00  0.45593999997E+02  0.45594000000E+02  0.51100000000E-03 0.  1.
         11   -1    0    0    0    0 -0.00000000000E+00 -0.00000000000E+00 -0.45593999997E+02  0.45594000000E+02  0.51100000000E-03 0. -1.
         23    2    1    2    0    0  0.00000000000E+00  0.00000000000E+00 -0.35527136788E-14  0.91188000000E+02  0.91188000000E+02 0.  0.
    9900012    2    3    3    0    0 -0.21552264017E+02  0.29019388979E+02  0.70110654923E+01  0.54367081214E+02  0.39999993243E+02 0.  0.
        -12    1    3    3    0    0  0.21552264017E+02 -0.29019388979E+02 -0.70110654923E+01  0.36820918786E+02  0.00000000000E+00 0.  1.
         11    1    4    4    0    0 -0.92527092843E+01  0.29177939125E+02 -0.98446396452E+01  0.32154030707E+02  0.51100000000E-03 0. -1.
        -11    1    4    4    0    0 -0.77661908298E+01 -0.83734922655E+00  0.44551749259E+01  0.89924111123E+01  0.51100000000E-03 0.  1.
         12    1    4    4    0    0 -0.45333639028E+01  0.67879907988E+00  0.12400530212E+02  0.13220639394E+02  0.00000000000E+00 0. -1.
</event>
<event>
 8    1  0.2472977E-006  0.9118800E+02  0.7816164E-02  0.1184000E+00
        -11   -1    0    0    0    0  0.00000000000E+00  0.00000000000E+00  0.45593999997E+02  0.45594000000E+02  0.51100000000E-03 0.  1.
         11   -1    0    0    0    0 -0.00000000000E+00 -0.00000000000E+00 -0.45593999997E+02  0.45594000000E+02  0.51100000000E-03 0. -1.
         23    2    1    2    0    0  0.00000000000E+00  0.00000000000E+00  0.88817841970E-15  0.91188000000E+02  0.91188000000E+02 0.  0.
    9900012    2    3    3    0    0 -0.18071206083E+02  0.31422872915E+02 -0.64663958309E+01  0.54367086017E+02  0.40000004193E+02 0.  0.
         12    1    3    3    0    0  0.18071206083E+02 -0.31422872915E+02  0.64663958309E+01  0.36820913983E+02  0.00000000000E+00 0. -1.
         11    1    4    4    0    0  0.22879504703E+01  0.32696276156E+00 -0.47839350997E+01  0.53129706664E+01  0.51100000000E-03 0. -1.
        -11    1    4    4    0    0  0.74716681562E+01  0.39167939991E+00  0.88609629472E+00  0.75342155990E+01  0.51100000000E-03 0.  1.
        -12    1    4    4    0    0 -0.27830824710E+02  0.30704230753E+02 -0.25685570259E+01  0.41519899751E+02  0.00000000000E+00 0.  1.
</event>
<event>
 8    1  0.2472977E-006  0.9118800E+02  0.7816164E-02  0.1184000E+00
        -11   -1    0    0    0    0  0.00000000000E+00  0.00000000000E+00  0.45593999997E+02  0.45594000000E+02  0.51100000000E-03 0. -1.
         11   -1    0    0    0    0 -0.00000000000E+00 -0.00000000000E+00 -0.45593999997E+02  0.45594000000E+02  0.51100000000E-03 0.  1.
         23    2    1    2    0    0  0.00000000000E+00  0.00000000000E+00 -0.35527136788E-14  0.91188000000E+02  0.91188000000E+02 0.  0.
    9900012    2    3    3    0    0  0.19558506609E+02 -0.94722894743E+01 -0.29724071969E+02  0.54367083348E+02  0.39999998109E+02 0.  0.
         12    1    3    3    0    0 -0.19558506609E+02  0.94722894743E+01  0.29724071969E+02  0.36820916652E+02  0.00000000000E+00 0. -1.
         11    1    4    4    0    0 -0.10376302471E+02 -0.21836737999E+01 -0.23489031179E+01  0.10860636738E+02  0.51100000000E-03 0. -1.
        -11    1    4    4    0    0  0.93973584804E+01 -0.64989820605E+01 -0.17001803672E+02  0.20484346282E+02  0.51100000000E-03 0.  1.
         12    1    4    4    0    0  0.20537450600E+02 -0.78963361382E+00 -0.10373365180E+02  0.23022100328E+02  0.00000000000E+00 0. -1.
</event>
<event>
 8    1  0.2472977E-006  0.9118800E+02  0.7816164E-02  0.1184000E+00
        -11   -1    0    0    0    0  0.00000000000E+00  0.00000000000E+00  0.45593999997E+02  0.45594000000E+02  0.51100000000E-03 0. -1.
         11   -1    0    0    0    0 -0.00000000000E+00 -0.00000000000E+00 -0.45593999997E+02  0.45594000000E+02  0.51100000000E-03 0.  1.
         23    2    1    2    0    0  0.13322676296E-14 -0.71054273576E-14 -0.35527136788E-14  0.91188000000E+02  0.91188000000E+02 0.  0.
    9900012    2    3    3    0    0  0.33719581610E+01 -0.29249280493E+02 -0.22110841968E+02  0.54367084154E+02  0.39999999946E+02 0.  0.
         12    1    3    3    0    0 -0.33719581610E+01  0.29249280493E+02  0.22110841968E+02  0.36820915846E+02  0.00000000000E+00 0. -1.
         11    1    4    4    0    0 -0.82372298130E+01  0.11534522054E+00 -0.73445413126E+01  0.11036645635E+02  0.51100000000E-03 0.  1.
        -11    1    4    4    0    0  0.24582524275E+01 -0.31115191917E+02 -0.13173929024E+02  0.33878467782E+02  0.51100000000E-03 0. -1.
         12    1    4    4    0    0  0.91509355466E+01  0.17505662036E+01 -0.15923716312E+01  0.94519707375E+01  0.00000000000E+00 0. -1.
</event>
<event>
 8    1  0.2472977E-006  0.9118800E+02  0.7816164E-02  0.1184000E+00
        -11   -1    0    0    0    0  0.00000000000E+00  0.00000000000E+00  0.45593999997E+02  0.45594000000E+02  0.51100000000E-03 0. -1.
         11   -1    0    0    0    0 -0.00000000000E+00 -0.00000000000E+00 -0.45593999997E+02  0.45594000000E+02  0.51100000000E-03 0.  1.
         23    2    1    2    0    0 -0.35527136788E-14 -0.35527136788E-14 -0.17763568394E-14  0.91188000000E+02  0.91188000000E+02 0.  0.
    9900012    2    3    3    0    0  0.31445129267E+02  0.13500536972E+02 -0.13591451215E+02  0.54366970692E+02  0.39999741286E+02 0.  0.
         12    1    3    3    0    0 -0.31445129267E+02 -0.13500536972E+02  0.13591451215E+02  0.36821029308E+02  0.00000000000E+00 0. -1.
         11    1    4    4    0    0  0.61048231057E+01 -0.64533290502E+01  0.65859019341E+01  0.11058409720E+02  0.51100000000E-03 0. -1.
        -11    1    4    4    0    0  0.29997992525E+01  0.11251732831E+02  0.48953095520E+00  0.11655038741E+02  0.51100000000E-03 0.  1.
        -12    1    4    4    0    0  0.22340506909E+02  0.87021331917E+01 -0.20666884104E+02  0.31653522231E+02  0.00000000000E+00 0.  1.
</event>
<event>
 8    1  0.2472977E-006  0.9118800E+02  0.7816164E-02  0.1184000E+00
        -11   -1    0    0    0    0  0.00000000000E+00  0.00000000000E+00  0.45593999997E+02  0.45594000000E+02  0.51100000000E-03 0.  1.
         11   -1    0    0    0    0 -0.00000000000E+00 -0.00000000000E+00 -0.45593999997E+02  0.45594000000E+02  0.51100000000E-03 0. -1.
         23    2    1    2    0    0  0.17763568394E-14 -0.35527136788E-14 -0.35527136788E-14  0.91188000000E+02  0.91188000000E+02 0.  0.
    9900012    2    3    3    0    0 -0.35611905064E+01 -0.27471061619E+02 -0.24257710584E+02  0.54367111538E+02  0.40000062374E+02 0.  0.
        -12    1    3    3    0    0  0.35611905064E+01  0.27471061619E+02  0.24257710584E+02  0.36820888462E+02  0.00000000000E+00 0.  1.
         11    1    4    4    0    0  0.28206373325E+01 -0.40746778571E+01 -0.10278645797E+02  0.11410940114E+02  0.51100000000E-03 0. -1.
        -11    1    4    4    0    0 -0.18740606161E+02 -0.14305086750E+02 -0.14366659495E+02  0.27608816192E+02  0.51100000000E-03 0.  1.
        -12    1    4    4    0    0  0.12358778322E+02 -0.90912970116E+01  0.38759470870E+00  0.15347355232E+02  0.00000000000E+00 0.  1.
</event>
<event>
 8    1  0.2472977E-006  0.9118800E+02  0.7816164E-02  0.1184000E+00
        -11   -1    0    0    0    0  0.00000000000E+00  0.00000000000E+00  0.45593999997E+02  0.45594000000E+02  0.51100000000E-03 0. -1.
         11   -1    0    0    0    0 -0.00000000000E+00 -0.00000000000E+00 -0.45593999997E+02  0.45594000000E+02  0.51100000000E-03 0.  1.
         23    2    1    2    0    0 -0.35527136788E-14  0.13322676296E-14 -0.35527136788E-14  0.91188000000E+02  0.91188000000E+02 0.  0.
    9900012    2    3    3    0    0 -0.31641390571E+02  0.25090182259E+01 -0.18663021027E+02  0.54367066775E+02  0.39999960326E+02 0.  0.
        -12    1    3    3    0    0  0.31641390571E+02 -0.25090182259E+01  0.18663021027E+02  0.36820933225E+02  0.00000000000E+00 0.  1.
         11    1    4    4    0    0 -0.12882938346E+02  0.43545748169E+01  0.88473710775E+01  0.16223698638E+02  0.51100000000E-03 0. -1.
        -11    1    4    4    0    0 -0.10252149884E+02  0.28166931782E+01 -0.19568108438E+01  0.10810617311E+02  0.51100000000E-03 0.  1.
        -12    1    4    4    0    0 -0.85063023412E+01 -0.46622497692E+01 -0.25553581261E+02  0.27332750825E+02  0.00000000000E+00 0.  1.
</event>
<event>
 8    1  0.2472977E-006  0.9118800E+02  0.7816164E-02  0.1184000E+00
        -11   -1    0    0    0    0  0.00000000000E+00  0.00000000000E+00  0.45593999997E+02  0.45594000000E+02  0.51100000000E-03 0. -1.
         11   -1    0    0    0    0 -0.00000000000E+00 -0.00000000000E+00 -0.45593999997E+02  0.45594000000E+02  0.51100000000E-03 0.  1.
         23    2    1    2    0    0  0.00000000000E+00  0.35527136788E-14  0.66613381478E-15  0.91188000000E+02  0.91188000000E+02 0.  0.
    9900012    2    3    3    0    0  0.22190929681E+02  0.29339840562E+02 -0.15864321771E+01  0.54367076990E+02  0.39999983613E+02 0.  0.
         12    1    3    3    0    0 -0.22190929681E+02 -0.29339840562E+02  0.15864321771E+01  0.36820923010E+02  0.00000000000E+00 0. -1.
         11    1    4    4    0    0  0.26090316488E+02  0.18532292973E+02 -0.40263609028E+01  0.32254644312E+02  0.51100000000E-03 0. -1.
        -11    1    4    4    0    0  0.64609846392E+00  0.10565551651E+02 -0.62570141570E+01  0.12296282012E+02  0.51100000000E-03 0.  1.
         12    1    4    4    0    0 -0.45454852713E+01  0.24199593811E+00  0.86969428828E+01  0.98161506657E+01  0.00000000000E+00 0. -1.
</event>
<event>
 8    1  0.2472977E-006  0.9118800E+02  0.7816164E-02  0.1184000E+00
        -11   -1    0    0    0    0  0.00000000000E+00  0.00000000000E+00  0.45593999997E+02  0.45594000000E+02  0.51100000000E-03 0.  1.
         11   -1    0    0    0    0 -0.00000000000E+00 -0.00000000000E+00 -0.45593999997E+02  0.45594000000E+02  0.51100000000E-03 0. -1.
         23    2    1    2    0    0 -0.35527136788E-14  0.00000000000E+00 -0.35527136788E-14  0.91188000000E+02  0.91188000000E+02 0.  0.
    9900012    2    3    3    0    0  0.29405015634E+02  0.10237259790E+02 -0.19655099562E+02  0.54367090570E+02  0.40000014572E+02 0.  0.
        -12    1    3    3    0    0 -0.29405015634E+02 -0.10237259790E+02  0.19655099562E+02  0.36820909430E+02  0.00000000000E+00 0.  1.
         11    1    4    4    0    0  0.19638736853E+02  0.77229837486E+01 -0.14709241991E+01  0.21153914092E+02  0.51100000000E-03 0.  1.
        -11    1    4    4    0    0  0.13831511232E+02 -0.51745449249E+01 -0.19453300047E+02  0.24423707768E+02  0.51100000000E-03 0. -1.
         12    1    4    4    0    0 -0.40652324508E+01  0.76888209665E+01  0.12691246848E+01  0.87894687097E+01  0.00000000000E+00 0. -1.
</event>
<event>
 8    1  0.2472977E-006  0.9118800E+02  0.7816164E-02  0.1184000E+00
        -11   -1    0    0    0    0  0.00000000000E+00  0.00000000000E+00  0.45593999997E+02  0.45594000000E+02  0.51100000000E-03 0.  1.
         11   -1    0    0    0    0 -0.00000000000E+00 -0.00000000000E+00 -0.45593999997E+02  0.45594000000E+02  0.51100000000E-03 0. -1.
         23    2    1    2    0    0  0.00000000000E+00  0.00000000000E+00  0.00000000000E+00  0.91188000000E+02  0.91188000000E+02 0.  0.
    9900012    2    3    3    0    0  0.17181031411E+02 -0.96629525099E+01 -0.31100132171E+02  0.54367099514E+02  0.40000034962E+02 0.  0.
        -12    1    3    3    0    0 -0.17181031411E+02  0.96629525099E+01  0.31100132171E+02  0.36820900486E+02  0.00000000000E+00 0.  1.
         11    1    4    4    0    0  0.23290168493E+02 -0.16105480553E+02 -0.88818624135E+01  0.29676690052E+02  0.51100000000E-03 0. -1.
        -11    1    4    4    0    0 -0.44571161023E+01  0.81092268223E+00 -0.12956819923E+02  0.13725984931E+02  0.51100000000E-03 0.  1.
         12    1    4    4    0    0 -0.16520209792E+01  0.56316053610E+01 -0.92614498338E+01  0.10964424530E+02  0.00000000000E+00 0. -1.
</event>
<event>
 8    1  0.2472977E-006  0.9118800E+02  0.7816164E-02  0.1184000E+00
        -11   -1    0    0    0    0  0.00000000000E+00  0.00000000000E+00  0.45593999997E+02  0.45594000000E+02  0.51100000000E-03 0. -1.
         11   -1    0    0    0    0 -0.00000000000E+00 -0.00000000000E+00 -0.45593999997E+02  0.45594000000E+02  0.51100000000E-03 0.  1.
         23    2    1    2    0    0  0.88817841970E-15 -0.88817841970E-15  0.00000000000E+00  0.91188000000E+02  0.91188000000E+02 0.  0.
    9900012    2    3    3    0    0  0.73494671170E+01  0.50926726976E+01  0.35718722649E+02  0.54367121007E+02  0.40000083959E+02 0.  0.
        -12    1    3    3    0    0 -0.73494671170E+01 -0.50926726976E+01 -0.35718722649E+02  0.36820878993E+02  0.00000000000E+00 0.  1.
         11    1    4    4    0    0  0.29422523690E+01 -0.10217251506E+02  0.15581904207E+02  0.18863849457E+02  0.51100000000E-03 0. -1.
        -11    1    4    4    0    0 -0.48108823020E+01  0.15264945344E+02  0.33499518855E+01  0.16351921073E+02  0.51100000000E-03 0.  1.
         12    1    4    4    0    0  0.92180970499E+01  0.44978859356E-01  0.16786866557E+02  0.19151350478E+02  0.00000000000E+00 0. -1.
</event>
<event>
 8    1  0.2472977E-006  0.9118800E+02  0.7816164E-02  0.1184000E+00
        -11   -1    0    0    0    0  0.00000000000E+00  0.00000000000E+00  0.45593999997E+02  0.45594000000E+02  0.51100000000E-03 0. -1.
         11   -1    0    0    0    0 -0.00000000000E+00 -0.00000000000E+00 -0.45593999997E+02  0.45594000000E+02  0.51100000000E-03 0.  1.
         23    2    1    2    0    0  0.00000000000E+00 -0.88817841970E-15  0.00000000000E+00  0.91188000000E+02  0.91188000000E+02 0.  0.
    9900012    2    3    3    0    0  0.31878217336E+02 -0.37586150086E+01  0.18039725516E+02  0.54367087138E+02  0.40000006749E+02 0.  0.
        -12    1    3    3    0    0 -0.31878217336E+02  0.37586150086E+01 -0.18039725516E+02  0.36820912862E+02  0.00000000000E+00 0.  1.
         11    1    4    4    0    0  0.21154473497E+02  0.53616546239E+01  0.10989148707E+02  0.24434002513E+02  0.51100000000E-03 0. -1.
        -11    1    4    4    0    0  0.64286894302E+00 -0.13681561764E+02  0.11620198940E+02  0.17961832770E+02  0.51100000000E-03 0.  1.
        -12    1    4    4    0    0  0.10080874895E+02  0.45612921317E+01 -0.45696221308E+01  0.11971251855E+02  0.00000000000E+00 0.  1.
</event>
<event>
 8    1  0.2472977E-006  0.9118800E+02  0.7816164E-02  0.1184000E+00
        -11   -1    0    0    0    0  0.00000000000E+00  0.00000000000E+00  0.45593999997E+02  0.45594000000E+02  0.51100000000E-03 0.  1.
         11   -1    0    0    0    0 -0.00000000000E+00 -0.00000000000E+00 -0.45593999997E+02  0.45594000000E+02  0.51100000000E-03 0. -1.
         23    2    1    2    0    0  0.00000000000E+00  0.88817841970E-15  0.35527136788E-14  0.91188000000E+02  0.91188000000E+02 0.  0.
    9900012    2    3    3    0    0  0.28121271306E+02 -0.40595446713E+01  0.23420012939E+02  0.54367043890E+02  0.39999908156E+02 0.  0.
         12    1    3    3    0    0 -0.28121271306E+02  0.40595446713E+01 -0.23420012939E+02  0.36820956110E+02  0.00000000000E+00 0. -1.
         11    1    4    4    0    0  0.20579659613E+02 -0.13271651034E+02  0.18353845376E+02  0.30602659219E+02  0.51100000000E-03 0. -1.
        -11    1    4    4    0    0  0.11882194471E+02  0.70184393525E+01 -0.32067150482E+01  0.14167852979E+02  0.51100000000E-03 0.  1.
         12    1    4    4    0    0 -0.43405827778E+01  0.21936670106E+01  0.82728826115E+01  0.95965316916E+01  0.00000000000E+00 0. -1.
</event>
<event>
 8    1  0.2472977E-006  0.9118800E+02  0.7816164E-02  0.1184000E+00
        -11   -1    0    0    0    0  0.00000000000E+00  0.00000000000E+00  0.45593999997E+02  0.45594000000E+02  0.51100000000E-03 0.  1.
         11   -1    0    0    0    0 -0.00000000000E+00 -0.00000000000E+00 -0.45593999997E+02  0.45594000000E+02  0.51100000000E-03 0. -1.
         23    2    1    2    0    0  0.00000000000E+00  0.00000000000E+00 -0.17763568394E-14  0.91188000000E+02  0.91188000000E+02 0.  0.
    9900012    2    3    3    0    0  0.16642991845E+02  0.31061497023E+02  0.10675831872E+02  0.54367093425E+02  0.40000021081E+02 0.  0.
         12    1    3    3    0    0 -0.16642991845E+02 -0.31061497023E+02 -0.10675831872E+02  0.36820906575E+02  0.00000000000E+00 0. -1.
         11    1    4    4    0    0  0.17246116655E+02 -0.25360126527E+00  0.63073029870E-01  0.17248096468E+02  0.51100000000E-03 0. -1.
        -11    1    4    4    0    0 -0.86227286868E+01  0.19007853454E+02  0.58472856200E+01  0.21675808919E+02  0.51100000000E-03 0.  1.
        -12    1    4    4    0    0  0.80196038767E+01  0.12307244834E+02  0.47654732224E+01  0.15443188038E+02  0.00000000000E+00 0.  1.
</event>
<event>
 8    1  0.2472977E-006  0.9118800E+02  0.7816164E-02  0.1184000E+00
        -11   -1    0    0    0    0  0.00000000000E+00  0.00000000000E+00  0.45593999997E+02  0.45594000000E+02  0.51100000000E-03 0.  1.
         11   -1    0    0    0    0 -0.00000000000E+00 -0.00000000000E+00 -0.45593999997E+02  0.45594000000E+02  0.51100000000E-03 0. -1.
         23    2    1    2    0    0  0.00000000000E+00  0.71054273576E-14  0.00000000000E+00  0.91188000000E+02  0.91188000000E+02 0.  0.
    9900012    2    3    3    0    0 -0.30206805866E+02  0.19432258064E+02  0.81060050172E+01  0.54367203004E+02  0.40000270887E+02 0.  0.
         12    1    3    3    0    0  0.30206805866E+02 -0.19432258064E+02 -0.81060050172E+01  0.36820796996E+02  0.00000000000E+00 0. -1.
         11    1    4    4    0    0 -0.74092476869E+01 -0.34647277281E+01  0.10087136007E+01  0.82412858769E+01  0.51100000000E-03 0. -1.
        -11    1    4    4    0    0 -0.10096120668E+02 -0.25011474441E+01  0.13474087084E+02  0.17021704206E+02  0.51100000000E-03 0.  1.
         12    1    4    4    0    0 -0.12701437512E+02  0.25398133236E+02 -0.63767956675E+01  0.29104212921E+02  0.00000000000E+00 0. -1.
</event>
<event>
 8    1  0.2472977E-006  0.9118800E+02  0.7816164E-02  0.1184000E+00
        -11   -1    0    0    0    0  0.00000000000E+00  0.00000000000E+00  0.45593999997E+02  0.45594000000E+02  0.51100000000E-03 0. -1.
         11   -1    0    0    0    0 -0.00000000000E+00 -0.00000000000E+00 -0.45593999997E+02  0.45594000000E+02  0.51100000000E-03 0.  1.
         23    2    1    2    0    0  0.00000000000E+00  0.00000000000E+00  0.35527136788E-14  0.91188000000E+02  0.91188000000E+02 0.  0.
    9900012    2    3    3    0    0  0.14136039743E+02  0.22403091013E+02 -0.25574472439E+02  0.54367085467E+02  0.40000002938E+02 0.  0.
        -12    1    3    3    0    0 -0.14136039743E+02 -0.22403091013E+02  0.25574472439E+02  0.36820914533E+02  0.00000000000E+00 0.  1.
         11    1    4    4    0    0  0.96454147201E+01  0.13140620824E+01 -0.12276171512E+02  0.15667328156E+02  0.51100000000E-03 0. -1.
        -11    1    4    4    0    0  0.12356912175E+02  0.12894558363E+02  0.37161050061E+01  0.18242048968E+02  0.51100000000E-03 0.  1.
        -12    1    4    4    0    0 -0.78662871512E+01  0.81944705675E+01 -0.17014405932E+02  0.20457708343E+02  0.00000000000E+00 0.  1.
</event>
<event>
 8    1  0.2472977E-006  0.9118800E+02  0.7816164E-02  0.1184000E+00
        -11   -1    0    0    0    0  0.00000000000E+00  0.00000000000E+00  0.45593999997E+02  0.45594000000E+02  0.51100000000E-03 0. -1.
         11   -1    0    0    0    0 -0.00000000000E+00 -0.00000000000E+00 -0.45593999997E+02  0.45594000000E+02  0.51100000000E-03 0.  1.
         23    2    1    2    0    0  0.35527136788E-14  0.35527136788E-14  0.17763568394E-14  0.91188000000E+02  0.91188000000E+02 0.  0.
    9900012    2    3    3    0    0 -0.24030987742E+02 -0.24421467689E+02 -0.13486399633E+02  0.54367089758E+02  0.40000012722E+02 0.  0.
         12    1    3    3    0    0  0.24030987742E+02  0.24421467689E+02  0.13486399633E+02  0.36820910242E+02  0.00000000000E+00 0. -1.
         11    1    4    4    0    0  0.70695118768E+01 -0.64741614342E+01 -0.87816666213E+01  0.13000401277E+02  0.51100000000E-03 0. -1.
        -11    1    4    4    0    0 -0.29529144718E+02 -0.90918270553E+01  0.64165368318E+00  0.30903776900E+02  0.51100000000E-03 0.  1.
        -12    1    4    4    0    0 -0.15713549015E+01 -0.88554791996E+01 -0.53463866947E+01  0.10462911582E+02  0.00000000000E+00 0.  1.
</event>
<event>
 8    1  0.2472977E-006  0.9118800E+02  0.7816164E-02  0.1184000E+00
        -11   -1    0    0    0    0  0.00000000000E+00  0.00000000000E+00  0.45593999997E+02  0.45594000000E+02  0.51100000000E-03 0.  1.
         11   -1    0    0    0    0 -0.00000000000E+00 -0.00000000000E+00 -0.45593999997E+02  0.45594000000E+02  0.51100000000E-03 0. -1.
         23    2    1    2    0    0  0.00000000000E+00  0.00000000000E+00  0.00000000000E+00  0.91188000000E+02  0.91188000000E+02 0.  0.
    9900012    2    3    3    0    0 -0.30405616784E+02  0.18688910765E+02  0.90555395630E+01  0.54367085910E+02  0.40000003949E+02 0.  0.
         12    1    3    3    0    0  0.30405616784E+02 -0.18688910765E+02 -0.90555395630E+01  0.36820914090E+02  0.00000000000E+00 0. -1.
         11    1    4    4    0    0  0.77962717768E+01  0.77923541748E+01 -0.30926040989E+01  0.11448442583E+02  0.51100000000E-03 0. -1.
        -11    1    4    4    0    0 -0.77751639964E+01  0.16215773059E+01 -0.18670362676E+01  0.81589529240E+01  0.51100000000E-03 0.  1.
         12    1    4    4    0    0 -0.30426724565E+02  0.92749792849E+01  0.14015179929E+02  0.34759690403E+02  0.00000000000E+00 0. -1.
</event>
<event>
 8    1  0.2472977E-006  0.9118800E+02  0.7816164E-02  0.1184000E+00
        -11   -1    0    0    0    0  0.00000000000E+00  0.00000000000E+00  0.45593999997E+02  0.45594000000E+02  0.51100000000E-03 0. -1.
         11   -1    0    0    0    0 -0.00000000000E+00 -0.00000000000E+00 -0.45593999997E+02  0.45594000000E+02  0.51100000000E-03 0.  1.
         23    2    1    2    0    0 -0.35527136788E-14  0.00000000000E+00  0.17763568394E-14  0.91188000000E+02  0.91188000000E+02 0.  0.
    9900012    2    3    3    0    0 -0.29395677976E+02 -0.17888125549E+02  0.13103002383E+02  0.54367087589E+02  0.40000007778E+02 0.  0.
        -12    1    3    3    0    0  0.29395677976E+02  0.17888125549E+02 -0.13103002383E+02  0.36820912411E+02  0.00000000000E+00 0.  1.
         11    1    4    4    0    0 -0.14029184225E+02 -0.20933249296E+02  0.19468696961E+02  0.31844137572E+02  0.51100000000E-03 0. -1.
        -11    1    4    4    0    0  0.21187323668E+01  0.33174744314E+01 -0.70303980680E-01  0.39369539438E+01  0.51100000000E-03 0.  1.
         12    1    4    4    0    0 -0.17485226117E+02 -0.27235068475E+00 -0.62953905976E+01  0.18585996074E+02  0.00000000000E+00 0. -1.
</event>
<event>
 8    1  0.2472977E-006  0.9118800E+02  0.7816164E-02  0.1184000E+00
        -11   -1    0    0    0    0  0.00000000000E+00  0.00000000000E+00  0.45593999997E+02  0.45594000000E+02  0.51100000000E-03 0.  1.
         11   -1    0    0    0    0 -0.00000000000E+00 -0.00000000000E+00 -0.45593999997E+02  0.45594000000E+02  0.51100000000E-03 0. -1.
         23    2    1    2    0    0  0.00000000000E+00  0.00000000000E+00  0.35527136788E-14  0.91188000000E+02  0.91188000000E+02 0.  0.
    9900012    2    3    3    0    0  0.18530381084E+02 -0.99999226231E+01  0.30206065994E+02  0.54367083412E+02  0.39999998254E+02 0.  0.
         12    1    3    3    0    0 -0.18530381084E+02  0.99999226231E+01 -0.30206065994E+02  0.36820916588E+02  0.00000000000E+00 0. -1.
         11    1    4    4    0    0  0.45460837664E+01 -0.13860218485E+02  0.27234207727E+02  0.30894572417E+02  0.51100000000E-03 0. -1.
        -11    1    4    4    0    0  0.13322211697E+02  0.89441932213E+01  0.64319961910E+01  0.17287292794E+02  0.51100000000E-03 0.  1.
         12    1    4    4    0    0  0.66208562016E+00 -0.50838973597E+01 -0.34601379243E+01  0.61852182005E+01  0.00000000000E+00 0. -1.
</event>
<event>
 8    1  0.2472977E-006  0.9118800E+02  0.7816164E-02  0.1184000E+00
        -11   -1    0    0    0    0  0.00000000000E+00  0.00000000000E+00  0.45593999997E+02  0.45594000000E+02  0.51100000000E-03 0.  1.
         11   -1    0    0    0    0 -0.00000000000E+00 -0.00000000000E+00 -0.45593999997E+02  0.45594000000E+02  0.51100000000E-03 0. -1.
         23    2    1    2    0    0 -0.88817841970E-15  0.00000000000E+00  0.00000000000E+00  0.91188000000E+02  0.91188000000E+02 0.  0.
    9900012    2    3    3    0    0  0.54866196323E+01 -0.34893887183E+02 -0.10396779769E+02  0.54367090352E+02  0.40000014076E+02 0.  0.
        -12    1    3    3    0    0 -0.54866196323E+01  0.34893887183E+02  0.10396779769E+02  0.36820909648E+02  0.00000000000E+00 0.  1.
         11    1    4    4    0    0 -0.10730132465E+01 -0.16288280202E+02 -0.75810407723E+01  0.17998100145E+02  0.51100000000E-03 0. -1.
        -11    1    4    4    0    0 -0.61162870189E+01 -0.85277272626E+01 -0.13401976765E+02  0.17021870656E+02  0.51100000000E-03 0.  1.
        -12    1    4    4    0    0  0.12675919898E+02 -0.10077879718E+02  0.10586237768E+02  0.19347119552E+02  0.00000000000E+00 0.  1.
</event>
<event>
 8    1  0.2472977E-006  0.9118800E+02  0.7816164E-02  0.1184000E+00
        -11   -1    0    0    0    0  0.00000000000E+00  0.00000000000E+00  0.45593999997E+02  0.45594000000E+02  0.51100000000E-03 0. -1.
         11   -1    0    0    0    0 -0.00000000000E+00 -0.00000000000E+00 -0.45593999997E+02  0.45594000000E+02  0.51100000000E-03 0.  1.
         23    2    1    2    0    0  0.00000000000E+00  0.00000000000E+00  0.00000000000E+00  0.91188000000E+02  0.91188000000E+02 0.  0.
    9900012    2    3    3    0    0  0.32514613025E+02  0.11159054720E+02 -0.13192966448E+02  0.54367096615E+02  0.40000028352E+02 0.  0.
         12    1    3    3    0    0 -0.32514613025E+02 -0.11159054720E+02  0.13192966448E+02  0.36820903385E+02  0.00000000000E+00 0. -1.
         11    1    4    4    0    0  0.22377290462E+02  0.46473371350E+01  0.72796311339E+01  0.23986118914E+02  0.51100000000E-03 0. -1.
        -11    1    4    4    0    0  0.61026005775E+01  0.87378469798E+01 -0.13880118016E+01  0.10747943090E+02  0.51100000000E-03 0.  1.
        -12    1    4    4    0    0  0.40347219855E+01 -0.22261293945E+01 -0.19084585780E+02  0.19633034610E+02  0.00000000000E+00 0.  1.
</event>
<event>
 8    1  0.2472977E-006  0.9118800E+02  0.7816164E-02  0.1184000E+00
        -11   -1    0    0    0    0  0.00000000000E+00  0.00000000000E+00  0.45593999997E+02  0.45594000000E+02  0.51100000000E-03 0. -1.
         11   -1    0    0    0    0 -0.00000000000E+00 -0.00000000000E+00 -0.45593999997E+02  0.45594000000E+02  0.51100000000E-03 0.  1.
         23    2    1    2    0    0 -0.35527136788E-14 -0.17763568394E-14 -0.35527136788E-14  0.91188000000E+02  0.91188000000E+02 0.  0.
    9900012    2    3    3    0    0  0.29299736850E+02 -0.58644651935E+01  0.21515411797E+02  0.54367089143E+02  0.40000011320E+02 0.  0.
        -12    1    3    3    0    0 -0.29299736850E+02  0.58644651935E+01 -0.21515411797E+02  0.36820910857E+02  0.00000000000E+00 0.  1.
         11    1    4    4    0    0  0.20746486347E+02  0.45054627883E+01  0.13780362117E+02  0.25310358967E+02  0.51100000000E-03 0. -1.
        -11    1    4    4    0    0 -0.50539475398E+01  0.14580953555E+01 -0.47815291109E+01  0.71085475802E+01  0.51100000000E-03 0.  1.
         12    1    4    4    0    0  0.13607198043E+02 -0.11828023337E+02  0.12516578791E+02  0.21948182596E+02  0.00000000000E+00 0. -1.
</event>
<event>
 8    1  0.2472977E-006  0.9118800E+02  0.7816164E-02  0.1184000E+00
        -11   -1    0    0    0    0  0.00000000000E+00  0.00000000000E+00  0.45593999997E+02  0.45594000000E+02  0.51100000000E-03 0.  1.
         11   -1    0    0    0    0 -0.00000000000E+00 -0.00000000000E+00 -0.45593999997E+02  0.45594000000E+02  0.51100000000E-03 0. -1.
         23    2    1    2    0    0  0.00000000000E+00  0.00000000000E+00  0.00000000000E+00  0.91188000000E+02  0.91188000000E+02 0.  0.
    9900012    2    3    3    0    0 -0.18332275523E+02 -0.26808816692E+02  0.17349146353E+02  0.54367111127E+02  0.40000061435E+02 0.  0.
         12    1    3    3    0    0  0.18332275523E+02  0.26808816692E+02 -0.17349146353E+02  0.36820888873E+02  0.00000000000E+00 0. -1.
         11    1    4    4    0    0 -0.40519209248E+01  0.39658192151E+01 -0.44441698668E+01  0.72039177739E+01  0.51100000000E-03 0. -1.
        -11    1    4    4    0    0  0.58233479889E+00 -0.17343436947E+02 -0.27938977647E+00  0.17355459598E+02  0.51100000000E-03 0.  1.
         12    1    4    4    0    0 -0.14862689397E+02 -0.13431198960E+02  0.22072705996E+02  0.29807733755E+02  0.00000000000E+00 0. -1.
</event>
<event>
 8    1  0.2472977E-006  0.9118800E+02  0.7816164E-02  0.1184000E+00
        -11   -1    0    0    0    0  0.00000000000E+00  0.00000000000E+00  0.45593999997E+02  0.45594000000E+02  0.51100000000E-03 0.  1.
         11   -1    0    0    0    0 -0.00000000000E+00 -0.00000000000E+00 -0.45593999997E+02  0.45594000000E+02  0.51100000000E-03 0. -1.
         23    2    1    2    0    0  0.00000000000E+00  0.17763568394E-14  0.17763568394E-14  0.91188000000E+02  0.91188000000E+02 0.  0.
    9900012    2    3    3    0    0  0.32425041365E+02  0.14414390530E+02 -0.98305869828E+01  0.54366832144E+02  0.39999425434E+02 0.  0.
         12    1    3    3    0    0 -0.32425041365E+02 -0.14414390530E+02  0.98305869828E+01  0.36821167856E+02  0.00000000000E+00 0. -1.
         11    1    4    4    0    0  0.42149118984E+01 -0.46764508504E+01 -0.51211964286E+01  0.81154992445E+01  0.51100000000E-03 0. -1.
        -11    1    4    4    0    0  0.66161156149E+01 -0.85198763177E+01 -0.28134331276E+01  0.11147945305E+02  0.51100000000E-03 0.  1.
        -12    1    4    4    0    0  0.21594013852E+02  0.27610717698E+02 -0.18959574266E+01  0.35103387594E+02  0.00000000000E+00 0.  1.
</event>
<event>
 8    1  0.2472977E-006  0.9118800E+02  0.7816164E-02  0.1184000E+00
        -11   -1    0    0    0    0  0.00000000000E+00  0.00000000000E+00  0.45593999997E+02  0.45594000000E+02  0.51100000000E-03 0. -1.
         11   -1    0    0    0    0 -0.00000000000E+00 -0.00000000000E+00 -0.45593999997E+02  0.45594000000E+02  0.51100000000E-03 0.  1.
         23    2    1    2    0    0  0.00000000000E+00  0.00000000000E+00 -0.35527136788E-14  0.91188000000E+02  0.91188000000E+02 0.  0.
    9900012    2    3    3    0    0 -0.28691407305E+02 -0.88883732762E+01  0.21297415765E+02  0.54367082699E+02  0.39999996629E+02 0.  0.
        -12    1    3    3    0    0  0.28691407305E+02  0.88883732762E+01 -0.21297415765E+02  0.36820917301E+02  0.00000000000E+00 0.  1.
         11    1    4    4    0    0  0.53892291527E+01  0.88266467112E+00  0.41009492208E+01  0.68293976714E+01  0.51100000000E-03 0. -1.
        -11    1    4    4    0    0 -0.10642279052E+02 -0.16724682821E+02  0.66174896153E+01  0.20898906381E+02  0.51100000000E-03 0.  1.
         12    1    4    4    0    0 -0.23438357406E+02  0.69536448734E+01  0.10578976929E+02  0.26638778646E+02  0.00000000000E+00 0. -1.
</event>
<event>
 8    1  0.2472977E-006  0.9118800E+02  0.7816164E-02  0.1184000E+00
        -11   -1    0    0    0    0  0.00000000000E+00  0.00000000000E+00  0.45593999997E+02  0.45594000000E+02  0.51100000000E-03 0. -1.
         11   -1    0    0    0    0 -0.00000000000E+00 -0.00000000000E+00 -0.45593999997E+02  0.45594000000E+02  0.51100000000E-03 0.  1.
         23    2    1    2    0    0  0.00000000000E+00  0.00000000000E+00 -0.35527136788E-14  0.91188000000E+02  0.91188000000E+02 0.  0.
    9900012    2    3    3    0    0  0.24770595129E+02  0.58303789640E+01  0.26612095955E+02  0.54367090818E+02  0.40000015137E+02 0.  0.
        -12    1    3    3    0    0 -0.24770595129E+02 -0.58303789640E+01 -0.26612095955E+02  0.36820909182E+02  0.00000000000E+00 0.  1.
         11    1    4    4    0    0 -0.11628254659E+01  0.15580079452E+02  0.12846410028E+02  0.20226746887E+02  0.51100000000E-03 0. -1.
        -11    1    4    4    0    0  0.20330643933E+02 -0.59445873005E+00  0.72993790535E+01  0.21609474744E+02  0.51100000000E-03 0.  1.
         12    1    4    4    0    0  0.56027766622E+01 -0.91552417577E+01  0.64663068738E+01  0.12530869186E+02  0.00000000000E+00 0. -1.
</event>
<event>
 8    1  0.2472977E-006  0.9118800E+02  0.7816164E-02  0.1184000E+00
        -11   -1    0    0    0    0  0.00000000000E+00  0.00000000000E+00  0.45593999997E+02  0.45594000000E+02  0.51100000000E-03 0. -1.
         11   -1    0    0    0    0 -0.00000000000E+00 -0.00000000000E+00 -0.45593999997E+02  0.45594000000E+02  0.51100000000E-03 0.  1.
         23    2    1    2    0    0  0.00000000000E+00 -0.35527136788E-14 -0.17763568394E-14  0.91188000000E+02  0.91188000000E+02 0.  0.
    9900012    2    3    3    0    0 -0.30366128043E+02 -0.13407402465E+02 -0.15934839638E+02  0.54367091707E+02  0.40000017165E+02 0.  0.
         12    1    3    3    0    0  0.30366128043E+02  0.13407402465E+02  0.15934839638E+02  0.36820908293E+02  0.00000000000E+00 0. -1.
         11    1    4    4    0    0  0.57272475544E+01  0.31018276198E+01 -0.19175511561E-01  0.65132992480E+01  0.51100000000E-03 0. -1.
        -11    1    4    4    0    0 -0.34700202136E+01  0.48099828610E+01 -0.37930818476E+01  0.70402020972E+01  0.51100000000E-03 0.  1.
        -12    1    4    4    0    0 -0.32623355384E+02 -0.21319212946E+02 -0.12122582279E+02  0.40813590362E+02  0.00000000000E+00 0.  1.
</event>
<event>
 8    1  0.2472977E-006  0.9118800E+02  0.7816164E-02  0.1184000E+00
        -11   -1    0    0    0    0  0.00000000000E+00  0.00000000000E+00  0.45593999997E+02  0.45594000000E+02  0.51100000000E-03 0.  1.
         11   -1    0    0    0    0 -0.00000000000E+00 -0.00000000000E+00 -0.45593999997E+02  0.45594000000E+02  0.51100000000E-03 0. -1.
         23    2    1    2    0    0  0.00000000000E+00  0.00000000000E+00 -0.35527136788E-14  0.91188000000E+02  0.91188000000E+02 0.  0.
    9900012    2    3    3    0    0 -0.24508570245E+02  0.19973705392E+02  0.18872167562E+02  0.54367114201E+02  0.40000068443E+02 0.  0.
         12    1    3    3    0    0  0.24508570245E+02 -0.19973705392E+02 -0.18872167562E+02  0.36820885799E+02  0.00000000000E+00 0. -1.
         11    1    4    4    0    0 -0.96392007079E+01 -0.42616176428E+01  0.10238646221E+02  0.14693721514E+02  0.51100000000E-03 0. -1.
        -11    1    4    4    0    0 -0.10335317858E+02  0.93571631211E+01  0.17021218996E+02  0.22002208827E+02  0.51100000000E-03 0.  1.
         12    1    4    4    0    0 -0.45340516794E+01  0.14878159914E+02 -0.83876976549E+01  0.17671183860E+02  0.00000000000E+00 0. -1.
</event>
<event>
 8    1  0.2472977E-006  0.9118800E+02  0.7816164E-02  0.1184000E+00
        -11   -1    0    0    0    0  0.00000000000E+00  0.00000000000E+00  0.45593999997E+02  0.45594000000E+02  0.51100000000E-03 0.  1.
         11   -1    0    0    0    0 -0.00000000000E+00 -0.00000000000E+00 -0.45593999997E+02  0.45594000000E+02  0.51100000000E-03 0. -1.
         23    2    1    2    0    0  0.00000000000E+00  0.17763568394E-14 -0.35527136788E-14  0.91188000000E+02  0.91188000000E+02 0.  0.
    9900012    2    3    3    0    0 -0.19026513681E+02 -0.61419735100E+01  0.30920026311E+02  0.54367080829E+02  0.39999992367E+02 0.  0.
         12    1    3    3    0    0  0.19026513681E+02  0.61419735100E+01 -0.30920026311E+02  0.36820919171E+02  0.00000000000E+00 0. -1.
         11    1    4    4    0    0 -0.59311411913E+01 -0.89207785482E+01  0.10461324400E+01  0.10763508679E+02  0.51100000000E-03 0. -1.
        -11    1    4    4    0    0 -0.15379428364E+02  0.83209667383E+01  0.52451974355E+01  0.18255886740E+02  0.51100000000E-03 0.  1.
         12    1    4    4    0    0  0.22840558735E+01 -0.55421617001E+01  0.24628696436E+02  0.25347685411E+02  0.00000000000E+00 0. -1.
</event>
<event>
 8    1  0.2472977E-006  0.9118800E+02  0.7816164E-02  0.1184000E+00
        -11   -1    0    0    0    0  0.00000000000E+00  0.00000000000E+00  0.45593999997E+02  0.45594000000E+02  0.51100000000E-03 0.  1.
         11   -1    0    0    0    0 -0.00000000000E+00 -0.00000000000E+00 -0.45593999997E+02  0.45594000000E+02  0.51100000000E-03 0. -1.
         23    2    1    2    0    0  0.88817841970E-15  0.00000000000E+00 -0.71054273576E-14  0.91188000000E+02  0.91188000000E+02 0.  0.
    9900012    2    3    3    0    0 -0.48893052472E+01 -0.21790992316E+02  0.29275158748E+02  0.54366979215E+02  0.39999760716E+02 0.  0.
         12    1    3    3    0    0  0.48893052472E+01  0.21790992316E+02 -0.29275158748E+02  0.36821020785E+02  0.00000000000E+00 0. -1.
         11    1    4    4    0    0 -0.61930153312E+01  0.21306466694E+01  0.75644791790E+01  0.10005720346E+02  0.51100000000E-03 0. -1.
        -11    1    4    4    0    0 -0.12936417062E+02 -0.11891787484E+02  0.27749951744E+01  0.17789493935E+02  0.51100000000E-03 0.  1.
         12    1    4    4    0    0  0.14240127146E+02 -0.12029851501E+02  0.18935684394E+02  0.26571764935E+02  0.00000000000E+00 0. -1.
</event>
<event>
 8    1  0.2472977E-006  0.9118800E+02  0.7816164E-02  0.1184000E+00
        -11   -1    0    0    0    0  0.00000000000E+00  0.00000000000E+00  0.45593999997E+02  0.45594000000E+02  0.51100000000E-03 0.  1.
         11   -1    0    0    0    0 -0.00000000000E+00 -0.00000000000E+00 -0.45593999997E+02  0.45594000000E+02  0.51100000000E-03 0. -1.
         23    2    1    2    0    0  0.00000000000E+00 -0.17763568394E-14 -0.35527136788E-14  0.91188000000E+02  0.91188000000E+02 0.  0.
    9900012    2    3    3    0    0 -0.19790101703E+02  0.64987313421E+01  0.30362659349E+02  0.54367180927E+02  0.40000220558E+02 0.  0.
         12    1    3    3    0    0  0.19790101703E+02 -0.64987313421E+01 -0.30362659349E+02  0.36820819073E+02  0.00000000000E+00 0. -1.
         11    1    4    4    0    0 -0.18328270399E+02 -0.96495188297E+01  0.51879137107E+01  0.21353059696E+02  0.51100000000E-03 0. -1.
        -11    1    4    4    0    0 -0.21675029543E+01  0.17245880406E+02  0.15614300892E+02  0.23365034831E+02  0.51100000000E-03 0.  1.
         12    1    4    4    0    0  0.70567164999E+00 -0.10976302340E+01  0.95604447459E+01  0.96490863996E+01  0.00000000000E+00 0. -1.
</event>
<event>
 8    1  0.2472977E-006  0.9118800E+02  0.7816164E-02  0.1184000E+00
        -11   -1    0    0    0    0  0.00000000000E+00  0.00000000000E+00  0.45593999997E+02  0.45594000000E+02  0.51100000000E-03 0.  1.
         11   -1    0    0    0    0 -0.00000000000E+00 -0.00000000000E+00 -0.45593999997E+02  0.45594000000E+02  0.51100000000E-03 0. -1.
         23    2    1    2    0    0  0.00000000000E+00  0.88817841970E-15  0.00000000000E+00  0.91188000000E+02  0.91188000000E+02 0.  0.
    9900012    2    3    3    0    0 -0.95469038546E+01 -0.44208735090E+01  0.35285861641E+02  0.54367088448E+02  0.40000009735E+02 0.  0.
         12    1    3    3    0    0  0.95469038546E+01  0.44208735090E+01 -0.35285861641E+02  0.36820911552E+02  0.00000000000E+00 0. -1.
         11    1    4    4    0    0  0.10441942572E+02  0.56529371293E+01  0.10480767835E+02  0.15837814166E+02  0.51100000000E-03 0.  1.
        -11    1    4    4    0    0  0.96836785537E+00 -0.83636014584E+01  0.62444552265E+01  0.10482403684E+02  0.51100000000E-03 0. -1.
        -12    1    4    4    0    0 -0.20957214282E+02 -0.17102091799E+01  0.18560638579E+02  0.28046870598E+02  0.00000000000E+00 0.  1.
</event>
<event>
 8    1  0.2472977E-006  0.9118800E+02  0.7816164E-02  0.1184000E+00
        -11   -1    0    0    0    0  0.00000000000E+00  0.00000000000E+00  0.45593999997E+02  0.45594000000E+02  0.51100000000E-03 0.  1.
         11   -1    0    0    0    0 -0.00000000000E+00 -0.00000000000E+00 -0.45593999997E+02  0.45594000000E+02  0.51100000000E-03 0. -1.
         23    2    1    2    0    0  0.00000000000E+00  0.35527136788E-14  0.26645352591E-14  0.91188000000E+02  0.91188000000E+02 0.  0.
    9900012    2    3    3    0    0 -0.20612135037E+02 -0.30304875885E+02  0.35403696957E+01  0.54367084330E+02  0.40000000348E+02 0.  0.
         12    1    3    3    0    0  0.20612135037E+02  0.30304875885E+02 -0.35403696957E+01  0.36820915670E+02  0.00000000000E+00 0. -1.
         11    1    4    4    0    0 -0.15430132215E+02 -0.54526893329E+01 -0.13357468761E+02  0.21124459120E+02  0.51100000000E-03 0. -1.
        -11    1    4    4    0    0 -0.48604406498E+01 -0.26498463378E+02  0.16104867533E+02  0.31387245868E+02  0.51100000000E-03 0.  1.
         12    1    4    4    0    0 -0.32156217189E+00  0.16462768256E+01  0.79297092404E+00  0.18553793422E+01  0.00000000000E+00 0. -1.
</event>
<event>
 8    1  0.2472977E-006  0.9118800E+02  0.7816164E-02  0.1184000E+00
        -11   -1    0    0    0    0  0.00000000000E+00  0.00000000000E+00  0.45593999997E+02  0.45594000000E+02  0.51100000000E-03 0.  1.
         11   -1    0    0    0    0 -0.00000000000E+00 -0.00000000000E+00 -0.45593999997E+02  0.45594000000E+02  0.51100000000E-03 0. -1.
         23    2    1    2    0    0  0.00000000000E+00 -0.31086244690E-14  0.88817841970E-15  0.91188000000E+02  0.91188000000E+02 0.  0.
    9900012    2    3    3    0    0  0.36419964578E+02  0.17319732255E+01  0.51349188816E+01  0.54367069227E+02  0.39999965916E+02 0.  0.
         12    1    3    3    0    0 -0.36419964578E+02 -0.17319732255E+01 -0.51349188816E+01  0.36820930773E+02  0.00000000000E+00 0. -1.
         11    1    4    4    0    0  0.14354067545E+02 -0.85646700589E+01  0.90683823380E+01  0.19016529305E+02  0.51100000000E-03 0. -1.
        -11    1    4    4    0    0  0.58933878590E+01  0.80135169989E+01  0.98351243368E+01  0.13988500496E+02  0.51100000000E-03 0.  1.
         12    1    4    4    0    0  0.16172509174E+02  0.22831262854E+01 -0.13768587793E+02  0.21362039426E+02  0.00000000000E+00 0. -1.
</event>
<event>
 8    1  0.2472977E-006  0.9118800E+02  0.7816164E-02  0.1184000E+00
        -11   -1    0    0    0    0  0.00000000000E+00  0.00000000000E+00  0.45593999997E+02  0.45594000000E+02  0.51100000000E-03 0.  1.
         11   -1    0    0    0    0 -0.00000000000E+00 -0.00000000000E+00 -0.45593999997E+02  0.45594000000E+02  0.51100000000E-03 0. -1.
         23    2    1    2    0    0  0.00000000000E+00  0.17763568394E-14 -0.35527136788E-14  0.91188000000E+02  0.91188000000E+02 0.  0.
    9900012    2    3    3    0    0 -0.13022996069E+02 -0.13914494571E+02 -0.31505029988E+02  0.54367102397E+02  0.40000041534E+02 0.  0.
        -12    1    3    3    0    0  0.13022996069E+02  0.13914494571E+02  0.31505029988E+02  0.36820897603E+02  0.00000000000E+00 0.  1.
         11    1    4    4    0    0 -0.86568039327E+00 -0.14993664622E+02 -0.16066216449E+02  0.21992787286E+02  0.51100000000E-03 0. -1.
        -11    1    4    4    0    0 -0.30754017757E+01  0.13611564992E+01 -0.21298529650E+02  0.21562425852E+02  0.51100000000E-03 0.  1.
        -12    1    4    4    0    0 -0.90819138996E+01 -0.28198644865E+00  0.58597161117E+01  0.10811889259E+02  0.00000000000E+00 0.  1.
</event>
<event>
 8    1  0.2472977E-006  0.9118800E+02  0.7816164E-02  0.1184000E+00
        -11   -1    0    0    0    0  0.00000000000E+00  0.00000000000E+00  0.45593999997E+02  0.45594000000E+02  0.51100000000E-03 0. -1.
         11   -1    0    0    0    0 -0.00000000000E+00 -0.00000000000E+00 -0.45593999997E+02  0.45594000000E+02  0.51100000000E-03 0.  1.
         23    2    1    2    0    0  0.35527136788E-14  0.00000000000E+00  0.00000000000E+00  0.91188000000E+02  0.91188000000E+02 0.  0.
    9900012    2    3    3    0    0 -0.28409793392E+02 -0.20694647919E+02 -0.10972394373E+02  0.54367105777E+02  0.40000049241E+02 0.  0.
         12    1    3    3    0    0  0.28409793392E+02  0.20694647919E+02  0.10972394373E+02  0.36820894223E+02  0.00000000000E+00 0. -1.
         11    1    4    4    0    0 -0.16938360773E+02 -0.33099545216E+01  0.11153784271E+02  0.20549227928E+02  0.51100000000E-03 0. -1.
        -11    1    4    4    0    0 -0.48102604270E+01  0.18993305177E+01 -0.46105658484E+01  0.69284471200E+01  0.51100000000E-03 0.  1.
         12    1    4    4    0    0 -0.66611721921E+01 -0.19284023915E+02 -0.17515612796E+02  0.26889430729E+02  0.00000000000E+00 0. -1.
</event>
<event>
 8    1  0.2472977E-006  0.9118800E+02  0.7816164E-02  0.1184000E+00
        -11   -1    0    0    0    0  0.00000000000E+00  0.00000000000E+00  0.45593999997E+02  0.45594000000E+02  0.51100000000E-03 0. -1.
         11   -1    0    0    0    0 -0.00000000000E+00 -0.00000000000E+00 -0.45593999997E+02  0.45594000000E+02  0.51100000000E-03 0.  1.
         23    2    1    2    0    0 -0.35527136788E-14  0.17763568394E-14  0.35527136788E-14  0.91188000000E+02  0.91188000000E+02 0.  0.
    9900012    2    3    3    0    0 -0.18963366014E+02  0.15753222639E+02  0.27349695718E+02  0.54367093846E+02  0.40000022042E+02 0.  0.
        -12    1    3    3    0    0  0.18963366014E+02 -0.15753222639E+02 -0.27349695718E+02  0.36820906154E+02  0.00000000000E+00 0.  1.
         11    1    4    4    0    0 -0.13710896036E+02 -0.61181313088E-01  0.18925172026E+02  0.23369949716E+02  0.51100000000E-03 0. -1.
        -11    1    4    4    0    0 -0.21905909606E+01  0.16635966416E+01  0.14889199065E+02  0.15141152255E+02  0.51100000000E-03 0.  1.
        -12    1    4    4    0    0 -0.30618790178E+01  0.14150807311E+02 -0.64646753736E+01  0.15855991875E+02  0.00000000000E+00 0.  1.
</event>
<event>
 8    1  0.2472977E-006  0.9118800E+02  0.7816164E-02  0.1184000E+00
        -11   -1    0    0    0    0  0.00000000000E+00  0.00000000000E+00  0.45593999997E+02  0.45594000000E+02  0.51100000000E-03 0.  1.
         11   -1    0    0    0    0 -0.00000000000E+00 -0.00000000000E+00 -0.45593999997E+02  0.45594000000E+02  0.51100000000E-03 0. -1.
         23    2    1    2    0    0  0.17763568394E-14  0.35527136788E-14  0.00000000000E+00  0.91188000000E+02  0.91188000000E+02 0.  0.
    9900012    2    3    3    0    0  0.12900983682E+02 -0.18085360799E+02  0.29364329137E+02  0.54367089081E+02  0.40000011178E+02 0.  0.
         12    1    3    3    0    0 -0.12900983682E+02  0.18085360799E+02 -0.29364329137E+02  0.36820910919E+02  0.00000000000E+00 0. -1.
         11    1    4    4    0    0  0.20657009474E+02 -0.11393298871E+01  0.59770932198E+01  0.21534524759E+02  0.51100000000E-03 0. -1.
        -11    1    4    4    0    0 -0.63846877156E+01 -0.11228119452E+02  0.55630229557E+01  0.14063503416E+02  0.51100000000E-03 0.  1.
        -12    1    4    4    0    0 -0.13713380760E+01 -0.57179114597E+01  0.17824212962E+02  0.18769060906E+02  0.00000000000E+00 0.  1.
</event>
<event>
 8    1  0.2472977E-006  0.9118800E+02  0.7816164E-02  0.1184000E+00
        -11   -1    0    0    0    0  0.00000000000E+00  0.00000000000E+00  0.45593999997E+02  0.45594000000E+02  0.51100000000E-03 0.  1.
         11   -1    0    0    0    0 -0.00000000000E+00 -0.00000000000E+00 -0.45593999997E+02  0.45594000000E+02  0.51100000000E-03 0. -1.
         23    2    1    2    0    0 -0.35527136788E-14 -0.71054273576E-14  0.00000000000E+00  0.91188000000E+02  0.91188000000E+02 0.  0.
    9900012    2    3    3    0    0  0.16959599664E+02  0.32392705214E+02 -0.43433674400E+01  0.54367079146E+02  0.39999988529E+02 0.  0.
        -12    1    3    3    0    0 -0.16959599664E+02 -0.32392705214E+02  0.43433674400E+01  0.36820920854E+02  0.00000000000E+00 0.  1.
         11    1    4    4    0    0 -0.59092426567E+01  0.12816143014E+02 -0.80839379729E+01  0.16264154572E+02  0.51100000000E-03 0. -1.
        -11    1    4    4    0    0  0.84059723460E+01  0.74455970322E+01 -0.97738589968E+01  0.14887095291E+02  0.51100000000E-03 0.  1.
        -12    1    4    4    0    0  0.14462869974E+02  0.12130965167E+02  0.13514429530E+02  0.23215829283E+02  0.00000000000E+00 0.  1.
</event>
<event>
 8    1  0.2472977E-006  0.9118800E+02  0.7816164E-02  0.1184000E+00
        -11   -1    0    0    0    0  0.00000000000E+00  0.00000000000E+00  0.45593999997E+02  0.45594000000E+02  0.51100000000E-03 0. -1.
         11   -1    0    0    0    0 -0.00000000000E+00 -0.00000000000E+00 -0.45593999997E+02  0.45594000000E+02  0.51100000000E-03 0.  1.
         23    2    1    2    0    0  0.17763568394E-14 -0.35527136788E-14  0.35527136788E-14  0.91188000000E+02  0.91188000000E+02 0.  0.
    9900012    2    3    3    0    0 -0.13116394099E+02 -0.28544131073E+02  0.19208627622E+02  0.54367101206E+02  0.40000038819E+02 0.  0.
        -12    1    3    3    0    0  0.13116394099E+02  0.28544131073E+02 -0.19208627622E+02  0.36820898794E+02  0.00000000000E+00 0.  1.
         11    1    4    4    0    0 -0.52732222006E+01 -0.18205926905E+02  0.14864878923E+02  0.24087907184E+02  0.51100000000E-03 0. -1.
        -11    1    4    4    0    0  0.71259713753E+01 -0.44876418319E+01  0.10151827037E+02  0.13190071634E+02  0.51100000000E-03 0.  1.
         12    1    4    4    0    0 -0.14969143274E+02 -0.58505623358E+01 -0.58080783385E+01  0.17089122388E+02  0.00000000000E+00 0. -1.
</event>
<event>
 8    1  0.2472977E-006  0.9118800E+02  0.7816164E-02  0.1184000E+00
        -11   -1    0    0    0    0  0.00000000000E+00  0.00000000000E+00  0.45593999997E+02  0.45594000000E+02  0.51100000000E-03 0.  1.
         11   -1    0    0    0    0 -0.00000000000E+00 -0.00000000000E+00 -0.45593999997E+02  0.45594000000E+02  0.51100000000E-03 0. -1.
         23    2    1    2    0    0  0.00000000000E+00  0.00000000000E+00  0.00000000000E+00  0.91188000000E+02  0.91188000000E+02 0.  0.
    9900012    2    3    3    0    0 -0.22653402637E+02  0.25897524958E+02 -0.13111873278E+02  0.54367086502E+02  0.40000005298E+02 0.  0.
         12    1    3    3    0    0  0.22653402637E+02 -0.25897524958E+02  0.13111873278E+02  0.36820913498E+02  0.00000000000E+00 0. -1.
         11    1    4    4    0    0 -0.13168841563E+02  0.95258356633E+01 -0.76614491360E+01  0.17968242438E+02  0.51100000000E-03 0. -1.
        -11    1    4    4    0    0 -0.99928007616E+01  0.15831866773E+02  0.97991919220E+01  0.21131214711E+02  0.51100000000E-03 0.  1.
         12    1    4    4    0    0  0.50823968827E+00  0.53982252136E+00 -0.15249616064E+02  0.15267629352E+02  0.00000000000E+00 0. -1.
</event>
<event>
 8    1  0.2472977E-006  0.9118800E+02  0.7816164E-02  0.1184000E+00
        -11   -1    0    0    0    0  0.00000000000E+00  0.00000000000E+00  0.45593999997E+02  0.45594000000E+02  0.51100000000E-03 0.  1.
         11   -1    0    0    0    0 -0.00000000000E+00 -0.00000000000E+00 -0.45593999997E+02  0.45594000000E+02  0.51100000000E-03 0. -1.
         23    2    1    2    0    0  0.00000000000E+00  0.00000000000E+00  0.00000000000E+00  0.91188000000E+02  0.91188000000E+02 0.  0.
    9900012    2    3    3    0    0  0.51703713648E+01  0.45808933988E+01  0.36167177567E+02  0.54367054092E+02  0.39999931414E+02 0.  0.
         12    1    3    3    0    0 -0.51703713648E+01 -0.45808933988E+01 -0.36167177567E+02  0.36820945908E+02  0.00000000000E+00 0. -1.
         11    1    4    4    0    0 -0.33775148782E+01 -0.51970974340E+01  0.31126881881E+02  0.31737993075E+02  0.51100000000E-03 0. -1.
        -11    1    4    4    0    0  0.79204808475E+01  0.12064899908E+01  0.99157846357E+01  0.12748035933E+02  0.51100000000E-03 0.  1.
         12    1    4    4    0    0  0.62740539557E+00  0.85715008420E+01 -0.48754889502E+01  0.98810250844E+01  0.00000000000E+00 0. -1.
</event>
<event>
 8    1  0.2472977E-006  0.9118800E+02  0.7816164E-02  0.1184000E+00
        -11   -1    0    0    0    0  0.00000000000E+00  0.00000000000E+00  0.45593999997E+02  0.45594000000E+02  0.51100000000E-03 0.  1.
         11   -1    0    0    0    0 -0.00000000000E+00 -0.00000000000E+00 -0.45593999997E+02  0.45594000000E+02  0.51100000000E-03 0. -1.
         23    2    1    2    0    0 -0.17763568394E-14  0.00000000000E+00  0.00000000000E+00  0.91188000000E+02  0.91188000000E+02 0.  0.
    9900012    2    3    3    0    0  0.12689788853E+02 -0.99136872959E+01 -0.33112964560E+02  0.54367077159E+02  0.39999983999E+02 0.  0.
        -12    1    3    3    0    0 -0.12689788853E+02  0.99136872959E+01  0.33112964560E+02  0.36820922841E+02  0.00000000000E+00 0.  1.
         11    1    4    4    0    0 -0.61944245099E+01 -0.14806322559E+02 -0.27105362351E+02  0.31500773818E+02  0.51100000000E-03 0. -1.
        -11    1    4    4    0    0  0.94515498310E+01 -0.24730275874E+01 -0.46558443438E+01  0.10822409458E+02  0.51100000000E-03 0.  1.
         12    1    4    4    0    0  0.94326635316E+01  0.73656628506E+01 -0.13517578656E+01  0.12043893883E+02  0.00000000000E+00 0. -1.
</event>
<event>
 8    1  0.2472977E-006  0.9118800E+02  0.7816164E-02  0.1184000E+00
        -11   -1    0    0    0    0  0.00000000000E+00  0.00000000000E+00  0.45593999997E+02  0.45594000000E+02  0.51100000000E-03 0.  1.
         11   -1    0    0    0    0 -0.00000000000E+00 -0.00000000000E+00 -0.45593999997E+02  0.45594000000E+02  0.51100000000E-03 0. -1.
         23    2    1    2    0    0  0.00000000000E+00  0.00000000000E+00 -0.17763568394E-14  0.91188000000E+02  0.91188000000E+02 0.  0.
    9900012    2    3    3    0    0 -0.33594498953E+02 -0.10307425873E+02  0.10997561632E+02  0.54367085429E+02  0.40000002853E+02 0.  0.
         12    1    3    3    0    0  0.33594498953E+02  0.10307425873E+02 -0.10997561632E+02  0.36820914571E+02  0.00000000000E+00 0. -1.
         11    1    4    4    0    0 -0.96852101354E+01  0.39324397162E+01 -0.31701305400E+00  0.10457909687E+02  0.51100000000E-03 0.  1.
        -11    1    4    4    0    0 -0.31078675565E+02 -0.97911940262E+01  0.41644649720E+01  0.32849571141E+02  0.51100000000E-03 0. -1.
        -12    1    4    4    0    0  0.71693867482E+01 -0.44486715630E+01  0.71501097137E+01  0.11059604601E+02  0.00000000000E+00 0.  1.
</event>
<event>
 8    1  0.2472977E-006  0.9118800E+02  0.7816164E-02  0.1184000E+00
        -11   -1    0    0    0    0  0.00000000000E+00  0.00000000000E+00  0.45593999997E+02  0.45594000000E+02  0.51100000000E-03 0.  1.
         11   -1    0    0    0    0 -0.00000000000E+00 -0.00000000000E+00 -0.45593999997E+02  0.45594000000E+02  0.51100000000E-03 0. -1.
         23    2    1    2    0    0  0.00000000000E+00 -0.17763568394E-14  0.00000000000E+00  0.91188000000E+02  0.91188000000E+02 0.  0.
    9900012    2    3    3    0    0  0.17304639852E+02 -0.10051329968E+02 -0.30907930282E+02  0.54367082727E+02  0.39999996692E+02 0.  0.
        -12    1    3    3    0    0 -0.17304639852E+02  0.10051329968E+02  0.30907930282E+02  0.36820917273E+02  0.00000000000E+00 0.  1.
         11    1    4    4    0    0  0.36268715072E+01  0.53040647192E+01 -0.12385007396E+02  0.13952623693E+02  0.51100000000E-03 0. -1.
        -11    1    4    4    0    0  0.10956166768E+02  0.41495406784E+01 -0.17021138291E+02  0.20663383727E+02  0.51100000000E-03 0.  1.
        -12    1    4    4    0    0  0.27216015773E+01 -0.19504935366E+02 -0.15017845954E+01  0.19751075306E+02  0.00000000000E+00 0.  1.
</event>
<event>
 8    1  0.2472977E-006  0.9118800E+02  0.7816164E-02  0.1184000E+00
        -11   -1    0    0    0    0  0.00000000000E+00  0.00000000000E+00  0.45593999997E+02  0.45594000000E+02  0.51100000000E-03 0.  1.
         11   -1    0    0    0    0 -0.00000000000E+00 -0.00000000000E+00 -0.45593999997E+02  0.45594000000E+02  0.51100000000E-03 0. -1.
         23    2    1    2    0    0  0.17763568394E-14 -0.35527136788E-14  0.00000000000E+00  0.91188000000E+02  0.91188000000E+02 0.  0.
    9900012    2    3    3    0    0 -0.14451023948E+02 -0.17687667487E+02 -0.28880980713E+02  0.54366854971E+02  0.39999477475E+02 0.  0.
        -12    1    3    3    0    0  0.14451023948E+02  0.17687667487E+02  0.28880980713E+02  0.36821145029E+02  0.00000000000E+00 0.  1.
         11    1    4    4    0    0  0.23631854681E-01  0.59168629180E+01 -0.10014088833E+02  0.11631500362E+02  0.51100000000E-03 0. -1.
        -11    1    4    4    0    0 -0.25011537092E+01  0.54446932697E+01  0.17730301015E+00  0.59943215877E+01  0.51100000000E-03 0.  1.
         12    1    4    4    0    0 -0.11973502093E+02 -0.29049223674E+02 -0.19044194890E+02  0.36741033021E+02  0.00000000000E+00 0. -1.
</event>
<event>
 8    1  0.2472977E-006  0.9118800E+02  0.7816164E-02  0.1184000E+00
        -11   -1    0    0    0    0  0.00000000000E+00  0.00000000000E+00  0.45593999997E+02  0.45594000000E+02  0.51100000000E-03 0. -1.
         11   -1    0    0    0    0 -0.00000000000E+00 -0.00000000000E+00 -0.45593999997E+02  0.45594000000E+02  0.51100000000E-03 0.  1.
         23    2    1    2    0    0  0.00000000000E+00  0.00000000000E+00  0.00000000000E+00  0.91188000000E+02  0.91188000000E+02 0.  0.
    9900012    2    3    3    0    0 -0.25687957328E+02  0.17660404637E+02  0.19596397428E+02  0.54367084262E+02  0.40000000192E+02 0.  0.
        -12    1    3    3    0    0  0.25687957328E+02 -0.17660404637E+02 -0.19596397428E+02  0.36820915738E+02  0.00000000000E+00 0.  1.
         11    1    4    4    0    0 -0.52005066984E+01  0.20017631026E+02  0.14122750035E+02  0.25044019060E+02  0.51100000000E-03 0. -1.
        -11    1    4    4    0    0  0.11232609737E+01 -0.40144829624E+00 -0.50626366554E+01  0.52012658186E+01  0.51100000000E-03 0.  1.
         12    1    4    4    0    0 -0.21610711604E+02 -0.19557780931E+01  0.10536284048E+02  0.24121799384E+02  0.00000000000E+00 0. -1.
</event>
<event>
 8    1  0.2472977E-006  0.9118800E+02  0.7816164E-02  0.1184000E+00
        -11   -1    0    0    0    0  0.00000000000E+00  0.00000000000E+00  0.45593999997E+02  0.45594000000E+02  0.51100000000E-03 0. -1.
         11   -1    0    0    0    0 -0.00000000000E+00 -0.00000000000E+00 -0.45593999997E+02  0.45594000000E+02  0.51100000000E-03 0.  1.
         23    2    1    2    0    0  0.00000000000E+00  0.00000000000E+00  0.00000000000E+00  0.91188000000E+02  0.91188000000E+02 0.  0.
    9900012    2    3    3    0    0 -0.31305270074E+02 -0.16113662130E+02 -0.10775348167E+02  0.54367106885E+02  0.40000051766E+02 0.  0.
         12    1    3    3    0    0  0.31305270074E+02  0.16113662130E+02  0.10775348167E+02  0.36820893115E+02  0.00000000000E+00 0. -1.
         11    1    4    4    0    0 -0.20759012351E+02 -0.20787312488E+02  0.14942798107E+01  0.29415673147E+02  0.51100000000E-03 0. -1.
        -11    1    4    4    0    0 -0.97527205688E+01 -0.44504163520E+01 -0.11559748043E+02  0.15765453982E+02  0.51100000000E-03 0.  1.
         12    1    4    4    0    0 -0.79353715440E+00  0.91240667103E+01 -0.70987993530E+00  0.91859797557E+01  0.00000000000E+00 0. -1.
</event>
<event>
 8    1  0.2472977E-006  0.9118800E+02  0.7816164E-02  0.1184000E+00
        -11   -1    0    0    0    0  0.00000000000E+00  0.00000000000E+00  0.45593999997E+02  0.45594000000E+02  0.51100000000E-03 0. -1.
         11   -1    0    0    0    0 -0.00000000000E+00 -0.00000000000E+00 -0.45593999997E+02  0.45594000000E+02  0.51100000000E-03 0.  1.
         23    2    1    2    0    0  0.00000000000E+00  0.00000000000E+00  0.00000000000E+00  0.91188000000E+02  0.91188000000E+02 0.  0.
    9900012    2    3    3    0    0  0.20662432612E+02 -0.78956102690E+01 -0.29436431312E+02  0.54367078347E+02  0.39999986708E+02 0.  0.
         12    1    3    3    0    0 -0.20662432612E+02  0.78956102690E+01  0.29436431312E+02  0.36820921653E+02  0.00000000000E+00 0. -1.
         11    1    4    4    0    0  0.15500618409E+02  0.12077780871E+02 -0.96734946245E+01  0.21902476124E+02  0.51100000000E-03 0. -1.
        -11    1    4    4    0    0  0.94875251763E+01 -0.10020074114E+02 -0.15634744352E+02  0.20853303106E+02  0.51100000000E-03 0.  1.
         12    1    4    4    0    0 -0.43257109732E+01 -0.99533170254E+01 -0.41281923356E+01  0.11611299117E+02  0.00000000000E+00 0. -1.
</event>
<event>
 8    1  0.2472977E-006  0.9118800E+02  0.7816164E-02  0.1184000E+00
        -11   -1    0    0    0    0  0.00000000000E+00  0.00000000000E+00  0.45593999997E+02  0.45594000000E+02  0.51100000000E-03 0. -1.
         11   -1    0    0    0    0 -0.00000000000E+00 -0.00000000000E+00 -0.45593999997E+02  0.45594000000E+02  0.51100000000E-03 0.  1.
         23    2    1    2    0    0  0.00000000000E+00  0.88817841970E-15  0.00000000000E+00  0.91188000000E+02  0.91188000000E+02 0.  0.
    9900012    2    3    3    0    0 -0.11595182866E+02  0.61283831307E+01 -0.34406019514E+02  0.54367088492E+02  0.40000009835E+02 0.  0.
         12    1    3    3    0    0  0.11595182866E+02 -0.61283831307E+01  0.34406019514E+02  0.36820911508E+02  0.00000000000E+00 0. -1.
         11    1    4    4    0    0 -0.13488588916E+02 -0.46480767672E+01 -0.20233882405E+02  0.24757961265E+02  0.51100000000E-03 0. -1.
        -11    1    4    4    0    0  0.16224479467E+01  0.13243133051E+02 -0.19560078896E+02  0.23677195717E+02  0.51100000000E-03 0.  1.
         12    1    4    4    0    0  0.27095810300E+00 -0.24666731528E+01  0.53879417870E+01  0.59319315098E+01  0.00000000000E+00 0. -1.
</event>
<event>
 8    1  0.2472977E-006  0.9118800E+02  0.7816164E-02  0.1184000E+00
        -11   -1    0    0    0    0  0.00000000000E+00  0.00000000000E+00  0.45593999997E+02  0.45594000000E+02  0.51100000000E-03 0. -1.
         11   -1    0    0    0    0 -0.00000000000E+00 -0.00000000000E+00 -0.45593999997E+02  0.45594000000E+02  0.51100000000E-03 0.  1.
         23    2    1    2    0    0 -0.88817841970E-15  0.00000000000E+00  0.00000000000E+00  0.91188000000E+02  0.91188000000E+02 0.  0.
    9900012    2    3    3    0    0  0.57289601561E+01 -0.28592397204E+02  0.22481865175E+02  0.54367076273E+02  0.39999981979E+02 0.  0.
        -12    1    3    3    0    0 -0.57289601561E+01  0.28592397204E+02 -0.22481865175E+02  0.36820923727E+02  0.00000000000E+00 0.  1.
         11    1    4    4    0    0  0.41550776759E+00  0.20156188845E+01 -0.21900445651E+01  0.30052723089E+01  0.51100000000E-03 0. -1.
        -11    1    4    4    0    0  0.14464128670E+02 -0.40066963338E+01  0.18204582323E+01  0.15118819469E+02  0.51100000000E-03 0.  1.
         12    1    4    4    0    0 -0.91506762813E+01 -0.26601319755E+02  0.22851451508E+02  0.36242984495E+02  0.00000000000E+00 0. -1.
</event>
<event>
 8    1  0.2472977E-006  0.9118800E+02  0.7816164E-02  0.1184000E+00
        -11   -1    0    0    0    0  0.00000000000E+00  0.00000000000E+00  0.45593999997E+02  0.45594000000E+02  0.51100000000E-03 0.  1.
         11   -1    0    0    0    0 -0.00000000000E+00 -0.00000000000E+00 -0.45593999997E+02  0.45594000000E+02  0.51100000000E-03 0. -1.
         23    2    1    2    0    0  0.00000000000E+00  0.88817841970E-15 -0.17763568394E-14  0.91188000000E+02  0.91188000000E+02 0.  0.
    9900012    2    3    3    0    0  0.34372863396E+02  0.67468087857E+01  0.11347399556E+02  0.54367127611E+02  0.40000099014E+02 0.  0.
        -12    1    3    3    0    0 -0.34372863396E+02 -0.67468087857E+01 -0.11347399556E+02  0.36820872389E+02  0.00000000000E+00 0.  1.
         11    1    4    4    0    0  0.13950109964E+01  0.78864409154E+01  0.20272222759E+01  0.82614548604E+01  0.51100000000E-03 0. -1.
        -11    1    4    4    0    0  0.26879507358E+02 -0.52827223082E+01 -0.69339569180E+01  0.28257650815E+02  0.51100000000E-03 0.  1.
        -12    1    4    4    0    0  0.60983450417E+01  0.41430901785E+01  0.16254134198E+02  0.17848021936E+02  0.00000000000E+00 0.  1.
</event>
<event>
 8    1  0.2472977E-006  0.9118800E+02  0.7816164E-02  0.1184000E+00
        -11   -1    0    0    0    0  0.00000000000E+00  0.00000000000E+00  0.45593999997E+02  0.45594000000E+02  0.51100000000E-03 0. -1.
         11   -1    0    0    0    0 -0.00000000000E+00 -0.00000000000E+00 -0.45593999997E+02  0.45594000000E+02  0.51100000000E-03 0.  1.
         23    2    1    2    0    0  0.00000000000E+00  0.00000000000E+00  0.00000000000E+00  0.91188000000E+02  0.91188000000E+02 0.  0.
    9900012    2    3    3    0    0 -0.76932720050E+01 -0.34796706791E+02  0.92618010533E+01  0.54367106524E+02  0.40000050942E+02 0.  0.
         12    1    3    3    0    0  0.76932720050E+01  0.34796706791E+02 -0.92618010533E+01  0.36820893476E+02  0.00000000000E+00 0. -1.
         11    1    4    4    0    0 -0.20550780597E+02 -0.14879689133E+02  0.15555883882E+02  0.29761136663E+02  0.51100000000E-03 0. -1.
        -11    1    4    4    0    0  0.57789810013E+01 -0.82750507297E+01 -0.36079976494E+01  0.10718709497E+02  0.51100000000E-03 0.  1.
         12    1    4    4    0    0  0.70785275907E+01 -0.11641966928E+02 -0.26860851793E+01  0.13887260363E+02  0.00000000000E+00 0. -1.
</event>
<event>
 8    1  0.2472977E-006  0.9118800E+02  0.7816164E-02  0.1184000E+00
        -11   -1    0    0    0    0  0.00000000000E+00  0.00000000000E+00  0.45593999997E+02  0.45594000000E+02  0.51100000000E-03 0.  1.
         11   -1    0    0    0    0 -0.00000000000E+00 -0.00000000000E+00 -0.45593999997E+02  0.45594000000E+02  0.51100000000E-03 0. -1.
         23    2    1    2    0    0  0.00000000000E+00  0.44408920985E-15  0.00000000000E+00  0.91188000000E+02  0.91188000000E+02 0.  0.
    9900012    2    3    3    0    0  0.13707670768E+02  0.34604119041E+01 -0.33998652568E+02  0.54367040414E+02  0.39999900231E+02 0.  0.
        -12    1    3    3    0    0 -0.13707670768E+02 -0.34604119041E+01  0.33998652568E+02  0.36820959586E+02  0.00000000000E+00 0.  1.
         11    1    4    4    0    0  0.13897491556E+02  0.51694988857E+01 -0.35773757563E+02  0.38725001236E+02  0.51100000000E-03 0. -1.
        -11    1    4    4    0    0  0.10465576358E+01 -0.30516142387E+01 -0.64527111120E+01  0.72142299175E+01  0.51100000000E-03 0.  1.
         12    1    4    4    0    0 -0.12363784240E+01  0.13425272571E+01  0.82278161069E+01  0.84278092605E+01  0.00000000000E+00 0. -1.
</event>
<event>
 8    1  0.2472977E-006  0.9118800E+02  0.7816164E-02  0.1184000E+00
        -11   -1    0    0    0    0  0.00000000000E+00  0.00000000000E+00  0.45593999997E+02  0.45594000000E+02  0.51100000000E-03 0.  1.
         11   -1    0    0    0    0 -0.00000000000E+00 -0.00000000000E+00 -0.45593999997E+02  0.45594000000E+02  0.51100000000E-03 0. -1.
         23    2    1    2    0    0  0.35527136788E-14  0.00000000000E+00  0.37747582837E-14  0.91188000000E+02  0.91188000000E+02 0.  0.
    9900012    2    3    3    0    0  0.27227937035E+02  0.24726999206E+02  0.17302309949E+01  0.54367099084E+02  0.40000033982E+02 0.  0.
        -12    1    3    3    0    0 -0.27227937035E+02 -0.24726999206E+02 -0.17302309949E+01  0.36820900916E+02  0.00000000000E+00 0.  1.
         11    1    4    4    0    0  0.13765357995E+02  0.12055762399E+02  0.17569729346E+02  0.25367732995E+02  0.51100000000E-03 0.  1.
        -11    1    4    4    0    0  0.13921562593E+01  0.82933279209E+01  0.25185858970E+00  0.84131337838E+01  0.51100000000E-03 0. -1.
         12    1    4    4    0    0  0.12070422781E+02  0.43779088866E+01 -0.16091356941E+02  0.20586232305E+02  0.00000000000E+00 0. -1.
</event>
<event>
 8    1  0.2472977E-006  0.9118800E+02  0.7816164E-02  0.1184000E+00
        -11   -1    0    0    0    0  0.00000000000E+00  0.00000000000E+00  0.45593999997E+02  0.45594000000E+02  0.51100000000E-03 0. -1.
         11   -1    0    0    0    0 -0.00000000000E+00 -0.00000000000E+00 -0.45593999997E+02  0.45594000000E+02  0.51100000000E-03 0.  1.
         23    2    1    2    0    0 -0.88817841970E-15 -0.35527136788E-14  0.00000000000E+00  0.91188000000E+02  0.91188000000E+02 0.  0.
    9900012    2    3    3    0    0 -0.48340100723E+01 -0.28893946216E+02  0.22305890304E+02  0.54367074922E+02  0.39999978899E+02 0.  0.
         12    1    3    3    0    0  0.48340100723E+01  0.28893946216E+02 -0.22305890304E+02  0.36820925078E+02  0.00000000000E+00 0. -1.
         11    1    4    4    0    0 -0.55138850592E-01 -0.68949268331E+01 -0.51014727960E+01  0.85771837614E+01  0.51100000000E-03 0. -1.
        -11    1    4    4    0    0  0.28481110210E+01 -0.65364879601E+01 -0.52542925375E+01  0.88569182886E+01  0.51100000000E-03 0.  1.
         12    1    4    4    0    0 -0.76269822427E+01 -0.15462531423E+02  0.32661655638E+02  0.36932972872E+02  0.00000000000E+00 0. -1.
</event>
<event>
 8    1  0.2472977E-006  0.9118800E+02  0.7816164E-02  0.1184000E+00
        -11   -1    0    0    0    0  0.00000000000E+00  0.00000000000E+00  0.45593999997E+02  0.45594000000E+02  0.51100000000E-03 0. -1.
         11   -1    0    0    0    0 -0.00000000000E+00 -0.00000000000E+00 -0.45593999997E+02  0.45594000000E+02  0.51100000000E-03 0.  1.
         23    2    1    2    0    0  0.00000000000E+00  0.26645352591E-14  0.00000000000E+00  0.91188000000E+02  0.91188000000E+02 0.  0.
    9900012    2    3    3    0    0 -0.22402242521E+02  0.57666360252E+01 -0.28647245651E+02  0.54367092293E+02  0.40000018500E+02 0.  0.
         12    1    3    3    0    0  0.22402242521E+02 -0.57666360252E+01  0.28647245651E+02  0.36820907707E+02  0.00000000000E+00 0. -1.
         11    1    4    4    0    0 -0.13119065555E+02 -0.18338922457E+00 -0.83272336630E+01  0.15539830546E+02  0.51100000000E-03 0. -1.
        -11    1    4    4    0    0 -0.23175222747E+00 -0.12185926968E+02 -0.11376661476E+02  0.16672700794E+02  0.51100000000E-03 0.  1.
        -12    1    4    4    0    0 -0.90514247378E+01  0.18135952218E+02 -0.89433505122E+01  0.22154560953E+02  0.00000000000E+00 0.  1.
</event>
<event>
 8    1  0.2472977E-006  0.9118800E+02  0.7816164E-02  0.1184000E+00
        -11   -1    0    0    0    0  0.00000000000E+00  0.00000000000E+00  0.45593999997E+02  0.45594000000E+02  0.51100000000E-03 0.  1.
         11   -1    0    0    0    0 -0.00000000000E+00 -0.00000000000E+00 -0.45593999997E+02  0.45594000000E+02  0.51100000000E-03 0. -1.
         23    2    1    2    0    0  0.00000000000E+00  0.35527136788E-14  0.00000000000E+00  0.91188000000E+02  0.91188000000E+02 0.  0.
    9900012    2    3    3    0    0 -0.22778013672E+02  0.21505964196E+02  0.19350337703E+02  0.54367082412E+02  0.39999995974E+02 0.  0.
        -12    1    3    3    0    0  0.22778013672E+02 -0.21505964196E+02 -0.19350337703E+02  0.36820917588E+02  0.00000000000E+00 0.  1.
         11    1    4    4    0    0  0.11558921032E+01  0.14703688691E+02 -0.59341008405E+01  0.15898053363E+02  0.51100000000E-03 0. -1.
        -11    1    4    4    0    0  0.50450611203E+00  0.25550336011E+01  0.75226971029E+01  0.79607597052E+01  0.51100000000E-03 0.  1.
         12    1    4    4    0    0 -0.24438411888E+02  0.42472419034E+01  0.17761741440E+02  0.30508269344E+02  0.00000000000E+00 0. -1.
</event>
<event>
 8    1  0.2472977E-006  0.9118800E+02  0.7816164E-02  0.1184000E+00
        -11   -1    0    0    0    0  0.00000000000E+00  0.00000000000E+00  0.45593999997E+02  0.45594000000E+02  0.51100000000E-03 0. -1.
         11   -1    0    0    0    0 -0.00000000000E+00 -0.00000000000E+00 -0.45593999997E+02  0.45594000000E+02  0.51100000000E-03 0.  1.
         23    2    1    2    0    0  0.00000000000E+00  0.00000000000E+00  0.00000000000E+00  0.91188000000E+02  0.91188000000E+02 0.  0.
    9900012    2    3    3    0    0 -0.27794848961E+02 -0.86586012558E+01 -0.22544534135E+02  0.54367068129E+02  0.39999963415E+02 0.  0.
         12    1    3    3    0    0  0.27794848961E+02  0.86586012558E+01  0.22544534135E+02  0.36820931871E+02  0.00000000000E+00 0. -1.
         11    1    4    4    0    0 -0.41910483339E+01 -0.75637427164E+01 -0.18057369208E+02  0.20021080715E+02  0.51100000000E-03 0.  1.
        -11    1    4    4    0    0  0.18531646726E+01  0.58371711531E+01  0.31392318169E+01  0.68819737747E+01  0.51100000000E-03 0. -1.
         12    1    4    4    0    0 -0.25456965300E+02 -0.69320296925E+01 -0.76263967438E+01  0.27464013640E+02  0.00000000000E+00 0. -1.
</event>
<event>
 8    1  0.2472977E-006  0.9118800E+02  0.7816164E-02  0.1184000E+00
        -11   -1    0    0    0    0  0.00000000000E+00  0.00000000000E+00  0.45593999997E+02  0.45594000000E+02  0.51100000000E-03 0.  1.
         11   -1    0    0    0    0 -0.00000000000E+00 -0.00000000000E+00 -0.45593999997E+02  0.45594000000E+02  0.51100000000E-03 0. -1.
         23    2    1    2    0    0  0.00000000000E+00  0.35527136788E-14  0.71054273576E-14  0.91188000000E+02  0.91188000000E+02 0.  0.
    9900012    2    3    3    0    0 -0.17994190496E+02 -0.22941281658E+02  0.22487407838E+02  0.54367125390E+02  0.40000093952E+02 0.  0.
         12    1    3    3    0    0  0.17994190496E+02  0.22941281658E+02 -0.22487407838E+02  0.36820874610E+02  0.00000000000E+00 0. -1.
         11    1    4    4    0    0 -0.17636395302E+01  0.75754056345E+01 -0.56293836612E+01  0.96014142492E+01  0.51100000000E-03 0. -1.
        -11    1    4    4    0    0 -0.37379517520E+01 -0.43108869549E+01  0.34303014813E+01  0.66575519639E+01  0.51100000000E-03 0.  1.
         12    1    4    4    0    0 -0.12492599214E+02 -0.26205800338E+02  0.24686490018E+02  0.38108159177E+02  0.00000000000E+00 0. -1.
</event>
<event>
 8    1  0.2472977E-006  0.9118800E+02  0.7816164E-02  0.1184000E+00
        -11   -1    0    0    0    0  0.00000000000E+00  0.00000000000E+00  0.45593999997E+02  0.45594000000E+02  0.51100000000E-03 0.  1.
         11   -1    0    0    0    0 -0.00000000000E+00 -0.00000000000E+00 -0.45593999997E+02  0.45594000000E+02  0.51100000000E-03 0. -1.
         23    2    1    2    0    0  0.00000000000E+00  0.88817841970E-15  0.71054273576E-14  0.91188000000E+02  0.91188000000E+02 0.  0.
    9900012    2    3    3    0    0  0.23311863592E+01  0.69800439231E+01 -0.36078090658E+02  0.54367026785E+02  0.39999869161E+02 0.  0.
        -12    1    3    3    0    0 -0.23311863592E+01 -0.69800439231E+01  0.36078090658E+02  0.36820973215E+02  0.00000000000E+00 0.  1.
         11    1    4    4    0    0  0.45351373226E+00 -0.54882472756E+01  0.27290095630E+01  0.61460577869E+01  0.51100000000E-03 0. -1.
        -11    1    4    4    0    0  0.46023325277E+01  0.43579975708E+01  0.19059649891E+01  0.66186335692E+01  0.51100000000E-03 0.  1.
         12    1    4    4    0    0 -0.27246599008E+01  0.81102936279E+01 -0.40713065210E+02  0.41602335428E+02  0.00000000000E+00 0. -1.
</event>
<event>
 8    1  0.2472977E-006  0.9118800E+02  0.7816164E-02  0.1184000E+00
        -11   -1    0    0    0    0  0.00000000000E+00  0.00000000000E+00  0.45593999997E+02  0.45594000000E+02  0.51100000000E-03 0. -1.
         11   -1    0    0    0    0 -0.00000000000E+00 -0.00000000000E+00 -0.45593999997E+02  0.45594000000E+02  0.51100000000E-03 0.  1.
         23    2    1    2    0    0  0.00000000000E+00  0.00000000000E+00 -0.35527136788E-14  0.91188000000E+02  0.91188000000E+02 0.  0.
    9900012    2    3    3    0    0  0.30784437743E+02  0.95868911565E+01 -0.17781768471E+02  0.54367063304E+02  0.39999952414E+02 0.  0.
         12    1    3    3    0    0 -0.30784437743E+02 -0.95868911565E+01  0.17781768471E+02  0.36820936696E+02  0.00000000000E+00 0. -1.
         11    1    4    4    0    0  0.26396617598E+01  0.92833623660E+01 -0.10662510033E+02  0.14381854939E+02  0.51100000000E-03 0. -1.
        -11    1    4    4    0    0 -0.43137240979E+01  0.16729681064E+01  0.35052765191E+01  0.58046534448E+01  0.51100000000E-03 0.  1.
        -12    1    4    4    0    0  0.32458500081E+02 -0.13694393159E+01 -0.10624534958E+02  0.34180554920E+02  0.00000000000E+00 0.  1.
</event>
<event>
 8    1  0.2472977E-006  0.9118800E+02  0.7816164E-02  0.1184000E+00
        -11   -1    0    0    0    0  0.00000000000E+00  0.00000000000E+00  0.45593999997E+02  0.45594000000E+02  0.51100000000E-03 0.  1.
         11   -1    0    0    0    0 -0.00000000000E+00 -0.00000000000E+00 -0.45593999997E+02  0.45594000000E+02  0.51100000000E-03 0. -1.
         23    2    1    2    0    0  0.35527136788E-14 -0.88817841970E-15  0.00000000000E+00  0.91188000000E+02  0.91188000000E+02 0.  0.
    9900012    2    3    3    0    0  0.16606867070E+02 -0.56785445575E+01  0.32368847955E+02  0.54367133360E+02  0.40000112122E+02 0.  0.
         12    1    3    3    0    0 -0.16606867070E+02  0.56785445575E+01 -0.32368847955E+02  0.36820866640E+02  0.00000000000E+00 0. -1.
         11    1    4    4    0    0  0.25877606899E+01 -0.19641850164E+01 -0.14495630019E+01  0.35574936857E+01  0.51100000000E-03 0. -1.
        -11    1    4    4    0    0  0.18119543033E+02 -0.70342843343E+01  0.38899208152E+02  0.43485024905E+02  0.51100000000E-03 0.  1.
        -12    1    4    4    0    0 -0.41004366530E+01  0.33199247933E+01 -0.50807971960E+01  0.73246147697E+01  0.00000000000E+00 0.  1.
</event>
<event>
 8    1  0.2472977E-006  0.9118800E+02  0.7816164E-02  0.1184000E+00
        -11   -1    0    0    0    0  0.00000000000E+00  0.00000000000E+00  0.45593999997E+02  0.45594000000E+02  0.51100000000E-03 0. -1.
         11   -1    0    0    0    0 -0.00000000000E+00 -0.00000000000E+00 -0.45593999997E+02  0.45594000000E+02  0.51100000000E-03 0.  1.
         23    2    1    2    0    0 -0.35527136788E-14  0.00000000000E+00  0.35527136788E-14  0.91188000000E+02  0.91188000000E+02 0.  0.
    9900012    2    3    3    0    0 -0.22820167580E+02 -0.10462556681E+02  0.26936141324E+02  0.54367070488E+02  0.39999968792E+02 0.  0.
        -12    1    3    3    0    0  0.22820167580E+02  0.10462556681E+02 -0.26936141324E+02  0.36820929512E+02  0.00000000000E+00 0.  1.
         11    1    4    4    0    0 -0.17144627770E+02  0.13500778484E+01  0.13964036410E+02  0.22152997195E+02  0.51100000000E-03 0. -1.
        -11    1    4    4    0    0  0.13680989855E+01  0.81214319295E+01  0.24133777233E+01  0.85821759313E+01  0.51100000000E-03 0.  1.
        -12    1    4    4    0    0 -0.70436387956E+01 -0.19934066459E+02  0.10558727190E+02  0.23631897362E+02  0.00000000000E+00 0.  1.
</event>
<event>
 8    1  0.2472977E-006  0.9118800E+02  0.7816164E-02  0.1184000E+00
        -11   -1    0    0    0    0  0.00000000000E+00  0.00000000000E+00  0.45593999997E+02  0.45594000000E+02  0.51100000000E-03 0.  1.
         11   -1    0    0    0    0 -0.00000000000E+00 -0.00000000000E+00 -0.45593999997E+02  0.45594000000E+02  0.51100000000E-03 0. -1.
         23    2    1    2    0    0  0.17763568394E-14 -0.17763568394E-14 -0.71054273576E-14  0.91188000000E+02  0.91188000000E+02 0.  0.
    9900012    2    3    3    0    0 -0.92580405322E+01  0.15342148301E+02  0.32166573453E+02  0.54367064696E+02  0.39999955588E+02 0.  0.
         12    1    3    3    0    0  0.92580405322E+01 -0.15342148301E+02 -0.32166573453E+02  0.36820935304E+02  0.00000000000E+00 0. -1.
         11    1    4    4    0    0 -0.13632551734E+01  0.25657651043E+02  0.19259296068E+02  0.32110652548E+02  0.51100000000E-03 0. -1.
        -11    1    4    4    0    0 -0.13046190713E+01  0.25155443514E+01 -0.96964701059E-01  0.28353829934E+01  0.51100000000E-03 0.  1.
        -12    1    4    4    0    0 -0.65901662875E+01 -0.12831047094E+02  0.13004242085E+02  0.19421029155E+02  0.00000000000E+00 0.  1.
</event>
<event>
 8    1  0.2472977E-006  0.9118800E+02  0.7816164E-02  0.1184000E+00
        -11   -1    0    0    0    0  0.00000000000E+00  0.00000000000E+00  0.45593999997E+02  0.45594000000E+02  0.51100000000E-03 0.  1.
         11   -1    0    0    0    0 -0.00000000000E+00 -0.00000000000E+00 -0.45593999997E+02  0.45594000000E+02  0.51100000000E-03 0. -1.
         23    2    1    2    0    0  0.00000000000E+00  0.00000000000E+00  0.00000000000E+00  0.91188000000E+02  0.91188000000E+02 0.  0.
    9900012    2    3    3    0    0 -0.17921398403E+02  0.24179821909E+02  0.21211728710E+02  0.54367112679E+02  0.40000064973E+02 0.  0.
         12    1    3    3    0    0  0.17921398403E+02 -0.24179821909E+02 -0.21211728710E+02  0.36820887321E+02  0.00000000000E+00 0. -1.
         11    1    4    4    0    0 -0.47564468906E+01  0.10829123744E+02  0.30893296498E+00  0.11831700974E+02  0.51100000000E-03 0. -1.
        -11    1    4    4    0    0 -0.33617441526E+01  0.10724397750E+02 -0.67285805698E+01  0.13099153698E+02  0.51100000000E-03 0.  1.
         12    1    4    4    0    0 -0.98032073603E+01  0.26263004140E+01  0.27631376315E+02  0.29436258007E+02  0.00000000000E+00 0. -1.
</event>
<event>
 8    1  0.2472977E-006  0.9118800E+02  0.7816164E-02  0.1184000E+00
        -11   -1    0    0    0    0  0.00000000000E+00  0.00000000000E+00  0.45593999997E+02  0.45594000000E+02  0.51100000000E-03 0. -1.
         11   -1    0    0    0    0 -0.00000000000E+00 -0.00000000000E+00 -0.45593999997E+02  0.45594000000E+02  0.51100000000E-03 0.  1.
         23    2    1    2    0    0 -0.17763568394E-14  0.35527136788E-14  0.71054273576E-14  0.91188000000E+02  0.91188000000E+02 0.  0.
    9900012    2    3    3    0    0  0.13696067412E+02 -0.14193052477E+02 -0.31092684878E+02  0.54367081297E+02  0.39999993434E+02 0.  0.
         12    1    3    3    0    0 -0.13696067412E+02  0.14193052477E+02  0.31092684878E+02  0.36820918703E+02  0.00000000000E+00 0. -1.
         11    1    4    4    0    0  0.44102084978E+01  0.22682362622E+01 -0.56032116638E+01  0.74827011129E+01  0.51100000000E-03 0. -1.
        -11    1    4    4    0    0  0.22105961598E+02 -0.11860751811E+02 -0.12361444247E+02  0.27967056975E+02  0.51100000000E-03 0.  1.
         12    1    4    4    0    0 -0.12820102684E+02 -0.46005369279E+01 -0.13128028967E+02  0.18917323209E+02  0.00000000000E+00 0. -1.
</event>
<event>
 8    1  0.2472977E-006  0.9118800E+02  0.7816164E-02  0.1184000E+00
        -11   -1    0    0    0    0  0.00000000000E+00  0.00000000000E+00  0.45593999997E+02  0.45594000000E+02  0.51100000000E-03 0.  1.
         11   -1    0    0    0    0 -0.00000000000E+00 -0.00000000000E+00 -0.45593999997E+02  0.45594000000E+02  0.51100000000E-03 0. -1.
         23    2    1    2    0    0  0.00000000000E+00  0.00000000000E+00 -0.88817841970E-15  0.91188000000E+02  0.91188000000E+02 0.  0.
    9900012    2    3    3    0    0  0.36269778152E+02  0.26835550644E+01  0.57515881416E+01  0.54367095053E+02  0.40000024793E+02 0.  0.
         12    1    3    3    0    0 -0.36269778152E+02 -0.26835550644E+01 -0.57515881416E+01  0.36820904947E+02  0.00000000000E+00 0. -1.
         11    1    4    4    0    0  0.45090018723E+01  0.50589154128E+01  0.13893394889E+02  0.15458012318E+02  0.51100000000E-03 0.  1.
        -11    1    4    4    0    0  0.23107323959E+02  0.78698655764E+01 -0.72689848800E+01  0.25470008759E+02  0.51100000000E-03 0. -1.
        -12    1    4    4    0    0  0.86534523206E+01 -0.10245225925E+02 -0.87282186729E+00  0.13439073976E+02  0.00000000000E+00 0.  1.
</event>
<event>
 8    1  0.2472977E-006  0.9118800E+02  0.7816164E-02  0.1184000E+00
        -11   -1    0    0    0    0  0.00000000000E+00  0.00000000000E+00  0.45593999997E+02  0.45594000000E+02  0.51100000000E-03 0. -1.
         11   -1    0    0    0    0 -0.00000000000E+00 -0.00000000000E+00 -0.45593999997E+02  0.45594000000E+02  0.51100000000E-03 0.  1.
         23    2    1    2    0    0  0.17763568394E-14  0.00000000000E+00  0.17763568394E-14  0.91188000000E+02  0.91188000000E+02 0.  0.
    9900012    2    3    3    0    0  0.10476574989E+02  0.33774688012E+02  0.10261213673E+02  0.54367072801E+02  0.39999974064E+02 0.  0.
        -12    1    3    3    0    0 -0.10476574989E+02 -0.33774688012E+02 -0.10261213673E+02  0.36820927199E+02  0.00000000000E+00 0.  1.
         11    1    4    4    0    0  0.85264606702E+00  0.25309700959E+02  0.19189420054E+02  0.31773287683E+02  0.51100000000E-03 0. -1.
        -11    1    4    4    0    0 -0.18557488385E+01 -0.22140781321E+01  0.19723699305E+01  0.34980264622E+01  0.51100000000E-03 0.  1.
        -12    1    4    4    0    0  0.11479677760E+02  0.10679065185E+02 -0.10900576312E+02  0.19095758655E+02  0.00000000000E+00 0.  1.
</event>
<event>
 8    1  0.2472977E-006  0.9118800E+02  0.7816164E-02  0.1184000E+00
        -11   -1    0    0    0    0  0.00000000000E+00  0.00000000000E+00  0.45593999997E+02  0.45594000000E+02  0.51100000000E-03 0. -1.
         11   -1    0    0    0    0 -0.00000000000E+00 -0.00000000000E+00 -0.45593999997E+02  0.45594000000E+02  0.51100000000E-03 0.  1.
         23    2    1    2    0    0  0.17763568394E-14  0.00000000000E+00 -0.35527136788E-14  0.91188000000E+02  0.91188000000E+02 0.  0.
    9900012    2    3    3    0    0 -0.15511729572E+02 -0.15519989317E+02 -0.29568476219E+02  0.54367100926E+02  0.40000038181E+02 0.  0.
         12    1    3    3    0    0  0.15511729572E+02  0.15519989317E+02  0.29568476219E+02  0.36820899074E+02  0.00000000000E+00 0. -1.
         11    1    4    4    0    0 -0.18685914067E+02 -0.17634810950E+02 -0.14538849164E+01  0.25734485101E+02  0.51100000000E-03 0. -1.
        -11    1    4    4    0    0  0.14214921726E+01  0.66395891734E+00 -0.22768423104E+02  0.22822413815E+02  0.51100000000E-03 0.  1.
         12    1    4    4    0    0  0.17526923223E+01  0.14508627159E+01 -0.53461681979E+01  0.58102020100E+01  0.00000000000E+00 0. -1.
</event>
<event>
 8    1  0.2472977E-006  0.9118800E+02  0.7816164E-02  0.1184000E+00
        -11   -1    0    0    0    0  0.00000000000E+00  0.00000000000E+00  0.45593999997E+02  0.45594000000E+02  0.51100000000E-03 0. -1.
         11   -1    0    0    0    0 -0.00000000000E+00 -0.00000000000E+00 -0.45593999997E+02  0.45594000000E+02  0.51100000000E-03 0.  1.
         23    2    1    2    0    0  0.00000000000E+00  0.00000000000E+00  0.00000000000E+00  0.91188000000E+02  0.91188000000E+02 0.  0.
    9900012    2    3    3    0    0  0.98211717603E+01 -0.80481959001E+01  0.34562274942E+02  0.54367085819E+02  0.40000003740E+02 0.  0.
        -12    1    3    3    0    0 -0.98211717603E+01  0.80481959001E+01 -0.34562274942E+02  0.36820914181E+02  0.00000000000E+00 0.  1.
         11    1    4    4    0    0  0.63344709652E+01 -0.17891910223E+01 -0.44191815530E+01  0.79281708347E+01  0.51100000000E-03 0. -1.
        -11    1    4    4    0    0  0.34622060058E+00 -0.69561265831E+01 -0.35247887775E+00  0.69736509351E+01  0.51100000000E-03 0.  1.
         12    1    4    4    0    0  0.31404801945E+01  0.69712170537E+00  0.39333935373E+02  0.39465264049E+02  0.00000000000E+00 0. -1.
</event>
<event>
 8    1  0.2472977E-006  0.9118800E+02  0.7816164E-02  0.1184000E+00
        -11   -1    0    0    0    0  0.00000000000E+00  0.00000000000E+00  0.45593999997E+02  0.45594000000E+02  0.51100000000E-03 0. -1.
         11   -1    0    0    0    0 -0.00000000000E+00 -0.00000000000E+00 -0.45593999997E+02  0.45594000000E+02  0.51100000000E-03 0.  1.
         23    2    1    2    0    0  0.00000000000E+00 -0.88817841970E-15  0.00000000000E+00  0.91188000000E+02  0.91188000000E+02 0.  0.
    9900012    2    3    3    0    0 -0.31898782118E+02  0.52241743331E+01 -0.17634457919E+02  0.54366832118E+02  0.39999425375E+02 0.  0.
        -12    1    3    3    0    0  0.31898782118E+02 -0.52241743331E+01  0.17634457919E+02  0.36821167882E+02  0.00000000000E+00 0.  1.
         11    1    4    4    0    0 -0.17334935418E+01 -0.10101377377E+02  0.30127597145E+01  0.10682675046E+02  0.51100000000E-03 0. -1.
        -11    1    4    4    0    0 -0.11956516503E+02  0.44278199595E+01 -0.18342596225E+02  0.22338637224E+02  0.51100000000E-03 0.  1.
         12    1    4    4    0    0 -0.18208772074E+02  0.10897731751E+02 -0.23046214079E+01  0.21345519848E+02  0.00000000000E+00 0. -1.
</event>
<event>
 8    1  0.2472977E-006  0.9118800E+02  0.7816164E-02  0.1184000E+00
        -11   -1    0    0    0    0  0.00000000000E+00  0.00000000000E+00  0.45593999997E+02  0.45594000000E+02  0.51100000000E-03 0.  1.
         11   -1    0    0    0    0 -0.00000000000E+00 -0.00000000000E+00 -0.45593999997E+02  0.45594000000E+02  0.51100000000E-03 0. -1.
         23    2    1    2    0    0  0.35527136788E-14  0.00000000000E+00  0.35527136788E-14  0.91188000000E+02  0.91188000000E+02 0.  0.
    9900012    2    3    3    0    0 -0.20578553948E+02  0.24709981458E+02 -0.17936648598E+02  0.54367035466E+02  0.39999888953E+02 0.  0.
         12    1    3    3    0    0  0.20578553948E+02 -0.24709981458E+02  0.17936648598E+02  0.36820964534E+02  0.00000000000E+00 0. -1.
         11    1    4    4    0    0 -0.14442499480E+02  0.17294679176E+02 -0.85620652830E+01  0.24103955717E+02  0.51100000000E-03 0. -1.
        -11    1    4    4    0    0 -0.16563801756E+02  0.76845396817E+01 -0.48489916561E+01  0.18892442909E+02  0.51100000000E-03 0.  1.
        -12    1    4    4    0    0  0.10427747288E+02 -0.26923739967E+00 -0.45255916590E+01  0.11370636840E+02  0.00000000000E+00 0.  1.
</event>
<event>
 8    1  0.2472977E-006  0.9118800E+02  0.7816164E-02  0.1184000E+00
        -11   -1    0    0    0    0  0.00000000000E+00  0.00000000000E+00  0.45593999997E+02  0.45594000000E+02  0.51100000000E-03 0. -1.
         11   -1    0    0    0    0 -0.00000000000E+00 -0.00000000000E+00 -0.45593999997E+02  0.45594000000E+02  0.51100000000E-03 0.  1.
         23    2    1    2    0    0  0.71054273576E-14 -0.88817841970E-15  0.00000000000E+00  0.91188000000E+02  0.91188000000E+02 0.  0.
    9900012    2    3    3    0    0 -0.35050716244E+02  0.73323834612E+01  0.85710173586E+01  0.54367097037E+02  0.40000029315E+02 0.  0.
        -12    1    3    3    0    0  0.35050716244E+02 -0.73323834612E+01 -0.85710173586E+01  0.36820902963E+02  0.00000000000E+00 0.  1.
         11    1    4    4    0    0 -0.25277641121E+01  0.10836121185E+02 -0.66961778160E+01  0.12986528072E+02  0.51100000000E-03 0. -1.
        -11    1    4    4    0    0 -0.52820454018E+01 -0.52846678958E+01 -0.35019369960E+01  0.82517441417E+01  0.51100000000E-03 0.  1.
         12    1    4    4    0    0 -0.27240906730E+02  0.17809301717E+01  0.18769132171E+02  0.33128824824E+02  0.00000000000E+00 0. -1.
</event>
<event>
 8    1  0.2472977E-006  0.9118800E+02  0.7816164E-02  0.1184000E+00
        -11   -1    0    0    0    0  0.00000000000E+00  0.00000000000E+00  0.45593999997E+02  0.45594000000E+02  0.51100000000E-03 0. -1.
         11   -1    0    0    0    0 -0.00000000000E+00 -0.00000000000E+00 -0.45593999997E+02  0.45594000000E+02  0.51100000000E-03 0.  1.
         23    2    1    2    0    0  0.00000000000E+00  0.00000000000E+00  0.00000000000E+00  0.91188000000E+02  0.91188000000E+02 0.  0.
    9900012    2    3    3    0    0 -0.18871538850E+02 -0.21926867985E+02  0.22778440608E+02  0.54367083733E+02  0.39999998987E+02 0.  0.
        -12    1    3    3    0    0  0.18871538850E+02  0.21926867985E+02 -0.22778440608E+02  0.36820916267E+02  0.00000000000E+00 0.  1.
         11    1    4    4    0    0 -0.90772557638E+00 -0.41846784443E+01  0.10177285848E+02  0.11041406020E+02  0.51100000000E-03 0. -1.
        -11    1    4    4    0    0 -0.55759273336E+01 -0.21347982771E+02 -0.38720476066E+01  0.22401341186E+02  0.51100000000E-03 0.  1.
         12    1    4    4    0    0 -0.12387885940E+02  0.36057932302E+01  0.16473202367E+02  0.20924336527E+02  0.00000000000E+00 0. -1.
</event>
<event>
 8    1  0.2472977E-006  0.9118800E+02  0.7816164E-02  0.1184000E+00
        -11   -1    0    0    0    0  0.00000000000E+00  0.00000000000E+00  0.45593999997E+02  0.45594000000E+02  0.51100000000E-03 0.  1.
         11   -1    0    0    0    0 -0.00000000000E+00 -0.00000000000E+00 -0.45593999997E+02  0.45594000000E+02  0.51100000000E-03 0. -1.
         23    2    1    2    0    0 -0.35527136788E-14 -0.35527136788E-14 -0.35527136788E-14  0.91188000000E+02  0.91188000000E+02 0.  0.
    9900012    2    3    3    0    0  0.19489604810E+02  0.19962204979E+02  0.24030059600E+02  0.54367108000E+02  0.40000054308E+02 0.  0.
         12    1    3    3    0    0 -0.19489604810E+02 -0.19962204979E+02 -0.24030059600E+02  0.36820892000E+02  0.00000000000E+00 0. -1.
         11    1    4    4    0    0 -0.79037207871E+01  0.21694699758E+01  0.14510578410E+02  0.16665301927E+02  0.51100000000E-03 0. -1.
        -11    1    4    4    0    0  0.21687975902E+01  0.32595607387E+01  0.75729283801E+01  0.85251195714E+01  0.51100000000E-03 0.  1.
         12    1    4    4    0    0  0.25224528007E+02  0.14533174265E+02  0.19465528101E+01  0.29176686502E+02  0.00000000000E+00 0. -1.
</event>
<event>
 8    1  0.2472977E-006  0.9118800E+02  0.7816164E-02  0.1184000E+00
        -11   -1    0    0    0    0  0.00000000000E+00  0.00000000000E+00  0.45593999997E+02  0.45594000000E+02  0.51100000000E-03 0. -1.
         11   -1    0    0    0    0 -0.00000000000E+00 -0.00000000000E+00 -0.45593999997E+02  0.45594000000E+02  0.51100000000E-03 0.  1.
         23    2    1    2    0    0  0.00000000000E+00  0.35527136788E-14  0.00000000000E+00  0.91188000000E+02  0.91188000000E+02 0.  0.
    9900012    2    3    3    0    0 -0.29860586061E+02  0.12937708176E+02 -0.17226156305E+02  0.54367090807E+02  0.40000015112E+02 0.  0.
         12    1    3    3    0    0  0.29860586061E+02 -0.12937708176E+02  0.17226156305E+02  0.36820909193E+02  0.00000000000E+00 0. -1.
         11    1    4    4    0    0 -0.17116317864E+02  0.20750792540E+02 -0.23952144788E+01  0.27005569443E+02  0.51100000000E-03 0. -1.
        -11    1    4    4    0    0 -0.68074441463E+01  0.26765735327E+01 -0.13343517025E+02  0.15216924411E+02  0.51100000000E-03 0.  1.
         12    1    4    4    0    0 -0.59368240511E+01 -0.10489657897E+02 -0.14874248013E+01  0.12144596953E+02  0.00000000000E+00 0. -1.
</event>
<event>
 8    1  0.2472977E-006  0.9118800E+02  0.7816164E-02  0.1184000E+00
        -11   -1    0    0    0    0  0.00000000000E+00  0.00000000000E+00  0.45593999997E+02  0.45594000000E+02  0.51100000000E-03 0. -1.
         11   -1    0    0    0    0 -0.00000000000E+00 -0.00000000000E+00 -0.45593999997E+02  0.45594000000E+02  0.51100000000E-03 0.  1.
         23    2    1    2    0    0  0.00000000000E+00 -0.44408920985E-15  0.00000000000E+00  0.91188000000E+02  0.91188000000E+02 0.  0.
    9900012    2    3    3    0    0 -0.98358900747E+01 -0.19825848447E+01 -0.35427445229E+02  0.54367092194E+02  0.40000018275E+02 0.  0.
         12    1    3    3    0    0  0.98358900747E+01  0.19825848447E+01  0.35427445229E+02  0.36820907806E+02  0.00000000000E+00 0. -1.
         11    1    4    4    0    0  0.10875706236E+02  0.23333997323E+00 -0.31405148278E+01  0.11322467369E+02  0.51100000000E-03 0. -1.
        -11    1    4    4    0    0 -0.13224803748E+02 -0.50030859750E+01 -0.56347823748E+01  0.15220942025E+02  0.51100000000E-03 0.  1.
        -12    1    4    4    0    0 -0.74867925624E+01  0.27871611571E+01 -0.26652148026E+02  0.27823682800E+02  0.00000000000E+00 0.  1.
</event>
<event>
 8    1  0.2472977E-006  0.9118800E+02  0.7816164E-02  0.1184000E+00
        -11   -1    0    0    0    0  0.00000000000E+00  0.00000000000E+00  0.45593999997E+02  0.45594000000E+02  0.51100000000E-03 0.  1.
         11   -1    0    0    0    0 -0.00000000000E+00 -0.00000000000E+00 -0.45593999997E+02  0.45594000000E+02  0.51100000000E-03 0. -1.
         23    2    1    2    0    0  0.00000000000E+00  0.55511151231E-15  0.00000000000E+00  0.91188000000E+02  0.91188000000E+02 0.  0.
    9900012    2    3    3    0    0 -0.30109269619E+02  0.32292408144E+00 -0.21192150486E+02  0.54367086932E+02  0.40000006279E+02 0.  0.
        -12    1    3    3    0    0  0.30109269619E+02 -0.32292408144E+00  0.21192150486E+02  0.36820913068E+02  0.00000000000E+00 0.  1.
         11    1    4    4    0    0  0.44431074220E+00 -0.99588945063E+00 -0.20059563797E+02  0.20089183852E+02  0.51100000000E-03 0. -1.
        -11    1    4    4    0    0 -0.12811273573E+02 -0.68635822003E+01 -0.22530465019E+01  0.14707607214E+02  0.51100000000E-03 0.  1.
         12    1    4    4    0    0 -0.17742306788E+02  0.81823957323E+01  0.11204598134E+01  0.19570295866E+02  0.00000000000E+00 0. -1.
</event>
<event>
 8    1  0.2472977E-006  0.9118800E+02  0.7816164E-02  0.1184000E+00
        -11   -1    0    0    0    0  0.00000000000E+00  0.00000000000E+00  0.45593999997E+02  0.45594000000E+02  0.51100000000E-03 0.  1.
         11   -1    0    0    0    0 -0.00000000000E+00 -0.00000000000E+00 -0.45593999997E+02  0.45594000000E+02  0.51100000000E-03 0. -1.
         23    2    1    2    0    0  0.00000000000E+00  0.00000000000E+00  0.00000000000E+00  0.91188000000E+02  0.91188000000E+02 0.  0.
    9900012    2    3    3    0    0  0.15201573052E+02  0.19313207084E+02  0.27417005701E+02  0.54367082131E+02  0.39999995333E+02 0.  0.
         12    1    3    3    0    0 -0.15201573052E+02 -0.19313207084E+02 -0.27417005701E+02  0.36820917869E+02  0.00000000000E+00 0. -1.
         11    1    4    4    0    0  0.15760512019E+02 -0.79306507703E+01  0.10897270305E+02  0.20737392823E+02  0.51100000000E-03 0. -1.
        -11    1    4    4    0    0 -0.50754121547E+01  0.17947528101E+02  0.12903953565E+02  0.22680070355E+02  0.51100000000E-03 0.  1.
         12    1    4    4    0    0  0.45164731876E+01  0.92963297536E+01  0.36157818312E+01  0.10949618952E+02  0.00000000000E+00 0. -1.
</event>
<event>
 8    1  0.2472977E-006  0.9118800E+02  0.7816164E-02  0.1184000E+00
        -11   -1    0    0    0    0  0.00000000000E+00  0.00000000000E+00  0.45593999997E+02  0.45594000000E+02  0.51100000000E-03 0. -1.
         11   -1    0    0    0    0 -0.00000000000E+00 -0.00000000000E+00 -0.45593999997E+02  0.45594000000E+02  0.51100000000E-03 0.  1.
         23    2    1    2    0    0 -0.35527136788E-14  0.00000000000E+00  0.00000000000E+00  0.91188000000E+02  0.91188000000E+02 0.  0.
    9900012    2    3    3    0    0  0.21531062675E+02 -0.72667983449E+01  0.28972171204E+02  0.54367085802E+02  0.40000003704E+02 0.  0.
        -12    1    3    3    0    0 -0.21531062675E+02  0.72667983449E+01 -0.28972171204E+02  0.36820914198E+02  0.00000000000E+00 0.  1.
         11    1    4    4    0    0  0.94200852630E+01  0.37003350642E+01  0.24443259562E+02  0.26455687937E+02  0.51100000000E-03 0. -1.
        -11    1    4    4    0    0  0.15154199932E+01  0.19639745850E+00 -0.79508643638E+01  0.80963766038E+01  0.51100000000E-03 0.  1.
        -12    1    4    4    0    0  0.10595557419E+02 -0.11163530868E+02  0.12479776005E+02  0.19815021261E+02  0.00000000000E+00 0.  1.
</event>
<event>
 8    1  0.2472977E-006  0.9118800E+02  0.7816164E-02  0.1184000E+00
        -11   -1    0    0    0    0  0.00000000000E+00  0.00000000000E+00  0.45593999997E+02  0.45594000000E+02  0.51100000000E-03 0. -1.
         11   -1    0    0    0    0 -0.00000000000E+00 -0.00000000000E+00 -0.45593999997E+02  0.45594000000E+02  0.51100000000E-03 0.  1.
         23    2    1    2    0    0  0.35527136788E-14  0.00000000000E+00 -0.35527136788E-14  0.91188000000E+02  0.91188000000E+02 0.  0.
    9900012    2    3    3    0    0 -0.20968199152E+02  0.22543122458E+02  0.20197114676E+02  0.54367065912E+02  0.39999958360E+02 0.  0.
        -12    1    3    3    0    0  0.20968199152E+02 -0.22543122458E+02 -0.20197114676E+02  0.36820934088E+02  0.00000000000E+00 0.  1.
         11    1    4    4    0    0 -0.20925984687E+01  0.16681324400E+02  0.21823560799E+00  0.16813482065E+02  0.51100000000E-03 0. -1.
        -11    1    4    4    0    0 -0.14395989388E+02 -0.11510066087E+01 -0.14994751856E+01  0.14519564483E+02  0.51100000000E-03 0.  1.
         12    1    4    4    0    0 -0.44796112952E+01  0.70128046668E+01  0.21478354253E+02  0.23034019365E+02  0.00000000000E+00 0. -1.
</event>
<event>
 8    1  0.2472977E-006  0.9118800E+02  0.7816164E-02  0.1184000E+00
        -11   -1    0    0    0    0  0.00000000000E+00  0.00000000000E+00  0.45593999997E+02  0.45594000000E+02  0.51100000000E-03 0.  1.
         11   -1    0    0    0    0 -0.00000000000E+00 -0.00000000000E+00 -0.45593999997E+02  0.45594000000E+02  0.51100000000E-03 0. -1.
         23    2    1    2    0    0 -0.35527136788E-14  0.17763568394E-14 -0.35527136788E-14  0.91188000000E+02  0.91188000000E+02 0.  0.
    9900012    2    3    3    0    0  0.21305220857E+02  0.15770828035E+02 -0.25556681818E+02  0.54367143978E+02  0.40000136326E+02 0.  0.
        -12    1    3    3    0    0 -0.21305220857E+02 -0.15770828035E+02  0.25556681818E+02  0.36820856022E+02  0.00000000000E+00 0.  1.
         11    1    4    4    0    0  0.11101012598E+02  0.17018252977E+02 -0.82843527938E+01  0.21942741774E+02  0.51100000000E-03 0. -1.
        -11    1    4    4    0    0 -0.72642575795E+01  0.30085284560E+01 -0.56865812557E+00  0.78831500035E+01  0.51100000000E-03 0.  1.
        -12    1    4    4    0    0  0.17468465839E+02 -0.42559533981E+01 -0.16703670899E+02  0.24541252201E+02  0.00000000000E+00 0.  1.
</event>
<event>
 8    1  0.2472977E-006  0.9118800E+02  0.7816164E-02  0.1184000E+00
        -11   -1    0    0    0    0  0.00000000000E+00  0.00000000000E+00  0.45593999997E+02  0.45594000000E+02  0.51100000000E-03 0. -1.
         11   -1    0    0    0    0 -0.00000000000E+00 -0.00000000000E+00 -0.45593999997E+02  0.45594000000E+02  0.51100000000E-03 0.  1.
         23    2    1    2    0    0 -0.35527136788E-14 -0.17763568394E-14 -0.17763568394E-14  0.91188000000E+02  0.91188000000E+02 0.  0.
    9900012    2    3    3    0    0 -0.31278819398E+02 -0.12852987175E+02 -0.14567625779E+02  0.54367088236E+02  0.40000009253E+02 0.  0.
         12    1    3    3    0    0  0.31278819398E+02  0.12852987175E+02  0.14567625779E+02  0.36820911764E+02  0.00000000000E+00 0. -1.
         11    1    4    4    0    0 -0.20146628090E+02 -0.46883981512E+01 -0.14783832404E+01  0.20737726922E+02  0.51100000000E-03 0. -1.
        -11    1    4    4    0    0 -0.35915787241E+01  0.90089863036E+01  0.15692548656E+01  0.98246543473E+01  0.51100000000E-03 0.  1.
        -12    1    4    4    0    0 -0.75406125842E+01 -0.17173575327E+02 -0.14658497404E+02  0.23804706967E+02  0.00000000000E+00 0.  1.
</event>
<event>
 8    1  0.2472977E-006  0.9118800E+02  0.7816164E-02  0.1184000E+00
        -11   -1    0    0    0    0  0.00000000000E+00  0.00000000000E+00  0.45593999997E+02  0.45594000000E+02  0.51100000000E-03 0.  1.
         11   -1    0    0    0    0 -0.00000000000E+00 -0.00000000000E+00 -0.45593999997E+02  0.45594000000E+02  0.51100000000E-03 0. -1.
         23    2    1    2    0    0 -0.88817841970E-15  0.00000000000E+00  0.00000000000E+00  0.91188000000E+02  0.91188000000E+02 0.  0.
    9900012    2    3    3    0    0  0.47708559421E+01 -0.35540415982E+02  0.83604465140E+01  0.54367091531E+02  0.40000016763E+02 0.  0.
        -12    1    3    3    0    0 -0.47708559421E+01  0.35540415982E+02 -0.83604465140E+01  0.36820908469E+02  0.00000000000E+00 0.  1.
         11    1    4    4    0    0  0.15887102733E+02 -0.26456940714E+02  0.23167597125E+01  0.30947328173E+02  0.51100000000E-03 0. -1.
        -11    1    4    4    0    0  0.42041885811E+01 -0.77797472265E+00 -0.13581369930E+01  0.44860876772E+01  0.51100000000E-03 0.  1.
        -12    1    4    4    0    0 -0.15320435372E+02 -0.83055005448E+01  0.74018237946E+01  0.18933675681E+02  0.00000000000E+00 0.  1.
</event>
<event>
 8    1  0.2472977E-006  0.9118800E+02  0.7816164E-02  0.1184000E+00
        -11   -1    0    0    0    0  0.00000000000E+00  0.00000000000E+00  0.45593999997E+02  0.45594000000E+02  0.51100000000E-03 0. -1.
         11   -1    0    0    0    0 -0.00000000000E+00 -0.00000000000E+00 -0.45593999997E+02  0.45594000000E+02  0.51100000000E-03 0.  1.
         23    2    1    2    0    0 -0.35527136788E-14  0.00000000000E+00  0.11102230246E-15  0.91188000000E+02  0.91188000000E+02 0.  0.
    9900012    2    3    3    0    0 -0.31826011999E+02  0.18511885403E+02  0.44395570349E+00  0.54367054363E+02  0.39999932032E+02 0.  0.
        -12    1    3    3    0    0  0.31826011999E+02 -0.18511885403E+02 -0.44395570349E+00  0.36820945637E+02  0.00000000000E+00 0.  1.
         11    1    4    4    0    0 -0.91177084329E+01  0.33580827234E+01 -0.75675331487E+00  0.97458710480E+01  0.51100000000E-03 0. -1.
        -11    1    4    4    0    0 -0.21763655767E+02  0.25253031787E+02 -0.33473976217E+01  0.33504886179E+02  0.51100000000E-03 0.  1.
         12    1    4    4    0    0 -0.94464779868E+00 -0.10099229107E+02  0.45481066401E+01  0.11116297137E+02  0.00000000000E+00 0. -1.
</event>
<event>
 8    1  0.2472977E-006  0.9118800E+02  0.7816164E-02  0.1184000E+00
        -11   -1    0    0    0    0  0.00000000000E+00  0.00000000000E+00  0.45593999997E+02  0.45594000000E+02  0.51100000000E-03 0. -1.
         11   -1    0    0    0    0 -0.00000000000E+00 -0.00000000000E+00 -0.45593999997E+02  0.45594000000E+02  0.51100000000E-03 0.  1.
         23    2    1    2    0    0  0.44408920985E-15  0.88817841970E-15  0.00000000000E+00  0.91188000000E+02  0.91188000000E+02 0.  0.
    9900012    2    3    3    0    0 -0.22182051457E+01  0.50051791206E+01  0.36411607963E+02  0.54367116706E+02  0.40000074155E+02 0.  0.
        -12    1    3    3    0    0  0.22182051457E+01 -0.50051791206E+01 -0.36411607963E+02  0.36820883294E+02  0.00000000000E+00 0.  1.
         11    1    4    4    0    0  0.33852785723E+00 -0.14137521329E+01  0.21306173428E+02  0.21355709368E+02  0.51100000000E-03 0. -1.
        -11    1    4    4    0    0  0.17019333830E+01  0.78620011292E+00  0.22621206017E+02  0.22698758771E+02  0.51100000000E-03 0.  1.
        -12    1    4    4    0    0 -0.42586663859E+01  0.56327311406E+01 -0.75157714822E+01  0.10312648567E+02  0.00000000000E+00 0.  1.
</event>
<event>
 8    1  0.2472977E-006  0.9118800E+02  0.7816164E-02  0.1184000E+00
        -11   -1    0    0    0    0  0.00000000000E+00  0.00000000000E+00  0.45593999997E+02  0.45594000000E+02  0.51100000000E-03 0.  1.
         11   -1    0    0    0    0 -0.00000000000E+00 -0.00000000000E+00 -0.45593999997E+02  0.45594000000E+02  0.51100000000E-03 0. -1.
         23    2    1    2    0    0  0.00000000000E+00  0.00000000000E+00  0.00000000000E+00  0.91188000000E+02  0.91188000000E+02 0.  0.
    9900012    2    3    3    0    0  0.12926420914E+02 -0.25635012882E+02 -0.23054973811E+02  0.54367108369E+02  0.40000055148E+02 0.  0.
         12    1    3    3    0    0 -0.12926420914E+02  0.25635012882E+02  0.23054973811E+02  0.36820891631E+02  0.00000000000E+00 0. -1.
         11    1    4    4    0    0  0.12900590132E+02 -0.10669918804E+02 -0.15618998048E+02  0.22895971115E+02  0.51100000000E-03 0. -1.
        -11    1    4    4    0    0  0.95587524931E+01  0.27992297527E+01 -0.50578121996E+01  0.11170805743E+02  0.51100000000E-03 0.  1.
         12    1    4    4    0    0 -0.95329217106E+01 -0.17764323831E+02 -0.23781635634E+01  0.20300331511E+02  0.00000000000E+00 0. -1.
</event>
<event>
 8    1  0.2472977E-006  0.9118800E+02  0.7816164E-02  0.1184000E+00
        -11   -1    0    0    0    0  0.00000000000E+00  0.00000000000E+00  0.45593999997E+02  0.45594000000E+02  0.51100000000E-03 0.  1.
         11   -1    0    0    0    0 -0.00000000000E+00 -0.00000000000E+00 -0.45593999997E+02  0.45594000000E+02  0.51100000000E-03 0. -1.
         23    2    1    2    0    0  0.00000000000E+00 -0.17763568394E-14 -0.17763568394E-14  0.91188000000E+02  0.91188000000E+02 0.  0.
    9900012    2    3    3    0    0 -0.33453253071E+02  0.11734359693E+02  0.99482486499E+01  0.54367041435E+02  0.39999902560E+02 0.  0.
         12    1    3    3    0    0  0.33453253071E+02 -0.11734359693E+02 -0.99482486499E+01  0.36820958565E+02  0.00000000000E+00 0. -1.
         11    1    4    4    0    0 -0.76310673830E+00  0.13471750603E+01  0.10012690877E+01  0.18438418002E+01  0.51100000000E-03 0.  1.
        -11    1    4    4    0    0 -0.32949075554E+02  0.11151814772E+01  0.19634515149E+02  0.38371856809E+02  0.51100000000E-03 0. -1.
         12    1    4    4    0    0  0.25892922108E+00  0.92720031555E+01 -0.10687535587E+02  0.14151342826E+02  0.00000000000E+00 0. -1.
</event>
<event>
 8    1  0.2472977E-006  0.9118800E+02  0.7816164E-02  0.1184000E+00
        -11   -1    0    0    0    0  0.00000000000E+00  0.00000000000E+00  0.45593999997E+02  0.45594000000E+02  0.51100000000E-03 0. -1.
         11   -1    0    0    0    0 -0.00000000000E+00 -0.00000000000E+00 -0.45593999997E+02  0.45594000000E+02  0.51100000000E-03 0.  1.
         23    2    1    2    0    0  0.00000000000E+00 -0.88817841970E-15  0.00000000000E+00  0.91188000000E+02  0.91188000000E+02 0.  0.
    9900012    2    3    3    0    0  0.35204723619E+02  0.58316166867E+01 -0.90773197877E+01  0.54367108474E+02  0.40000055387E+02 0.  0.
         12    1    3    3    0    0 -0.35204723619E+02 -0.58316166867E+01  0.90773197877E+01  0.36820891526E+02  0.00000000000E+00 0. -1.
         11    1    4    4    0    0  0.14727557238E+02 -0.89025693613E+01 -0.53669535839E+01  0.18026671198E+02  0.51100000000E-03 0.  1.
        -11    1    4    4    0    0  0.24350007789E+02  0.16711235580E+02  0.14793416018E+01  0.29569861781E+02  0.51100000000E-03 0. -1.
         12    1    4    4    0    0 -0.38728414077E+01 -0.19770495322E+01 -0.51897078056E+01  0.67705754947E+01  0.00000000000E+00 0. -1.
</event>
<event>
 8    1  0.2472977E-006  0.9118800E+02  0.7816164E-02  0.1184000E+00
        -11   -1    0    0    0    0  0.00000000000E+00  0.00000000000E+00  0.45593999997E+02  0.45594000000E+02  0.51100000000E-03 0.  1.
         11   -1    0    0    0    0 -0.00000000000E+00 -0.00000000000E+00 -0.45593999997E+02  0.45594000000E+02  0.51100000000E-03 0. -1.
         23    2    1    2    0    0  0.00000000000E+00  0.00000000000E+00  0.17763568394E-14  0.91188000000E+02  0.91188000000E+02 0.  0.
    9900012    2    3    3    0    0  0.18408561015E+02  0.31620945028E+02  0.41255902857E+01  0.54367085042E+02  0.40000001971E+02 0.  0.
         12    1    3    3    0    0 -0.18408561015E+02 -0.31620945028E+02 -0.41255902857E+01  0.36820914958E+02  0.00000000000E+00 0. -1.
         11    1    4    4    0    0  0.85396115254E+01  0.73142956739E+01 -0.38530003841E+01  0.11885684601E+02  0.51100000000E-03 0. -1.
        -11    1    4    4    0    0  0.18701600129E+02  0.12849321502E+02  0.14163440502E+02  0.26748045864E+02  0.51100000000E-03 0.  1.
        -12    1    4    4    0    0 -0.88326506386E+01  0.11457327852E+02 -0.61848498323E+01  0.15733354578E+02  0.00000000000E+00 0.  1.
</event>
<event>
 8    1  0.2472977E-006  0.9118800E+02  0.7816164E-02  0.1184000E+00
        -11   -1    0    0    0    0  0.00000000000E+00  0.00000000000E+00  0.45593999997E+02  0.45594000000E+02  0.51100000000E-03 0. -1.
         11   -1    0    0    0    0 -0.00000000000E+00 -0.00000000000E+00 -0.45593999997E+02  0.45594000000E+02  0.51100000000E-03 0.  1.
         23    2    1    2    0    0  0.00000000000E+00  0.00000000000E+00  0.00000000000E+00  0.91188000000E+02  0.91188000000E+02 0.  0.
    9900012    2    3    3    0    0 -0.66711839164E+01 -0.27114591194E+02  0.24001536362E+02  0.54367088846E+02  0.40000010642E+02 0.  0.
        -12    1    3    3    0    0  0.66711839164E+01  0.27114591194E+02 -0.24001536362E+02  0.36820911154E+02  0.00000000000E+00 0.  1.
         11    1    4    4    0    0 -0.80817630437E+01 -0.15012948303E+02  0.18932740201E+02  0.25478464679E+02  0.51100000000E-03 0. -1.
        -11    1    4    4    0    0  0.12554697782E+02 -0.87506105548E+01  0.74342930280E+01  0.17013592641E+02  0.51100000000E-03 0.  1.
        -12    1    4    4    0    0 -0.11144118654E+02 -0.33510323360E+01 -0.23654968663E+01  0.11875031525E+02  0.00000000000E+00 0.  1.
</event>
<event>
 8    1  0.2472977E-006  0.9118800E+02  0.7816164E-02  0.1184000E+00
        -11   -1    0    0    0    0  0.00000000000E+00  0.00000000000E+00  0.45593999997E+02  0.45594000000E+02  0.51100000000E-03 0.  1.
         11   -1    0    0    0    0 -0.00000000000E+00 -0.00000000000E+00 -0.45593999997E+02  0.45594000000E+02  0.51100000000E-03 0. -1.
         23    2    1    2    0    0  0.22204460493E-15  0.00000000000E+00  0.00000000000E+00  0.91188000000E+02  0.91188000000E+02 0.  0.
    9900012    2    3    3    0    0  0.11345530231E+01  0.34707498631E+02 -0.12242860573E+02  0.54367009970E+02  0.39999830827E+02 0.  0.
        -12    1    3    3    0    0 -0.11345530231E+01 -0.34707498631E+02  0.12242860573E+02  0.36820990030E+02  0.00000000000E+00 0.  1.
         11    1    4    4    0    0 -0.15231540424E+01  0.19452174851E+02  0.27264351227E+01  0.19701283040E+02  0.51100000000E-03 0. -1.
        -11    1    4    4    0    0 -0.91454486047E+00  0.22844801614E+02 -0.10458517632E+02  0.25141637663E+02  0.51100000000E-03 0.  1.
        -12    1    4    4    0    0  0.35722519259E+01 -0.75894778337E+01 -0.45107780638E+01  0.95240892663E+01  0.00000000000E+00 0.  1.
</event>
<event>
 8    1  0.2472977E-006  0.9118800E+02  0.7816164E-02  0.1184000E+00
        -11   -1    0    0    0    0  0.00000000000E+00  0.00000000000E+00  0.45593999997E+02  0.45594000000E+02  0.51100000000E-03 0. -1.
         11   -1    0    0    0    0 -0.00000000000E+00 -0.00000000000E+00 -0.45593999997E+02  0.45594000000E+02  0.51100000000E-03 0.  1.
         23    2    1    2    0    0  0.00000000000E+00  0.00000000000E+00  0.00000000000E+00  0.91188000000E+02  0.91188000000E+02 0.  0.
    9900012    2    3    3    0    0  0.14768728441E+02 -0.27434435321E+02 -0.19621856984E+02  0.54367070454E+02  0.39999968714E+02 0.  0.
         12    1    3    3    0    0 -0.14768728441E+02  0.27434435321E+02  0.19621856984E+02  0.36820929546E+02  0.00000000000E+00 0. -1.
         11    1    4    4    0    0  0.35063759136E+01 -0.22560986612E+02 -0.79647931799E+01  0.24181205917E+02  0.51100000000E-03 0. -1.
        -11    1    4    4    0    0  0.11846354624E+02 -0.89238749885E+01 -0.17571224360E+02  0.22993903289E+02  0.51100000000E-03 0.  1.
         12    1    4    4    0    0 -0.58400209713E+00  0.40504262797E+01  0.59141605562E+01  0.71919612472E+01  0.00000000000E+00 0. -1.
</event>
<event>
 8    1  0.2472977E-006  0.9118800E+02  0.7816164E-02  0.1184000E+00
        -11   -1    0    0    0    0  0.00000000000E+00  0.00000000000E+00  0.45593999997E+02  0.45594000000E+02  0.51100000000E-03 0.  1.
         11   -1    0    0    0    0 -0.00000000000E+00 -0.00000000000E+00 -0.45593999997E+02  0.45594000000E+02  0.51100000000E-03 0. -1.
         23    2    1    2    0    0 -0.35527136788E-14  0.35527136788E-14  0.35527136788E-14  0.91188000000E+02  0.91188000000E+02 0.  0.
    9900012    2    3    3    0    0  0.18260927628E+02 -0.23360919460E+02 -0.21830847319E+02  0.54367082976E+02  0.39999997260E+02 0.  0.
        -12    1    3    3    0    0 -0.18260927628E+02  0.23360919460E+02  0.21830847319E+02  0.36820917024E+02  0.00000000000E+00 0.  1.
         11    1    4    4    0    0  0.10530339085E+02 -0.58126997780E+01 -0.24567337879E+02  0.27353786039E+02  0.51100000000E-03 0. -1.
        -11    1    4    4    0    0 -0.29746279988E+01  0.16283687283E+01  0.37139326019E+01  0.50292436886E+01  0.51100000000E-03 0.  1.
        -12    1    4    4    0    0  0.10705216542E+02 -0.19176588410E+02 -0.97744204154E+00  0.21984053248E+02  0.00000000000E+00 0.  1.
</event>
<event>
 8    1  0.2472977E-006  0.9118800E+02  0.7816164E-02  0.1184000E+00
        -11   -1    0    0    0    0  0.00000000000E+00  0.00000000000E+00  0.45593999997E+02  0.45594000000E+02  0.51100000000E-03 0.  1.
         11   -1    0    0    0    0 -0.00000000000E+00 -0.00000000000E+00 -0.45593999997E+02  0.45594000000E+02  0.51100000000E-03 0. -1.
         23    2    1    2    0    0  0.17763568394E-14  0.00000000000E+00 -0.35527136788E-14  0.91188000000E+02  0.91188000000E+02 0.  0.
    9900012    2    3    3    0    0 -0.10737326289E+02  0.26732462747E+02  0.22931736559E+02  0.54367091782E+02  0.40000017336E+02 0.  0.
         12    1    3    3    0    0  0.10737326289E+02 -0.26732462747E+02 -0.22931736559E+02  0.36820908218E+02  0.00000000000E+00 0. -1.
         11    1    4    4    0    0  0.60468907357E+01 -0.22176400197E+01  0.17036118807E+02  0.18212966784E+02  0.51100000000E-03 0. -1.
        -11    1    4    4    0    0 -0.96832306048E+01  0.54505707139E+01  0.22209749689E+01  0.11331655048E+02  0.51100000000E-03 0.  1.
         12    1    4    4    0    0 -0.71009864202E+01  0.23499532053E+02  0.36746427836E+01  0.24822469950E+02  0.00000000000E+00 0. -1.
</event>
<event>
 8    1  0.2472977E-006  0.9118800E+02  0.7816164E-02  0.1184000E+00
        -11   -1    0    0    0    0  0.00000000000E+00  0.00000000000E+00  0.45593999997E+02  0.45594000000E+02  0.51100000000E-03 0.  1.
         11   -1    0    0    0    0 -0.00000000000E+00 -0.00000000000E+00 -0.45593999997E+02  0.45594000000E+02  0.51100000000E-03 0. -1.
         23    2    1    2    0    0  0.00000000000E+00  0.00000000000E+00 -0.13322676296E-14  0.91188000000E+02  0.91188000000E+02 0.  0.
    9900012    2    3    3    0    0  0.34235127967E+02 -0.13156433061E+02  0.32626031393E+01  0.54367077998E+02  0.39999985912E+02 0.  0.
         12    1    3    3    0    0 -0.34235127967E+02  0.13156433061E+02 -0.32626031393E+01  0.36820922002E+02  0.00000000000E+00 0. -1.
         11    1    4    4    0    0  0.76940586601E+00 -0.90858461611E+01  0.82540974771E+01  0.12299378491E+02  0.51100000000E-03 0. -1.
        -11    1    4    4    0    0  0.11736954639E+02 -0.50630690192E+01  0.95042420917E+01  0.15928634282E+02  0.51100000000E-03 0.  1.
         12    1    4    4    0    0  0.21728767462E+02  0.99248211920E+00 -0.14495736430E+02  0.26139065225E+02  0.00000000000E+00 0. -1.
</event>
<event>
 8    1  0.2472977E-006  0.9118800E+02  0.7816164E-02  0.1184000E+00
        -11   -1    0    0    0    0  0.00000000000E+00  0.00000000000E+00  0.45593999997E+02  0.45594000000E+02  0.51100000000E-03 0.  1.
         11   -1    0    0    0    0 -0.00000000000E+00 -0.00000000000E+00 -0.45593999997E+02  0.45594000000E+02  0.51100000000E-03 0. -1.
         23    2    1    2    0    0 -0.88817841970E-15 -0.17763568394E-14 -0.71054273576E-14  0.91188000000E+02  0.91188000000E+02 0.  0.
    9900012    2    3    3    0    0 -0.30516400448E+01 -0.12679168633E+02 -0.34434082039E+02  0.54367084340E+02  0.40000000369E+02 0.  0.
        -12    1    3    3    0    0  0.30516400448E+01  0.12679168633E+02  0.34434082039E+02  0.36820915660E+02  0.00000000000E+00 0.  1.
         11    1    4    4    0    0 -0.15564942104E+02 -0.19712160453E+02 -0.28328583047E+02  0.37859547147E+02  0.51100000000E-03 0. -1.
        -11    1    4    4    0    0  0.70805993781E+01  0.64510352355E+01 -0.54067379015E+01  0.10999252618E+02  0.51100000000E-03 0.  1.
         12    1    4    4    0    0  0.54327026816E+01  0.58195658479E+00 -0.69876109034E+00  0.55082845746E+01  0.00000000000E+00 0. -1.
</event>
<event>
 8    1  0.2472977E-006  0.9118800E+02  0.7816164E-02  0.1184000E+00
        -11   -1    0    0    0    0  0.00000000000E+00  0.00000000000E+00  0.45593999997E+02  0.45594000000E+02  0.51100000000E-03 0. -1.
         11   -1    0    0    0    0 -0.00000000000E+00 -0.00000000000E+00 -0.45593999997E+02  0.45594000000E+02  0.51100000000E-03 0.  1.
         23    2    1    2    0    0  0.00000000000E+00 -0.35527136788E-14  0.00000000000E+00  0.91188000000E+02  0.91188000000E+02 0.  0.
    9900012    2    3    3    0    0  0.95755988832E+01  0.24327168683E+02 -0.25928337794E+02  0.54367055812E+02  0.39999935335E+02 0.  0.
         12    1    3    3    0    0 -0.95755988832E+01 -0.24327168683E+02  0.25928337794E+02  0.36820944188E+02  0.00000000000E+00 0. -1.
         11    1    4    4    0    0  0.57027034677E+01 -0.21134744979E+01 -0.13726285710E+02  0.15013278155E+02  0.51100000000E-03 0. -1.
        -11    1    4    4    0    0  0.65781872103E+01  0.29209797047E+02 -0.39010229194E+01  0.30194416215E+02  0.51100000000E-03 0.  1.
        -12    1    4    4    0    0 -0.27052917948E+01 -0.27691538662E+01 -0.83010291647E+01  0.91593614419E+01  0.00000000000E+00 0.  1.
</event>
<event>
 8    1  0.2472977E-006  0.9118800E+02  0.7816164E-02  0.1184000E+00
        -11   -1    0    0    0    0  0.00000000000E+00  0.00000000000E+00  0.45593999997E+02  0.45594000000E+02  0.51100000000E-03 0.  1.
         11   -1    0    0    0    0 -0.00000000000E+00 -0.00000000000E+00 -0.45593999997E+02  0.45594000000E+02  0.51100000000E-03 0. -1.
         23    2    1    2    0    0  0.00000000000E+00  0.00000000000E+00 -0.66613381478E-15  0.91188000000E+02  0.91188000000E+02 0.  0.
    9900012    2    3    3    0    0 -0.36485441821E+02  0.45423555587E+01  0.19899638759E+01  0.54367076395E+02  0.39999982258E+02 0.  0.
        -12    1    3    3    0    0  0.36485441821E+02 -0.45423555587E+01 -0.19899638759E+01  0.36820923605E+02  0.00000000000E+00 0.  1.
         11    1    4    4    0    0 -0.23713016692E+02 -0.87814739194E+01  0.10930059058E+02  0.27547915277E+02  0.51100000000E-03 0. -1.
        -11    1    4    4    0    0 -0.39752375709E+01  0.27251972874E+01 -0.11804521843E+02  0.12750527448E+02  0.51100000000E-03 0.  1.
         12    1    4    4    0    0 -0.87971875577E+01  0.10598632191E+02  0.28644266615E+01  0.14068633670E+02  0.00000000000E+00 0. -1.
</event>
<event>
 8    1  0.2472977E-006  0.9118800E+02  0.7816164E-02  0.1184000E+00
        -11   -1    0    0    0    0  0.00000000000E+00  0.00000000000E+00  0.45593999997E+02  0.45594000000E+02  0.51100000000E-03 0.  1.
         11   -1    0    0    0    0 -0.00000000000E+00 -0.00000000000E+00 -0.45593999997E+02  0.45594000000E+02  0.51100000000E-03 0. -1.
         23    2    1    2    0    0 -0.22204460493E-15  0.00000000000E+00  0.00000000000E+00  0.91188000000E+02  0.91188000000E+02 0.  0.
    9900012    2    3    3    0    0  0.18156072314E+01 -0.14713358487E+02  0.33704630429E+02  0.54367062208E+02  0.39999949915E+02 0.  0.
         12    1    3    3    0    0 -0.18156072314E+01  0.14713358487E+02 -0.33704630429E+02  0.36820937792E+02  0.00000000000E+00 0. -1.
         11    1    4    4    0    0 -0.25245874467E+01  0.86664989768E+01  0.17073622310E+02  0.19312957446E+02  0.51100000000E-03 0. -1.
        -11    1    4    4    0    0  0.55996767604E+00 -0.47222459400E+01  0.15242225900E+02  0.15966797461E+02  0.51100000000E-03 0.  1.
         12    1    4    4    0    0  0.37802270020E+01 -0.18657611523E+02  0.13887822196E+01  0.19087307301E+02  0.00000000000E+00 0. -1.
</event>
<event>
 8    1  0.2472977E-006  0.9118800E+02  0.7816164E-02  0.1184000E+00
        -11   -1    0    0    0    0  0.00000000000E+00  0.00000000000E+00  0.45593999997E+02  0.45594000000E+02  0.51100000000E-03 0.  1.
         11   -1    0    0    0    0 -0.00000000000E+00 -0.00000000000E+00 -0.45593999997E+02  0.45594000000E+02  0.51100000000E-03 0. -1.
         23    2    1    2    0    0  0.00000000000E+00  0.17763568394E-14  0.00000000000E+00  0.91188000000E+02  0.91188000000E+02 0.  0.
    9900012    2    3    3    0    0  0.27448240747E+01 -0.13757363787E+02  0.34043799127E+02  0.54367090498E+02  0.40000014407E+02 0.  0.
         12    1    3    3    0    0 -0.27448240747E+01  0.13757363787E+02 -0.34043799127E+02  0.36820909502E+02  0.00000000000E+00 0. -1.
         11    1    4    4    0    0  0.23813158337E+01 -0.17136712345E+02  0.58140650257E+01  0.18252148571E+02  0.51100000000E-03 0. -1.
        -11    1    4    4    0    0  0.87714986035E+01 -0.45903403899E+01  0.18516091117E+02  0.20996572176E+02  0.51100000000E-03 0.  1.
        -12    1    4    4    0    0 -0.84079903625E+01  0.79696889476E+01  0.97136429844E+01  0.15118369750E+02  0.00000000000E+00 0.  1.
</event>
<event>
 8    1  0.2472977E-006  0.9118800E+02  0.7816164E-02  0.1184000E+00
        -11   -1    0    0    0    0  0.00000000000E+00  0.00000000000E+00  0.45593999997E+02  0.45594000000E+02  0.51100000000E-03 0.  1.
         11   -1    0    0    0    0 -0.00000000000E+00 -0.00000000000E+00 -0.45593999997E+02  0.45594000000E+02  0.51100000000E-03 0. -1.
         23    2    1    2    0    0  0.88817841970E-15  0.00000000000E+00  0.00000000000E+00  0.91188000000E+02  0.91188000000E+02 0.  0.
    9900012    2    3    3    0    0  0.76369832530E+01  0.23141463295E+02 -0.27603057701E+02  0.54367087041E+02  0.40000006528E+02 0.  0.
        -12    1    3    3    0    0 -0.76369832530E+01 -0.23141463295E+02  0.27603057701E+02  0.36820912959E+02  0.00000000000E+00 0.  1.
         11    1    4    4    0    0  0.51153741710E+01  0.15410185055E+02 -0.23060706838E+02  0.28203493693E+02  0.51100000000E-03 0. -1.
        -11    1    4    4    0    0 -0.62336565898E+01 -0.39282803033E+01 -0.83077469810E+01  0.11104436986E+02  0.51100000000E-03 0.  1.
        -12    1    4    4    0    0  0.87552656718E+01  0.11659558544E+02  0.37653961180E+01  0.15059156362E+02  0.00000000000E+00 0.  1.
</event>
<event>
 8    1  0.2472977E-006  0.9118800E+02  0.7816164E-02  0.1184000E+00
        -11   -1    0    0    0    0  0.00000000000E+00  0.00000000000E+00  0.45593999997E+02  0.45594000000E+02  0.51100000000E-03 0.  1.
         11   -1    0    0    0    0 -0.00000000000E+00 -0.00000000000E+00 -0.45593999997E+02  0.45594000000E+02  0.51100000000E-03 0. -1.
         23    2    1    2    0    0 -0.88817841970E-15 -0.17763568394E-14  0.00000000000E+00  0.91188000000E+02  0.91188000000E+02 0.  0.
    9900012    2    3    3    0    0  0.51956277756E+01 -0.14554227065E+02  0.33420943111E+02  0.54367088661E+02  0.40000010220E+02 0.  0.
         12    1    3    3    0    0 -0.51956277756E+01  0.14554227065E+02 -0.33420943111E+02  0.36820911339E+02  0.00000000000E+00 0. -1.
         11    1    4    4    0    0  0.88030692388E+01 -0.14251789215E+02 -0.13290106341E+01  0.16803981474E+02  0.51100000000E-03 0. -1.
        -11    1    4    4    0    0 -0.10219288784E+00 -0.68237450278E+01  0.15364115964E+02  0.16811603112E+02  0.51100000000E-03 0.  1.
         12    1    4    4    0    0 -0.35052485754E+01  0.65213071780E+01  0.19385837781E+02  0.20751504075E+02  0.00000000000E+00 0. -1.
</event>
<event>
 8    1  0.2472977E-006  0.9118800E+02  0.7816164E-02  0.1184000E+00
        -11   -1    0    0    0    0  0.00000000000E+00  0.00000000000E+00  0.45593999997E+02  0.45594000000E+02  0.51100000000E-03 0.  1.
         11   -1    0    0    0    0 -0.00000000000E+00 -0.00000000000E+00 -0.45593999997E+02  0.45594000000E+02  0.51100000000E-03 0. -1.
         23    2    1    2    0    0  0.35527136788E-14  0.00000000000E+00 -0.35527136788E-14  0.91188000000E+02  0.91188000000E+02 0.  0.
    9900012    2    3    3    0    0  0.30254658816E+02  0.12995725288E+02 -0.16478715677E+02  0.54367064023E+02  0.39999954052E+02 0.  0.
        -12    1    3    3    0    0 -0.30254658816E+02 -0.12995725288E+02  0.16478715677E+02  0.36820935977E+02  0.00000000000E+00 0.  1.
         11    1    4    4    0    0  0.24093068800E+02  0.11694449741E+02 -0.33124149273E+01  0.26985333273E+02  0.51100000000E-03 0. -1.
        -11    1    4    4    0    0  0.22478989887E+01  0.56692502572E+01  0.52543712378E+01  0.80499606028E+01  0.51100000000E-03 0.  1.
        -12    1    4    4    0    0  0.39136910280E+01 -0.43679747099E+01 -0.18420671988E+02  0.19331770147E+02  0.00000000000E+00 0.  1.
</event>
<event>
 8    1  0.2472977E-006  0.9118800E+02  0.7816164E-02  0.1184000E+00
        -11   -1    0    0    0    0  0.00000000000E+00  0.00000000000E+00  0.45593999997E+02  0.45594000000E+02  0.51100000000E-03 0. -1.
         11   -1    0    0    0    0 -0.00000000000E+00 -0.00000000000E+00 -0.45593999997E+02  0.45594000000E+02  0.51100000000E-03 0.  1.
         23    2    1    2    0    0  0.00000000000E+00  0.57245874707E-15  0.00000000000E+00  0.91188000000E+02  0.91188000000E+02 0.  0.
    9900012    2    3    3    0    0  0.29748504185E+02  0.15330291138E-01 -0.21698066787E+02  0.54367084224E+02  0.40000000106E+02 0.  0.
         12    1    3    3    0    0 -0.29748504185E+02 -0.15330291138E-01  0.21698066787E+02  0.36820915776E+02  0.00000000000E+00 0. -1.
         11    1    4    4    0    0  0.13167544395E+02 -0.22467150596E+01  0.27053360150E+01  0.13629042415E+02  0.51100000000E-03 0. -1.
        -11    1    4    4    0    0  0.21926440619E+02  0.92178604503E+01 -0.18922593052E+02  0.30394115838E+02  0.51100000000E-03 0.  1.
        -12    1    4    4    0    0 -0.53454808282E+01 -0.69558150995E+01 -0.54808097496E+01  0.10343925971E+02  0.00000000000E+00 0.  1.
</event>
<event>
 8    1  0.2472977E-006  0.9118800E+02  0.7816164E-02  0.1184000E+00
        -11   -1    0    0    0    0  0.00000000000E+00  0.00000000000E+00  0.45593999997E+02  0.45594000000E+02  0.51100000000E-03 0.  1.
         11   -1    0    0    0    0 -0.00000000000E+00 -0.00000000000E+00 -0.45593999997E+02  0.45594000000E+02  0.51100000000E-03 0. -1.
         23    2    1    2    0    0  0.00000000000E+00  0.35527136788E-14  0.00000000000E+00  0.91188000000E+02  0.91188000000E+02 0.  0.
    9900012    2    3    3    0    0  0.24108345980E+02  0.25812236064E+02 -0.10406510548E+02  0.54367091018E+02  0.40000015593E+02 0.  0.
         12    1    3    3    0    0 -0.24108345980E+02 -0.25812236064E+02  0.10406510548E+02  0.36820908982E+02  0.00000000000E+00 0. -1.
         11    1    4    4    0    0  0.14235356273E+01 -0.42804850707E+01 -0.49302852884E+00  0.45378500982E+01  0.51100000000E-03 0. -1.
        -11    1    4    4    0    0 -0.15627691774E+01  0.21970294613E+02 -0.10160107421E+02  0.24256213142E+02  0.51100000000E-03 0.  1.
        -12    1    4    4    0    0  0.24247579530E+02  0.81224265213E+01  0.24662540165E+00  0.25573027778E+02  0.00000000000E+00 0.  1.
</event>
<event>
 8    1  0.2472977E-006  0.9118800E+02  0.7816164E-02  0.1184000E+00
        -11   -1    0    0    0    0  0.00000000000E+00  0.00000000000E+00  0.45593999997E+02  0.45594000000E+02  0.51100000000E-03 0. -1.
         11   -1    0    0    0    0 -0.00000000000E+00 -0.00000000000E+00 -0.45593999997E+02  0.45594000000E+02  0.51100000000E-03 0.  1.
         23    2    1    2    0    0 -0.35527136788E-14  0.00000000000E+00  0.00000000000E+00  0.91188000000E+02  0.91188000000E+02 0.  0.
    9900012    2    3    3    0    0 -0.13910927764E+02 -0.11921036019E+02  0.31939861822E+02  0.54367084963E+02  0.40000001789E+02 0.  0.
        -12    1    3    3    0    0  0.13910927764E+02  0.11921036019E+02 -0.31939861822E+02  0.36820915037E+02  0.00000000000E+00 0.  1.
         11    1    4    4    0    0 -0.11216559276E+02 -0.11846975978E+02  0.22254718482E+02  0.27594103298E+02  0.51100000000E-03 0. -1.
        -11    1    4    4    0    0  0.49475131449E+01  0.10629511676E+02  0.34733828091E+01  0.12228196645E+02  0.51100000000E-03 0.  1.
        -12    1    4    4    0    0 -0.76418816324E+01 -0.10703571717E+02  0.62117605300E+01  0.14544785020E+02  0.00000000000E+00 0.  1.
</event>
<event>
 8    1  0.2472977E-006  0.9118800E+02  0.7816164E-02  0.1184000E+00
        -11   -1    0    0    0    0  0.00000000000E+00  0.00000000000E+00  0.45593999997E+02  0.45594000000E+02  0.51100000000E-03 0.  1.
         11   -1    0    0    0    0 -0.00000000000E+00 -0.00000000000E+00 -0.45593999997E+02  0.45594000000E+02  0.51100000000E-03 0. -1.
         23    2    1    2    0    0  0.00000000000E+00  0.00000000000E+00  0.00000000000E+00  0.91188000000E+02  0.91188000000E+02 0.  0.
    9900012    2    3    3    0    0  0.23157320864E+02 -0.13119522786E+02 -0.25443986931E+02  0.54367083952E+02  0.39999999484E+02 0.  0.
        -12    1    3    3    0    0 -0.23157320864E+02  0.13119522786E+02  0.25443986931E+02  0.36820916048E+02  0.00000000000E+00 0.  1.
         11    1    4    4    0    0  0.19411530479E+02 -0.13210835018E+02 -0.16148177022E+02  0.28497320905E+02  0.51100000000E-03 0. -1.
        -11    1    4    4    0    0 -0.68284343458E+01 -0.46276330669E+01 -0.11429668347E+02  0.14095383010E+02  0.51100000000E-03 0.  1.
         12    1    4    4    0    0  0.10574224731E+02  0.47189452992E+01  0.21338584381E+01  0.11774380036E+02  0.00000000000E+00 0. -1.
</event>
<event>
 8    1  0.2472977E-006  0.9118800E+02  0.7816164E-02  0.1184000E+00
        -11   -1    0    0    0    0  0.00000000000E+00  0.00000000000E+00  0.45593999997E+02  0.45594000000E+02  0.51100000000E-03 0.  1.
         11   -1    0    0    0    0 -0.00000000000E+00 -0.00000000000E+00 -0.45593999997E+02  0.45594000000E+02  0.51100000000E-03 0. -1.
         23    2    1    2    0    0  0.00000000000E+00  0.00000000000E+00 -0.44408920985E-15  0.91188000000E+02  0.91188000000E+02 0.  0.
    9900012    2    3    3    0    0 -0.16180291824E+02  0.33048454988E+02 -0.13332580918E+01  0.54367084779E+02  0.40000001370E+02 0.  0.
         12    1    3    3    0    0  0.16180291824E+02 -0.33048454988E+02  0.13332580918E+01  0.36820915221E+02  0.00000000000E+00 0. -1.
         11    1    4    4    0    0 -0.51590609533E+01 -0.47484094577E+01  0.73761661956E+01  0.10176990238E+02  0.51100000000E-03 0. -1.
        -11    1    4    4    0    0  0.49055262368E+01  0.12518209575E+02 -0.28143365580E+01  0.13736456936E+02  0.51100000000E-03 0.  1.
         12    1    4    4    0    0 -0.15926757107E+02  0.25278654871E+02 -0.58950877294E+01  0.30453637605E+02  0.00000000000E+00 0. -1.
</event>
<event>
 8    1  0.2472977E-006  0.9118800E+02  0.7816164E-02  0.1184000E+00
        -11   -1    0    0    0    0  0.00000000000E+00  0.00000000000E+00  0.45593999997E+02  0.45594000000E+02  0.51100000000E-03 0.  1.
         11   -1    0    0    0    0 -0.00000000000E+00 -0.00000000000E+00 -0.45593999997E+02  0.45594000000E+02  0.51100000000E-03 0. -1.
         23    2    1    2    0    0  0.00000000000E+00  0.00000000000E+00  0.00000000000E+00  0.91188000000E+02  0.91188000000E+02 0.  0.
    9900012    2    3    3    0    0  0.22759869022E+02 -0.28358472809E+02 -0.57935812339E+01  0.54367079296E+02  0.39999988872E+02 0.  0.
        -12    1    3    3    0    0 -0.22759869022E+02  0.28358472809E+02  0.57935812339E+01  0.36820920704E+02  0.00000000000E+00 0.  1.
         11    1    4    4    0    0  0.10674285699E+02 -0.13052562345E+02  0.92684839203E+01  0.19240960303E+02  0.51100000000E-03 0. -1.
        -11    1    4    4    0    0  0.30343386048E+01 -0.20228183443E+01  0.69625946132E+01  0.78598173536E+01  0.51100000000E-03 0.  1.
         12    1    4    4    0    0  0.90512447182E+01 -0.13283092120E+02 -0.22024659768E+02  0.27266301639E+02  0.00000000000E+00 0. -1.
</event>
<event>
 8    1  0.2472977E-006  0.9118800E+02  0.7816164E-02  0.1184000E+00
        -11   -1    0    0    0    0  0.00000000000E+00  0.00000000000E+00  0.45593999997E+02  0.45594000000E+02  0.51100000000E-03 0.  1.
         11   -1    0    0    0    0 -0.00000000000E+00 -0.00000000000E+00 -0.45593999997E+02  0.45594000000E+02  0.51100000000E-03 0. -1.
         23    2    1    2    0    0  0.00000000000E+00  0.00000000000E+00  0.00000000000E+00  0.91188000000E+02  0.91188000000E+02 0.  0.
    9900012    2    3    3    0    0 -0.24494647592E+02 -0.11573709806E+02 -0.24936752581E+02  0.54367080015E+02  0.39999990510E+02 0.  0.
        -12    1    3    3    0    0  0.24494647592E+02  0.11573709806E+02  0.24936752581E+02  0.36820919985E+02  0.00000000000E+00 0.  1.
         11    1    4    4    0    0 -0.19430608058E+02  0.12656367604E+01 -0.28201842076E+02  0.34270895270E+02  0.51100000000E-03 0. -1.
        -11    1    4    4    0    0 -0.41419002500E+01 -0.69458495653E+01  0.88050188680E+01  0.11955271699E+02  0.51100000000E-03 0.  1.
        -12    1    4    4    0    0 -0.92213928342E+00 -0.58934970008E+01 -0.55399293729E+01  0.81409130454E+01  0.00000000000E+00 0.  1.
</event>
<event>
 8    1  0.2472977E-006  0.9118800E+02  0.7816164E-02  0.1184000E+00
        -11   -1    0    0    0    0  0.00000000000E+00  0.00000000000E+00  0.45593999997E+02  0.45594000000E+02  0.51100000000E-03 0.  1.
         11   -1    0    0    0    0 -0.00000000000E+00 -0.00000000000E+00 -0.45593999997E+02  0.45594000000E+02  0.51100000000E-03 0. -1.
         23    2    1    2    0    0  0.00000000000E+00 -0.35527136788E-14 -0.71054273576E-14  0.91188000000E+02  0.91188000000E+02 0.  0.
    9900012    2    3    3    0    0  0.11356878527E+02 -0.11968337142E+02 -0.32917469342E+02  0.54367087848E+02  0.40000008367E+02 0.  0.
        -12    1    3    3    0    0 -0.11356878527E+02  0.11968337142E+02  0.32917469342E+02  0.36820912152E+02  0.00000000000E+00 0.  1.
         11    1    4    4    0    0  0.62968393134E+01 -0.22484633169E+02 -0.28171383804E+02  0.36590104944E+02  0.51100000000E-03 0. -1.
        -11    1    4    4    0    0 -0.36507829246E+01  0.28725850567E+01  0.11336541643E+01  0.47817499826E+01  0.51100000000E-03 0.  1.
         12    1    4    4    0    0  0.87108221379E+01  0.76437109705E+01 -0.58797397021E+01  0.12995232921E+02  0.00000000000E+00 0. -1.
</event>
<event>
 8    1  0.2472977E-006  0.9118800E+02  0.7816164E-02  0.1184000E+00
        -11   -1    0    0    0    0  0.00000000000E+00  0.00000000000E+00  0.45593999997E+02  0.45594000000E+02  0.51100000000E-03 0. -1.
         11   -1    0    0    0    0 -0.00000000000E+00 -0.00000000000E+00 -0.45593999997E+02  0.45594000000E+02  0.51100000000E-03 0.  1.
         23    2    1    2    0    0  0.00000000000E+00 -0.35527136788E-14  0.13322676296E-14  0.91188000000E+02  0.91188000000E+02 0.  0.
    9900012    2    3    3    0    0 -0.28124213031E+02  0.23761821930E+02  0.42905982904E+00  0.54367087024E+02  0.40000006488E+02 0.  0.
        -12    1    3    3    0    0  0.28124213031E+02 -0.23761821930E+02 -0.42905982904E+00  0.36820912976E+02  0.00000000000E+00 0.  1.
         11    1    4    4    0    0 -0.22767534698E+02  0.74506831702E+01  0.14167211653E+02  0.27831334898E+02  0.51100000000E-03 0. -1.
        -11    1    4    4    0    0 -0.72285522148E+01  0.65907713203E+01 -0.22491789572E+00  0.97847239123E+01  0.51100000000E-03 0.  1.
         12    1    4    4    0    0  0.18718738819E+01  0.97203674399E+01 -0.13513233928E+02  0.16751028213E+02  0.00000000000E+00 0. -1.
</event>
<event>
 8    1  0.2472977E-006  0.9118800E+02  0.7816164E-02  0.1184000E+00
        -11   -1    0    0    0    0  0.00000000000E+00  0.00000000000E+00  0.45593999997E+02  0.45594000000E+02  0.51100000000E-03 0. -1.
         11   -1    0    0    0    0 -0.00000000000E+00 -0.00000000000E+00 -0.45593999997E+02  0.45594000000E+02  0.51100000000E-03 0.  1.
         23    2    1    2    0    0  0.00000000000E+00 -0.11102230246E-15  0.71054273576E-14  0.91188000000E+02  0.91188000000E+02 0.  0.
    9900012    2    3    3    0    0  0.11922391452E+02 -0.73832336068E+00  0.34829456648E+02  0.54367087604E+02  0.40000007810E+02 0.  0.
        -12    1    3    3    0    0 -0.11922391452E+02  0.73832336068E+00 -0.34829456648E+02  0.36820912396E+02  0.00000000000E+00 0.  1.
         11    1    4    4    0    0  0.31703753682E+00  0.48047179139E+01  0.27197299297E+01  0.55301680068E+01  0.51100000000E-03 0. -1.
        -11    1    4    4    0    0  0.84343337378E+01 -0.34483991633E+01  0.39494290633E+02  0.40531820034E+02  0.51100000000E-03 0.  1.
        -12    1    4    4    0    0  0.31710201773E+01 -0.20946421113E+01 -0.73845639147E+01  0.83050995629E+01  0.00000000000E+00 0.  1.
</event>
<event>
 8    1  0.2472977E-006  0.9118800E+02  0.7816164E-02  0.1184000E+00
        -11   -1    0    0    0    0  0.00000000000E+00  0.00000000000E+00  0.45593999997E+02  0.45594000000E+02  0.51100000000E-03 0.  1.
         11   -1    0    0    0    0 -0.00000000000E+00 -0.00000000000E+00 -0.45593999997E+02  0.45594000000E+02  0.51100000000E-03 0. -1.
         23    2    1    2    0    0 -0.88817841970E-15  0.00000000000E+00  0.00000000000E+00  0.91188000000E+02  0.91188000000E+02 0.  0.
    9900012    2    3    3    0    0  0.63670929676E+01  0.26263448798E+02  0.25009418469E+02  0.54367087087E+02  0.40000006631E+02 0.  0.
         12    1    3    3    0    0 -0.63670929676E+01 -0.26263448798E+02 -0.25009418469E+02  0.36820912913E+02  0.00000000000E+00 0. -1.
         11    1    4    4    0    0 -0.10377075488E+02 -0.20082190207E+01  0.34792111846E+01  0.11127513201E+02  0.51100000000E-03 0. -1.
        -11    1    4    4    0    0  0.13965550995E-01  0.13300583583E+02  0.14585394796E+02  0.19739287229E+02  0.51100000000E-03 0.  1.
         12    1    4    4    0    0  0.16730202905E+02  0.14971084236E+02  0.69448124881E+01  0.23500286656E+02  0.00000000000E+00 0. -1.
</event>
<event>
 8    1  0.2472977E-006  0.9118800E+02  0.7816164E-02  0.1184000E+00
        -11   -1    0    0    0    0  0.00000000000E+00  0.00000000000E+00  0.45593999997E+02  0.45594000000E+02  0.51100000000E-03 0.  1.
         11   -1    0    0    0    0 -0.00000000000E+00 -0.00000000000E+00 -0.45593999997E+02  0.45594000000E+02  0.51100000000E-03 0. -1.
         23    2    1    2    0    0  0.00000000000E+00  0.17763568394E-14  0.00000000000E+00  0.91188000000E+02  0.91188000000E+02 0.  0.
    9900012    2    3    3    0    0  0.14534067898E+02 -0.12020137930E+02  0.31623699451E+02  0.54367065567E+02  0.39999957573E+02 0.  0.
         12    1    3    3    0    0 -0.14534067898E+02  0.12020137930E+02 -0.31623699451E+02  0.36820934433E+02  0.00000000000E+00 0. -1.
         11    1    4    4    0    0 -0.42795817699E+01 -0.25446162980E+01  0.20207543621E+02  0.20811888710E+02  0.51100000000E-03 0. -1.
        -11    1    4    4    0    0  0.19917268444E+02 -0.81368857621E+01 -0.49241237164E+00  0.21520895947E+02  0.51100000000E-03 0.  1.
        -12    1    4    4    0    0 -0.11036187755E+01 -0.13386358697E+01  0.11908568202E+02  0.12034280910E+02  0.00000000000E+00 0.  1.
</event>
<event>
 8    1  0.2472977E-006  0.9118800E+02  0.7816164E-02  0.1184000E+00
        -11   -1    0    0    0    0  0.00000000000E+00  0.00000000000E+00  0.45593999997E+02  0.45594000000E+02  0.51100000000E-03 0. -1.
         11   -1    0    0    0    0 -0.00000000000E+00 -0.00000000000E+00 -0.45593999997E+02  0.45594000000E+02  0.51100000000E-03 0.  1.
         23    2    1    2    0    0  0.00000000000E+00  0.35527136788E-14 -0.35527136788E-14  0.91188000000E+02  0.91188000000E+02 0.  0.
    9900012    2    3    3    0    0  0.80978459182E+01 -0.22809951606E+02  0.27747265821E+02  0.54367085273E+02  0.40000002497E+02 0.  0.
        -12    1    3    3    0    0 -0.80978459182E+01  0.22809951606E+02 -0.27747265821E+02  0.36820914727E+02  0.00000000000E+00 0.  1.
         11    1    4    4    0    0  0.67525402283E+01 -0.17285922229E+02  0.26157182736E+02  0.32071765086E+02  0.51100000000E-03 0. -1.
        -11    1    4    4    0    0  0.10246796272E+02 -0.79983177873E+01  0.10184352265E+01  0.13038678301E+02  0.51100000000E-03 0.  1.
        -12    1    4    4    0    0 -0.89014905823E+01  0.24742884099E+01  0.57164785860E+00  0.92566418855E+01  0.00000000000E+00 0.  1.
</event>
<event>
 8    1  0.2472977E-006  0.9118800E+02  0.7816164E-02  0.1184000E+00
        -11   -1    0    0    0    0  0.00000000000E+00  0.00000000000E+00  0.45593999997E+02  0.45594000000E+02  0.51100000000E-03 0. -1.
         11   -1    0    0    0    0 -0.00000000000E+00 -0.00000000000E+00 -0.45593999997E+02  0.45594000000E+02  0.51100000000E-03 0.  1.
         23    2    1    2    0    0  0.00000000000E+00  0.00000000000E+00  0.00000000000E+00  0.91188000000E+02  0.91188000000E+02 0.  0.
    9900012    2    3    3    0    0 -0.15232344475E+02 -0.28566470197E+02 -0.17541753245E+02  0.54367073279E+02  0.39999975153E+02 0.  0.
         12    1    3    3    0    0  0.15232344475E+02  0.28566470197E+02  0.17541753245E+02  0.36820926721E+02  0.00000000000E+00 0. -1.
         11    1    4    4    0    0  0.84165470078E+01 -0.93682426553E+01 -0.85526053533E+01  0.15223314113E+02  0.51100000000E-03 0. -1.
        -11    1    4    4    0    0 -0.17582789195E+02 -0.21103638305E+02 -0.14201077272E+02  0.30922299745E+02  0.51100000000E-03 0.  1.
        -12    1    4    4    0    0 -0.60661022872E+01  0.19054107635E+01  0.52119293803E+01  0.82214594204E+01  0.00000000000E+00 0.  1.
</event>
<event>
 8    1  0.2472977E-006  0.9118800E+02  0.7816164E-02  0.1184000E+00
        -11   -1    0    0    0    0  0.00000000000E+00  0.00000000000E+00  0.45593999997E+02  0.45594000000E+02  0.51100000000E-03 0. -1.
         11   -1    0    0    0    0 -0.00000000000E+00 -0.00000000000E+00 -0.45593999997E+02  0.45594000000E+02  0.51100000000E-03 0.  1.
         23    2    1    2    0    0  0.17763568394E-14 -0.35527136788E-14  0.00000000000E+00  0.91188000000E+02  0.91188000000E+02 0.  0.
    9900012    2    3    3    0    0 -0.87191141300E+01  0.28394837025E+02 -0.21759810582E+02  0.54367094560E+02  0.40000023668E+02 0.  0.
         12    1    3    3    0    0  0.87191141300E+01 -0.28394837025E+02  0.21759810582E+02  0.36820905440E+02  0.00000000000E+00 0. -1.
         11    1    4    4    0    0  0.25710546099E+01  0.21649193372E+02 -0.11084959455E+01  0.21829490581E+02  0.51100000000E-03 0.  1.
        -11    1    4    4    0    0 -0.14090907767E+02 -0.27449366686E+01 -0.78633796153E+01  0.16368295520E+02  0.51100000000E-03 0. -1.
         12    1    4    4    0    0  0.28007390270E+01  0.94905803209E+01 -0.12787935021E+02  0.16169308459E+02  0.00000000000E+00 0. -1.
</event>
<event>
 8    1  0.2472977E-006  0.9118800E+02  0.7816164E-02  0.1184000E+00
        -11   -1    0    0    0    0  0.00000000000E+00  0.00000000000E+00  0.45593999997E+02  0.45594000000E+02  0.51100000000E-03 0.  1.
         11   -1    0    0    0    0 -0.00000000000E+00 -0.00000000000E+00 -0.45593999997E+02  0.45594000000E+02  0.51100000000E-03 0. -1.
         23    2    1    2    0    0  0.00000000000E+00  0.00000000000E+00  0.17763568394E-14  0.91188000000E+02  0.91188000000E+02 0.  0.
    9900012    2    3    3    0    0  0.36113724432E+02  0.13111800563E+01  0.70608307545E+01  0.54367141557E+02  0.40000130808E+02 0.  0.
        -12    1    3    3    0    0 -0.36113724432E+02 -0.13111800563E+01 -0.70608307545E+01  0.36820858443E+02  0.00000000000E+00 0.  1.
         11    1    4    4    0    0  0.16613384401E+02 -0.98252727562E+01 -0.46256873086E+01  0.19847859062E+02  0.51100000000E-03 0. -1.
        -11    1    4    4    0    0  0.13852269763E+02 -0.53693464226E+01  0.71836626632E+01  0.16502129199E+02  0.51100000000E-03 0.  1.
         12    1    4    4    0    0  0.56480702682E+01  0.16505799235E+02  0.45028553999E+01  0.18017153296E+02  0.00000000000E+00 0. -1.
</event>
<event>
 8    1  0.2472977E-006  0.9118800E+02  0.7816164E-02  0.1184000E+00
        -11   -1    0    0    0    0  0.00000000000E+00  0.00000000000E+00  0.45593999997E+02  0.45594000000E+02  0.51100000000E-03 0.  1.
         11   -1    0    0    0    0 -0.00000000000E+00 -0.00000000000E+00 -0.45593999997E+02  0.45594000000E+02  0.51100000000E-03 0. -1.
         23    2    1    2    0    0  0.00000000000E+00  0.00000000000E+00  0.00000000000E+00  0.91188000000E+02  0.91188000000E+02 0.  0.
    9900012    2    3    3    0    0 -0.30293944910E+02 -0.71095921911E+01 -0.19685262301E+02  0.54367096274E+02  0.40000027576E+02 0.  0.
        -12    1    3    3    0    0  0.30293944910E+02  0.71095921911E+01  0.19685262301E+02  0.36820903726E+02  0.00000000000E+00 0.  1.
         11    1    4    4    0    0  0.11211771072E+01 -0.85172045701E+01 -0.12885408921E+02  0.15486561113E+02  0.51100000000E-03 0. -1.
        -11    1    4    4    0    0 -0.71297032036E+01  0.67793207219E+01  0.53503872286E+01  0.11199040181E+02  0.51100000000E-03 0.  1.
         12    1    4    4    0    0 -0.24285418813E+02 -0.53717083429E+01 -0.12150240609E+02  0.27681494980E+02  0.00000000000E+00 0. -1.
</event>
<event>
 8    1  0.2472977E-006  0.9118800E+02  0.7816164E-02  0.1184000E+00
        -11   -1    0    0    0    0  0.00000000000E+00  0.00000000000E+00  0.45593999997E+02  0.45594000000E+02  0.51100000000E-03 0.  1.
         11   -1    0    0    0    0 -0.00000000000E+00 -0.00000000000E+00 -0.45593999997E+02  0.45594000000E+02  0.51100000000E-03 0. -1.
         23    2    1    2    0    0  0.00000000000E+00  0.00000000000E+00 -0.35527136788E-14  0.91188000000E+02  0.91188000000E+02 0.  0.
    9900012    2    3    3    0    0  0.24778460694E+02  0.20334096579E+02 -0.18119942578E+02  0.54367083158E+02  0.39999997674E+02 0.  0.
        -12    1    3    3    0    0 -0.24778460694E+02 -0.20334096579E+02  0.18119942578E+02  0.36820916842E+02  0.00000000000E+00 0.  1.
         11    1    4    4    0    0  0.79312542617E+01  0.37027805562E+01 -0.19549614437E+02  0.21419682605E+02  0.51100000000E-03 0. -1.
        -11    1    4    4    0    0  0.38867734624E+01 -0.33750363677E+00  0.93832722423E+01  0.10162023169E+02  0.51100000000E-03 0.  1.
         12    1    4    4    0    0  0.12960432970E+02  0.16968819660E+02 -0.79536003833E+01  0.22785377383E+02  0.00000000000E+00 0. -1.
</event>
<event>
 8    1  0.2472977E-006  0.9118800E+02  0.7816164E-02  0.1184000E+00
        -11   -1    0    0    0    0  0.00000000000E+00  0.00000000000E+00  0.45593999997E+02  0.45594000000E+02  0.51100000000E-03 0.  1.
         11   -1    0    0    0    0 -0.00000000000E+00 -0.00000000000E+00 -0.45593999997E+02  0.45594000000E+02  0.51100000000E-03 0. -1.
         23    2    1    2    0    0  0.00000000000E+00  0.00000000000E+00  0.00000000000E+00  0.91188000000E+02  0.91188000000E+02 0.  0.
    9900012    2    3    3    0    0  0.25886722234E+02  0.23773171688E+02 -0.10977011961E+02  0.54367070195E+02  0.39999968123E+02 0.  0.
        -12    1    3    3    0    0 -0.25886722234E+02 -0.23773171688E+02  0.10977011961E+02  0.36820929805E+02  0.00000000000E+00 0.  1.
         11    1    4    4    0    0  0.98856865286E+01  0.12108018219E+02  0.12417703321E+02  0.19963222670E+02  0.51100000000E-03 0. -1.
        -11    1    4    4    0    0  0.32495411406E+01  0.67929518794E+01 -0.25103675166E+00  0.75343700846E+01  0.51100000000E-03 0.  1.
         12    1    4    4    0    0  0.12751494565E+02  0.48722015896E+01 -0.23143678531E+02  0.26869477440E+02  0.00000000000E+00 0. -1.
</event>
<event>
 8    1  0.2472977E-006  0.9118800E+02  0.7816164E-02  0.1184000E+00
        -11   -1    0    0    0    0  0.00000000000E+00  0.00000000000E+00  0.45593999997E+02  0.45594000000E+02  0.51100000000E-03 0.  1.
         11   -1    0    0    0    0 -0.00000000000E+00 -0.00000000000E+00 -0.45593999997E+02  0.45594000000E+02  0.51100000000E-03 0. -1.
         23    2    1    2    0    0  0.00000000000E+00  0.00000000000E+00  0.44408920985E-15  0.91188000000E+02  0.91188000000E+02 0.  0.
    9900012    2    3    3    0    0 -0.27184588263E+02  0.24698923687E+02 -0.25965629354E+01  0.54367071041E+02  0.39999970051E+02 0.  0.
        -12    1    3    3    0    0  0.27184588263E+02 -0.24698923687E+02  0.25965629354E+01  0.36820928959E+02  0.00000000000E+00 0.  1.
         11    1    4    4    0    0  0.31616064062E-01  0.10187697466E+02 -0.12983729718E+02  0.16503557704E+02  0.51100000000E-03 0. -1.
        -11    1    4    4    0    0 -0.82688606356E+01 -0.46227899038E+01  0.30866126688E+01  0.99635044404E+01  0.51100000000E-03 0.  1.
        -12    1    4    4    0    0 -0.18947343691E+02  0.19134016126E+02  0.73005541139E+01  0.27900008897E+02  0.00000000000E+00 0.  1.
</event>
<event>
 8    1  0.2472977E-006  0.9118800E+02  0.7816164E-02  0.1184000E+00
        -11   -1    0    0    0    0  0.00000000000E+00  0.00000000000E+00  0.45593999997E+02  0.45594000000E+02  0.51100000000E-03 0. -1.
         11   -1    0    0    0    0 -0.00000000000E+00 -0.00000000000E+00 -0.45593999997E+02  0.45594000000E+02  0.51100000000E-03 0.  1.
         23    2    1    2    0    0 -0.88817841970E-15  0.71054273576E-14  0.00000000000E+00  0.91188000000E+02  0.91188000000E+02 0.  0.
    9900012    2    3    3    0    0  0.42408243031E+01 -0.35210400456E+02 -0.99006300376E+01  0.54367090639E+02  0.40000014729E+02 0.  0.
         12    1    3    3    0    0 -0.42408243031E+01  0.35210400456E+02  0.99006300376E+01  0.36820909361E+02  0.00000000000E+00 0. -1.
         11    1    4    4    0    0  0.18560460322E+01  0.75808909507E+01  0.19216847239E+01  0.80378907009E+01  0.51100000000E-03 0. -1.
        -11    1    4    4    0    0 -0.18840389019E+01 -0.37420847053E+02 -0.74726708743E+01  0.38206154046E+02  0.51100000000E-03 0.  1.
        -12    1    4    4    0    0  0.42688171728E+01 -0.53704443540E+01 -0.43496438872E+01  0.81230458918E+01  0.00000000000E+00 0.  1.
</event>
<event>
 8    1  0.2472977E-006  0.9118800E+02  0.7816164E-02  0.1184000E+00
        -11   -1    0    0    0    0  0.00000000000E+00  0.00000000000E+00  0.45593999997E+02  0.45594000000E+02  0.51100000000E-03 0. -1.
         11   -1    0    0    0    0 -0.00000000000E+00 -0.00000000000E+00 -0.45593999997E+02  0.45594000000E+02  0.51100000000E-03 0.  1.
         23    2    1    2    0    0  0.22204460493E-15  0.71054273576E-14  0.35527136788E-14  0.91188000000E+02  0.91188000000E+02 0.  0.
    9900012    2    3    3    0    0  0.81041608608E+00 -0.34830862032E+02 -0.11913605269E+02  0.54367085908E+02  0.40000003943E+02 0.  0.
         12    1    3    3    0    0 -0.81041608608E+00  0.34830862032E+02  0.11913605269E+02  0.36820914092E+02  0.00000000000E+00 0. -1.
         11    1    4    4    0    0 -0.28647264238E+01 -0.42571100719E+01  0.60025927093E+01  0.78968831283E+01  0.51100000000E-03 0. -1.
        -11    1    4    4    0    0 -0.26414371490E+01  0.17314411085E+01  0.53139566779E+01  0.61816837803E+01  0.51100000000E-03 0.  1.
         12    1    4    4    0    0  0.63165796589E+01 -0.32305193068E+02 -0.23230154656E+02  0.40288518999E+02  0.00000000000E+00 0. -1.
</event>
<event>
 8    1  0.2472977E-006  0.9118800E+02  0.7816164E-02  0.1184000E+00
        -11   -1    0    0    0    0  0.00000000000E+00  0.00000000000E+00  0.45593999997E+02  0.45594000000E+02  0.51100000000E-03 0.  1.
         11   -1    0    0    0    0 -0.00000000000E+00 -0.00000000000E+00 -0.45593999997E+02  0.45594000000E+02  0.51100000000E-03 0. -1.
         23    2    1    2    0    0  0.00000000000E+00 -0.17763568394E-14  0.00000000000E+00  0.91188000000E+02  0.91188000000E+02 0.  0.
    9900012    2    3    3    0    0  0.84615011996E+01  0.11373356698E+02 -0.33982799042E+02  0.54367070138E+02  0.39999967994E+02 0.  0.
        -12    1    3    3    0    0 -0.84615011996E+01 -0.11373356698E+02  0.33982799042E+02  0.36820929862E+02  0.00000000000E+00 0.  1.
         11    1    4    4    0    0  0.10640450398E+02  0.22831220980E+02 -0.27250821983E+02  0.37109178583E+02  0.51100000000E-03 0. -1.
        -11    1    4    4    0    0 -0.55844299876E+01 -0.10240090805E+02 -0.70472490191E+01  0.13627510300E+02  0.51100000000E-03 0.  1.
         12    1    4    4    0    0  0.34054807889E+01 -0.12177734768E+01  0.31527195921E+00  0.36303812544E+01  0.00000000000E+00 0. -1.
</event>
<event>
 8    1  0.2472977E-006  0.9118800E+02  0.7816164E-02  0.1184000E+00
        -11   -1    0    0    0    0  0.00000000000E+00  0.00000000000E+00  0.45593999997E+02  0.45594000000E+02  0.51100000000E-03 0. -1.
         11   -1    0    0    0    0 -0.00000000000E+00 -0.00000000000E+00 -0.45593999997E+02  0.45594000000E+02  0.51100000000E-03 0.  1.
         23    2    1    2    0    0  0.00000000000E+00  0.00000000000E+00  0.35527136788E-14  0.91188000000E+02  0.91188000000E+02 0.  0.
    9900012    2    3    3    0    0 -0.32330937260E+02  0.80739615022E+01  0.15662086462E+02  0.54367091390E+02  0.40000016443E+02 0.  0.
        -12    1    3    3    0    0  0.32330937260E+02 -0.80739615022E+01 -0.15662086462E+02  0.36820908610E+02  0.00000000000E+00 0.  1.
         11    1    4    4    0    0 -0.16104727443E+01  0.71358919594E+01  0.80335451248E+01  0.10865193236E+02  0.51100000000E-03 0. -1.
        -11    1    4    4    0    0 -0.29496639177E+01 -0.66161258487E+01 -0.79671677424E+01  0.10767980339E+02  0.51100000000E-03 0.  1.
         12    1    4    4    0    0 -0.27770800598E+02  0.75541953914E+01  0.15595709080E+02  0.32733917816E+02  0.00000000000E+00 0. -1.
</event>
<event>
 8    1  0.2472977E-006  0.9118800E+02  0.7816164E-02  0.1184000E+00
        -11   -1    0    0    0    0  0.00000000000E+00  0.00000000000E+00  0.45593999997E+02  0.45594000000E+02  0.51100000000E-03 0. -1.
         11   -1    0    0    0    0 -0.00000000000E+00 -0.00000000000E+00 -0.45593999997E+02  0.45594000000E+02  0.51100000000E-03 0.  1.
         23    2    1    2    0    0  0.00000000000E+00 -0.35527136788E-14  0.00000000000E+00  0.91188000000E+02  0.91188000000E+02 0.  0.
    9900012    2    3    3    0    0  0.86431774779E+01 -0.11976935893E+02 -0.33728744991E+02  0.54367085441E+02  0.40000002880E+02 0.  0.
        -12    1    3    3    0    0 -0.86431774779E+01  0.11976935893E+02  0.33728744991E+02  0.36820914559E+02  0.00000000000E+00 0.  1.
         11    1    4    4    0    0 -0.90914691458E+01  0.50468013687E+01 -0.11394418727E+02  0.15425880645E+02  0.51100000000E-03 0. -1.
        -11    1    4    4    0    0  0.10416690353E+02 -0.30637063364E+01 -0.20336115837E+02  0.23053228452E+02  0.51100000000E-03 0.  1.
        -12    1    4    4    0    0  0.73179562707E+01 -0.13960030925E+02 -0.19982104270E+01  0.15887976345E+02  0.00000000000E+00 0.  1.
</event>
<event>
 8    1  0.2472977E-006  0.9118800E+02  0.7816164E-02  0.1184000E+00
        -11   -1    0    0    0    0  0.00000000000E+00  0.00000000000E+00  0.45593999997E+02  0.45594000000E+02  0.51100000000E-03 0.  1.
         11   -1    0    0    0    0 -0.00000000000E+00 -0.00000000000E+00 -0.45593999997E+02  0.45594000000E+02  0.51100000000E-03 0. -1.
         23    2    1    2    0    0  0.00000000000E+00 -0.35527136788E-14 -0.35527136788E-14  0.91188000000E+02  0.91188000000E+02 0.  0.
    9900012    2    3    3    0    0 -0.42353381303E+01  0.21642020938E+02  0.29486651403E+02  0.54367112310E+02  0.40000064132E+02 0.  0.
         12    1    3    3    0    0  0.42353381303E+01 -0.21642020938E+02 -0.29486651403E+02  0.36820887690E+02  0.00000000000E+00 0. -1.
         11    1    4    4    0    0  0.51759995877E+01  0.24573216167E+01 -0.48403909478E+01  0.75005857137E+01  0.51100000000E-03 0. -1.
        -11    1    4    4    0    0 -0.43788907014E+01  0.46149461347E+01 -0.25837121834E+01  0.68664387064E+01  0.51100000000E-03 0.  1.
        -12    1    4    4    0    0 -0.50324470167E+01  0.14569753187E+02  0.36910754534E+02  0.40000087889E+02  0.00000000000E+00 0.  1.
</event>
<event>
 8    1  0.2472977E-006  0.9118800E+02  0.7816164E-02  0.1184000E+00
        -11   -1    0    0    0    0  0.00000000000E+00  0.00000000000E+00  0.45593999997E+02  0.45594000000E+02  0.51100000000E-03 0.  1.
         11   -1    0    0    0    0 -0.00000000000E+00 -0.00000000000E+00 -0.45593999997E+02  0.45594000000E+02  0.51100000000E-03 0. -1.
         23    2    1    2    0    0  0.00000000000E+00  0.55511151231E-15  0.00000000000E+00  0.91188000000E+02  0.91188000000E+02 0.  0.
    9900012    2    3    3    0    0 -0.34977226413E+02  0.60059407367E+00 -0.11489665817E+02  0.54367088803E+02  0.40000010545E+02 0.  0.
        -12    1    3    3    0    0  0.34977226413E+02 -0.60059407367E+00  0.11489665817E+02  0.36820911197E+02  0.00000000000E+00 0.  1.
         11    1    4    4    0    0 -0.15934856722E+02 -0.10605123509E+02 -0.13864948729E+02  0.23635251361E+02  0.51100000000E-03 0. -1.
        -11    1    4    4    0    0 -0.11319497552E+02 -0.52328494793E+01  0.64230795758E+00  0.12487045218E+02  0.51100000000E-03 0.  1.
         12    1    4    4    0    0 -0.77228721382E+01  0.16438567062E+02  0.17329749547E+01  0.18244792224E+02  0.00000000000E+00 0. -1.
</event>
<event>
 8    1  0.2472977E-006  0.9118800E+02  0.7816164E-02  0.1184000E+00
        -11   -1    0    0    0    0  0.00000000000E+00  0.00000000000E+00  0.45593999997E+02  0.45594000000E+02  0.51100000000E-03 0. -1.
         11   -1    0    0    0    0 -0.00000000000E+00 -0.00000000000E+00 -0.45593999997E+02  0.45594000000E+02  0.51100000000E-03 0.  1.
         23    2    1    2    0    0  0.00000000000E+00 -0.35527136788E-14 -0.17763568394E-14  0.91188000000E+02  0.91188000000E+02 0.  0.
    9900012    2    3    3    0    0  0.31775730753E+02  0.16792043236E+02  0.80068937773E+01  0.54367080282E+02  0.39999991119E+02 0.  0.
        -12    1    3    3    0    0 -0.31775730753E+02 -0.16792043236E+02 -0.80068937773E+01  0.36820919718E+02  0.00000000000E+00 0.  1.
         11    1    4    4    0    0  0.21946940672E+01 -0.22576026891E+01 -0.84109551339E+01  0.89809586613E+01  0.51100000000E-03 0. -1.
        -11    1    4    4    0    0  0.18753332239E+02  0.46045067024E+01 -0.22213668954E+01  0.19437680500E+02  0.51100000000E-03 0.  1.
         12    1    4    4    0    0  0.10827704446E+02  0.14445139223E+02  0.18639215807E+02  0.25948441121E+02  0.00000000000E+00 0. -1.
</event>
<event>
 8    1  0.2472977E-006  0.9118800E+02  0.7816164E-02  0.1184000E+00
        -11   -1    0    0    0    0  0.00000000000E+00  0.00000000000E+00  0.45593999997E+02  0.45594000000E+02  0.51100000000E-03 0.  1.
         11   -1    0    0    0    0 -0.00000000000E+00 -0.00000000000E+00 -0.45593999997E+02  0.45594000000E+02  0.51100000000E-03 0. -1.
         23    2    1    2    0    0 -0.35527136788E-14 -0.35527136788E-14  0.00000000000E+00  0.91188000000E+02  0.91188000000E+02 0.  0.
    9900012    2    3    3    0    0 -0.22364761221E+02 -0.23646077692E+02  0.17218014950E+02  0.54367087824E+02  0.40000008312E+02 0.  0.
         12    1    3    3    0    0  0.22364761221E+02  0.23646077692E+02 -0.17218014950E+02  0.36820912176E+02  0.00000000000E+00 0. -1.
         11    1    4    4    0    0 -0.21855851349E+01 -0.90482109172E+01 -0.28693849625E+00  0.93128533300E+01  0.51100000000E-03 0.  1.
        -11    1    4    4    0    0 -0.20431174215E+02 -0.24031363410E+02  0.10301435893E+02  0.33182207414E+02  0.51100000000E-03 0. -1.
         12    1    4    4    0    0  0.25199812886E+00  0.94334966359E+01  0.72035175531E+01  0.11872027079E+02  0.00000000000E+00 0. -1.
</event>
<event>
 8    1  0.2472977E-006  0.9118800E+02  0.7816164E-02  0.1184000E+00
        -11   -1    0    0    0    0  0.00000000000E+00  0.00000000000E+00  0.45593999997E+02  0.45594000000E+02  0.51100000000E-03 0. -1.
         11   -1    0    0    0    0 -0.00000000000E+00 -0.00000000000E+00 -0.45593999997E+02  0.45594000000E+02  0.51100000000E-03 0.  1.
         23    2    1    2    0    0  0.17763568394E-14  0.49960036108E-15  0.00000000000E+00  0.91188000000E+02  0.91188000000E+02 0.  0.
    9900012    2    3    3    0    0  0.99231653913E+01  0.15069759404E+00  0.35458279282E+02  0.54367061788E+02  0.39999948959E+02 0.  0.
        -12    1    3    3    0    0 -0.99231653913E+01 -0.15069759404E+00 -0.35458279282E+02  0.36820938212E+02  0.00000000000E+00 0.  1.
         11    1    4    4    0    0  0.10206740856E+02  0.15752769957E+02  0.22690427952E+02  0.29447968370E+02  0.51100000000E-03 0.  1.
        -11    1    4    4    0    0 -0.47086982235E+01 -0.66002919077E+01  0.12482362855E+02  0.14884390311E+02  0.51100000000E-03 0. -1.
        -12    1    4    4    0    0  0.44251227592E+01 -0.90017804550E+01  0.28548847529E+00  0.10034703108E+02  0.00000000000E+00 0.  1.
</event>
<event>
 8    1  0.2472977E-006  0.9118800E+02  0.7816164E-02  0.1184000E+00
        -11   -1    0    0    0    0  0.00000000000E+00  0.00000000000E+00  0.45593999997E+02  0.45594000000E+02  0.51100000000E-03 0. -1.
         11   -1    0    0    0    0 -0.00000000000E+00 -0.00000000000E+00 -0.45593999997E+02  0.45594000000E+02  0.51100000000E-03 0.  1.
         23    2    1    2    0    0  0.11102230246E-14 -0.71054273576E-14  0.00000000000E+00  0.91188000000E+02  0.91188000000E+02 0.  0.
    9900012    2    3    3    0    0  0.13040934457E+01 -0.35475090540E+02 -0.97773749988E+01  0.54367085150E+02  0.40000002217E+02 0.  0.
         12    1    3    3    0    0 -0.13040934457E+01  0.35475090540E+02  0.97773749988E+01  0.36820914850E+02  0.00000000000E+00 0. -1.
         11    1    4    4    0    0  0.50774902309E+01 -0.56301370578E+00 -0.69956338718E+01  0.86623775609E+01  0.51100000000E-03 0. -1.
        -11    1    4    4    0    0  0.11381405357E+02 -0.20919750264E+02 -0.66327679093E+01  0.24721770758E+02  0.51100000000E-03 0.  1.
         12    1    4    4    0    0 -0.15154802142E+02 -0.13992326570E+02  0.38510267823E+01  0.20982936832E+02  0.00000000000E+00 0. -1.
</event>
<event>
 8    1  0.2472977E-006  0.9118800E+02  0.7816164E-02  0.1184000E+00
        -11   -1    0    0    0    0  0.00000000000E+00  0.00000000000E+00  0.45593999997E+02  0.45594000000E+02  0.51100000000E-03 0.  1.
         11   -1    0    0    0    0 -0.00000000000E+00 -0.00000000000E+00 -0.45593999997E+02  0.45594000000E+02  0.51100000000E-03 0. -1.
         23    2    1    2    0    0  0.00000000000E+00  0.71054273576E-14  0.00000000000E+00  0.91188000000E+02  0.91188000000E+02 0.  0.
    9900012    2    3    3    0    0 -0.11107720102E+02  0.33827388677E+02  0.93864773907E+01  0.54367087078E+02  0.40000006613E+02 0.  0.
         12    1    3    3    0    0  0.11107720102E+02 -0.33827388677E+02 -0.93864773907E+01  0.36820912922E+02  0.00000000000E+00 0. -1.
         11    1    4    4    0    0 -0.12272527988E+02  0.10833129607E+02  0.35307248608E+01  0.16746272976E+02  0.51100000000E-03 0. -1.
        -11    1    4    4    0    0 -0.93644450534E+01  0.23171530068E+02  0.91066617766E+01  0.26599697852E+02  0.51100000000E-03 0.  1.
         12    1    4    4    0    0  0.10529252939E+02 -0.17727099836E+00 -0.32509092466E+01  0.11021116250E+02  0.00000000000E+00 0. -1.
</event>
<event>
 8    1  0.2472977E-006  0.9118800E+02  0.7816164E-02  0.1184000E+00
        -11   -1    0    0    0    0  0.00000000000E+00  0.00000000000E+00  0.45593999997E+02  0.45594000000E+02  0.51100000000E-03 0.  1.
         11   -1    0    0    0    0 -0.00000000000E+00 -0.00000000000E+00 -0.45593999997E+02  0.45594000000E+02  0.51100000000E-03 0. -1.
         23    2    1    2    0    0  0.00000000000E+00  0.00000000000E+00 -0.17763568394E-14  0.91188000000E+02  0.91188000000E+02 0.  0.
    9900012    2    3    3    0    0 -0.20352693943E+02  0.27833555115E+02  0.12916673310E+02  0.54367090309E+02  0.40000013977E+02 0.  0.
         12    1    3    3    0    0  0.20352693943E+02 -0.27833555115E+02 -0.12916673310E+02  0.36820909691E+02  0.00000000000E+00 0. -1.
         11    1    4    4    0    0 -0.15012705588E+02  0.23879876770E+02  0.25295128628E+01  0.28320103799E+02  0.51100000000E-03 0. -1.
        -11    1    4    4    0    0  0.55619101135E+01  0.96916296431E+01  0.72966279161E+01  0.13345535151E+02  0.51100000000E-03 0.  1.
         12    1    4    4    0    0 -0.10901898468E+02 -0.57379512975E+01  0.30905325311E+01  0.12701451359E+02  0.00000000000E+00 0. -1.
</event>
<event>
 8    1  0.2472977E-006  0.9118800E+02  0.7816164E-02  0.1184000E+00
        -11   -1    0    0    0    0  0.00000000000E+00  0.00000000000E+00  0.45593999997E+02  0.45594000000E+02  0.51100000000E-03 0.  1.
         11   -1    0    0    0    0 -0.00000000000E+00 -0.00000000000E+00 -0.45593999997E+02  0.45594000000E+02  0.51100000000E-03 0. -1.
         23    2    1    2    0    0  0.00000000000E+00  0.17763568394E-14  0.00000000000E+00  0.91188000000E+02  0.91188000000E+02 0.  0.
    9900012    2    3    3    0    0 -0.43967999670E+01 -0.38921465940E+01 -0.36349709795E+02  0.54367054096E+02  0.39999931423E+02 0.  0.
        -12    1    3    3    0    0  0.43967999670E+01  0.38921465940E+01  0.36349709795E+02  0.36820945904E+02  0.00000000000E+00 0.  1.
         11    1    4    4    0    0 -0.69286261136E+01  0.64569260109E+01 -0.14690871324E+02  0.17479114791E+02  0.51100000000E-03 0. -1.
        -11    1    4    4    0    0  0.22984956768E+01  0.46706925578E+01  0.43956895471E+01  0.68132619355E+01  0.51100000000E-03 0.  1.
         12    1    4    4    0    0  0.23333046990E+00 -0.15019765163E+02 -0.26054528018E+02  0.30074677370E+02  0.00000000000E+00 0. -1.
</event>
<event>
 8    1  0.2472977E-006  0.9118800E+02  0.7816164E-02  0.1184000E+00
        -11   -1    0    0    0    0  0.00000000000E+00  0.00000000000E+00  0.45593999997E+02  0.45594000000E+02  0.51100000000E-03 0. -1.
         11   -1    0    0    0    0 -0.00000000000E+00 -0.00000000000E+00 -0.45593999997E+02  0.45594000000E+02  0.51100000000E-03 0.  1.
         23    2    1    2    0    0  0.00000000000E+00  0.00000000000E+00 -0.35527136788E-14  0.91188000000E+02  0.91188000000E+02 0.  0.
    9900012    2    3    3    0    0 -0.92659690921E+01 -0.30776478625E+02 -0.17964673481E+02  0.54367091361E+02  0.40000016375E+02 0.  0.
         12    1    3    3    0    0  0.92659690921E+01  0.30776478625E+02  0.17964673481E+02  0.36820908639E+02  0.00000000000E+00 0. -1.
         11    1    4    4    0    0  0.70695074467E+00  0.60540044139E+00  0.68678456300E+00  0.11567032234E+01  0.51100000000E-03 0. -1.
        -11    1    4    4    0    0  0.37274017817E+01  0.33952606275E+01  0.64491031282E+01  0.81861010371E+01  0.51100000000E-03 0.  1.
        -12    1    4    4    0    0 -0.13700321618E+02 -0.34777139694E+02 -0.25100561172E+02  0.45024287100E+02  0.00000000000E+00 0.  1.
</event>
<event>
 8    1  0.2472977E-006  0.9118800E+02  0.7816164E-02  0.1184000E+00
        -11   -1    0    0    0    0  0.00000000000E+00  0.00000000000E+00  0.45593999997E+02  0.45594000000E+02  0.51100000000E-03 0. -1.
         11   -1    0    0    0    0 -0.00000000000E+00 -0.00000000000E+00 -0.45593999997E+02  0.45594000000E+02  0.51100000000E-03 0.  1.
         23    2    1    2    0    0 -0.88817841970E-15  0.00000000000E+00 -0.88817841970E-15  0.91188000000E+02  0.91188000000E+02 0.  0.
    9900012    2    3    3    0    0  0.75920696694E+01  0.35697711917E+02  0.48817999843E+01  0.54366835854E+02  0.39999433893E+02 0.  0.
        -12    1    3    3    0    0 -0.75920696694E+01 -0.35697711917E+02 -0.48817999843E+01  0.36821164146E+02  0.00000000000E+00 0.  1.
         11    1    4    4    0    0  0.36442618324E+01  0.16474963534E+02  0.13973107194E+02  0.21907824919E+02  0.51100000000E-03 0. -1.
        -11    1    4    4    0    0 -0.71643720046E+01  0.40002206515E+01  0.43717308552E+01  0.92974202020E+01  0.51100000000E-03 0.  1.
        -12    1    4    4    0    0  0.11112179842E+02  0.15222527731E+02 -0.13463038065E+02  0.23161590733E+02  0.00000000000E+00 0.  1.
</event>
<event>
 8    1  0.2472977E-006  0.9118800E+02  0.7816164E-02  0.1184000E+00
        -11   -1    0    0    0    0  0.00000000000E+00  0.00000000000E+00  0.45593999997E+02  0.45594000000E+02  0.51100000000E-03 0. -1.
         11   -1    0    0    0    0 -0.00000000000E+00 -0.00000000000E+00 -0.45593999997E+02  0.45594000000E+02  0.51100000000E-03 0.  1.
         23    2    1    2    0    0  0.00000000000E+00  0.13322676296E-14  0.00000000000E+00  0.91188000000E+02  0.91188000000E+02 0.  0.
    9900012    2    3    3    0    0 -0.35809958368E+02 -0.25642356751E+01 -0.81762993461E+01  0.54367078041E+02  0.39999986010E+02 0.  0.
         12    1    3    3    0    0  0.35809958368E+02  0.25642356751E+01  0.81762993461E+01  0.36820921959E+02  0.00000000000E+00 0. -1.
         11    1    4    4    0    0  0.21657418756E+01  0.60481308705E+01 -0.88475934268E+01  0.10933902990E+02  0.51100000000E-03 0. -1.
        -11    1    4    4    0    0 -0.11931660570E+02 -0.11608610569E+02 -0.31434972262E+01  0.16941249611E+02  0.51100000000E-03 0.  1.
        -12    1    4    4    0    0 -0.26044039673E+02  0.29962440239E+01  0.38147913068E+01  0.26491925439E+02  0.00000000000E+00 0.  1.
</event>
<event>
 8    1  0.2472977E-006  0.9118800E+02  0.7816164E-02  0.1184000E+00
        -11   -1    0    0    0    0  0.00000000000E+00  0.00000000000E+00  0.45593999997E+02  0.45594000000E+02  0.51100000000E-03 0.  1.
         11   -1    0    0    0    0 -0.00000000000E+00 -0.00000000000E+00 -0.45593999997E+02  0.45594000000E+02  0.51100000000E-03 0. -1.
         23    2    1    2    0    0  0.35527136788E-14  0.35527136788E-14  0.00000000000E+00  0.91188000000E+02  0.91188000000E+02 0.  0.
    9900012    2    3    3    0    0  0.27605610340E+02  0.12002547289E+02  0.21204945255E+02  0.54367074333E+02  0.39999977558E+02 0.  0.
         12    1    3    3    0    0 -0.27605610340E+02 -0.12002547289E+02 -0.21204945255E+02  0.36820925667E+02  0.00000000000E+00 0. -1.
         11    1    4    4    0    0  0.99526639329E+00 -0.39515965960E+01  0.19525356235E+02  0.19946057435E+02  0.51100000000E-03 0. -1.
        -11    1    4    4    0    0  0.26806709275E+01  0.54726103790E+01  0.52628238123E+01  0.80518802601E+01  0.51100000000E-03 0.  1.
         12    1    4    4    0    0  0.23929673020E+02  0.10481533506E+02 -0.35832347921E+01  0.26369136638E+02  0.00000000000E+00 0. -1.
</event>
<event>
 8    1  0.2472977E-006  0.9118800E+02  0.7816164E-02  0.1184000E+00
        -11   -1    0    0    0    0  0.00000000000E+00  0.00000000000E+00  0.45593999997E+02  0.45594000000E+02  0.51100000000E-03 0. -1.
         11   -1    0    0    0    0 -0.00000000000E+00 -0.00000000000E+00 -0.45593999997E+02  0.45594000000E+02  0.51100000000E-03 0.  1.
         23    2    1    2    0    0 -0.35527136788E-14  0.00000000000E+00  0.00000000000E+00  0.91188000000E+02  0.91188000000E+02 0.  0.
    9900012    2    3    3    0    0  0.17996200461E+02  0.12698633381E+02 -0.29506970416E+02  0.54367084424E+02  0.40000000561E+02 0.  0.
         12    1    3    3    0    0 -0.17996200461E+02 -0.12698633381E+02  0.29506970416E+02  0.36820915576E+02  0.00000000000E+00 0. -1.
         11    1    4    4    0    0  0.11452676968E+00  0.14126992148E+02  0.19262736634E+01  0.14258174989E+02  0.51100000000E-03 0. -1.
        -11    1    4    4    0    0  0.34269211419E+01  0.69293546535E+01 -0.64931155689E+01  0.10095558156E+02  0.51100000000E-03 0.  1.
        -12    1    4    4    0    0  0.14454752549E+02 -0.83577134206E+01 -0.24940128510E+02  0.30013351279E+02  0.00000000000E+00 0.  1.
</event>
<event>
 8    1  0.2472977E-006  0.9118800E+02  0.7816164E-02  0.1184000E+00
        -11   -1    0    0    0    0  0.00000000000E+00  0.00000000000E+00  0.45593999997E+02  0.45594000000E+02  0.51100000000E-03 0. -1.
         11   -1    0    0    0    0 -0.00000000000E+00 -0.00000000000E+00 -0.45593999997E+02  0.45594000000E+02  0.51100000000E-03 0.  1.
         23    2    1    2    0    0  0.00000000000E+00  0.13322676296E-14  0.00000000000E+00  0.91188000000E+02  0.91188000000E+02 0.  0.
    9900012    2    3    3    0    0  0.11679212759E+02  0.38957205641E+01 -0.34701549824E+02  0.54367106345E+02  0.40000050534E+02 0.  0.
         12    1    3    3    0    0 -0.11679212759E+02 -0.38957205641E+01  0.34701549824E+02  0.36820893655E+02  0.00000000000E+00 0. -1.
         11    1    4    4    0    0  0.17374097935E+02  0.11039660741E+02 -0.28110490168E+02  0.34841541959E+02  0.51100000000E-03 0. -1.
        -11    1    4    4    0    0 -0.16439542024E+01 -0.57839749962E+01 -0.11524459996E+02  0.12998851128E+02  0.51100000000E-03 0.  1.
        -12    1    4    4    0    0 -0.40509309734E+01 -0.13599651809E+01  0.49334003396E+01  0.65267132582E+01  0.00000000000E+00 0.  1.
</event>
<event>
 8    1  0.2472977E-006  0.9118800E+02  0.7816164E-02  0.1184000E+00
        -11   -1    0    0    0    0  0.00000000000E+00  0.00000000000E+00  0.45593999997E+02  0.45594000000E+02  0.51100000000E-03 0. -1.
         11   -1    0    0    0    0 -0.00000000000E+00 -0.00000000000E+00 -0.45593999997E+02  0.45594000000E+02  0.51100000000E-03 0.  1.
         23    2    1    2    0    0  0.00000000000E+00  0.00000000000E+00  0.00000000000E+00  0.91188000000E+02  0.91188000000E+02 0.  0.
    9900012    2    3    3    0    0 -0.26032528207E+02  0.15290763299E+02 -0.21077948533E+02  0.54367083642E+02  0.39999998778E+02 0.  0.
         12    1    3    3    0    0  0.26032528207E+02 -0.15290763299E+02  0.21077948533E+02  0.36820916358E+02  0.00000000000E+00 0. -1.
         11    1    4    4    0    0  0.19295506258E+01  0.14889279133E+01 -0.10432235971E+02  0.10713151710E+02  0.51100000000E-03 0. -1.
        -11    1    4    4    0    0  0.44008159292E+01  0.74084141920E+01 -0.56130548121E+01  0.10283878950E+02  0.51100000000E-03 0.  1.
        -12    1    4    4    0    0 -0.32362894762E+02  0.63934211933E+01 -0.50326577500E+01  0.33370052981E+02  0.00000000000E+00 0.  1.
</event>
<event>
 8    1  0.2472977E-006  0.9118800E+02  0.7816164E-02  0.1184000E+00
        -11   -1    0    0    0    0  0.00000000000E+00  0.00000000000E+00  0.45593999997E+02  0.45594000000E+02  0.51100000000E-03 0.  1.
         11   -1    0    0    0    0 -0.00000000000E+00 -0.00000000000E+00 -0.45593999997E+02  0.45594000000E+02  0.51100000000E-03 0. -1.
         23    2    1    2    0    0  0.71054273576E-14 -0.88817841970E-15  0.00000000000E+00  0.91188000000E+02  0.91188000000E+02 0.  0.
    9900012    2    3    3    0    0  0.36040520832E+02  0.15196761022E+01 -0.73858989078E+01  0.54367081218E+02  0.39999993252E+02 0.  0.
        -12    1    3    3    0    0 -0.36040520832E+02 -0.15196761022E+01  0.73858989078E+01  0.36820918782E+02  0.00000000000E+00 0.  1.
         11    1    4    4    0    0  0.11877994752E+02 -0.24108715551E+01  0.67477095896E+01  0.13871937354E+02  0.51100000000E-03 0.  1.
        -11    1    4    4    0    0  0.81419191190E+00 -0.95703733006E+01 -0.87487196343E+01  0.12992114881E+02  0.51100000000E-03 0. -1.
        -12    1    4    4    0    0  0.23348334168E+02  0.13500920958E+02 -0.53848888631E+01  0.27503028982E+02  0.00000000000E+00 0.  1.
</event>
<event>
 8    1  0.2472977E-006  0.9118800E+02  0.7816164E-02  0.1184000E+00
        -11   -1    0    0    0    0  0.00000000000E+00  0.00000000000E+00  0.45593999997E+02  0.45594000000E+02  0.51100000000E-03 0. -1.
         11   -1    0    0    0    0 -0.00000000000E+00 -0.00000000000E+00 -0.45593999997E+02  0.45594000000E+02  0.51100000000E-03 0.  1.
         23    2    1    2    0    0  0.00000000000E+00 -0.35527136788E-14  0.00000000000E+00  0.91188000000E+02  0.91188000000E+02 0.  0.
    9900012    2    3    3    0    0 -0.96934023925E+01  0.31621546842E+02  0.16183188068E+02  0.54367084060E+02  0.39999999732E+02 0.  0.
        -12    1    3    3    0    0  0.96934023925E+01 -0.31621546842E+02 -0.16183188068E+02  0.36820915940E+02  0.00000000000E+00 0.  1.
         11    1    4    4    0    0 -0.14422438969E+02  0.90436725235E+01  0.68172885367E+01  0.18337671111E+02  0.51100000000E-03 0. -1.
        -11    1    4    4    0    0 -0.62267254830E+01  0.48554174141E+01  0.12674588304E+02  0.14932929298E+02  0.51100000000E-03 0.  1.
        -12    1    4    4    0    0  0.10955762060E+02  0.17722456904E+02 -0.33086887721E+01  0.21096483650E+02  0.00000000000E+00 0.  1.
</event>
<event>
 8    1  0.2472977E-006  0.9118800E+02  0.7816164E-02  0.1184000E+00
        -11   -1    0    0    0    0  0.00000000000E+00  0.00000000000E+00  0.45593999997E+02  0.45594000000E+02  0.51100000000E-03 0.  1.
         11   -1    0    0    0    0 -0.00000000000E+00 -0.00000000000E+00 -0.45593999997E+02  0.45594000000E+02  0.51100000000E-03 0. -1.
         23    2    1    2    0    0 -0.35527136788E-14 -0.66613381478E-15 -0.35527136788E-14  0.91188000000E+02  0.91188000000E+02 0.  0.
    9900012    2    3    3    0    0 -0.31820617968E+02  0.15482151744E+01 -0.18461611822E+02  0.54367084623E+02  0.40000001015E+02 0.  0.
        -12    1    3    3    0    0  0.31820617968E+02 -0.15482151744E+01  0.18461611822E+02  0.36820915377E+02  0.00000000000E+00 0.  1.
         11    1    4    4    0    0 -0.99678494768E+00  0.61762700263E+01 -0.50683178540E+01  0.80515674126E+01  0.51100000000E-03 0. -1.
        -11    1    4    4    0    0  0.10467677377E+01 -0.46155537577E+01  0.70211569404E+01  0.84673315886E+01  0.51100000000E-03 0.  1.
         12    1    4    4    0    0 -0.31870600758E+02 -0.12501094204E-01 -0.20414450909E+02  0.37848185622E+02  0.00000000000E+00 0. -1.
</event>
<event>
 8    1  0.2472977E-006  0.9118800E+02  0.7816164E-02  0.1184000E+00
        -11   -1    0    0    0    0  0.00000000000E+00  0.00000000000E+00  0.45593999997E+02  0.45594000000E+02  0.51100000000E-03 0. -1.
         11   -1    0    0    0    0 -0.00000000000E+00 -0.00000000000E+00 -0.45593999997E+02  0.45594000000E+02  0.51100000000E-03 0.  1.
         23    2    1    2    0    0  0.17763568394E-14  0.88817841970E-15 -0.71054273576E-14  0.91188000000E+02  0.91188000000E+02 0.  0.
    9900012    2    3    3    0    0  0.14335224933E+02  0.66310505050E+01 -0.33261253192E+02  0.54367075669E+02  0.39999980603E+02 0.  0.
         12    1    3    3    0    0 -0.14335224933E+02 -0.66310505050E+01  0.33261253192E+02  0.36820924331E+02  0.00000000000E+00 0. -1.
         11    1    4    4    0    0  0.56465185296E+00  0.50814174310E+01 -0.29965764179E+01  0.59261374700E+01  0.51100000000E-03 0. -1.
        -11    1    4    4    0    0  0.23451546256E+02  0.94902946185E+01 -0.19961688343E+02  0.32225916829E+02  0.51100000000E-03 0.  1.
         12    1    4    4    0    0 -0.96809731764E+01 -0.79406615445E+01 -0.10302988432E+02  0.16215021370E+02  0.00000000000E+00 0. -1.
</event>
<event>
 8    1  0.2472977E-006  0.9118800E+02  0.7816164E-02  0.1184000E+00
        -11   -1    0    0    0    0  0.00000000000E+00  0.00000000000E+00  0.45593999997E+02  0.45594000000E+02  0.51100000000E-03 0.  1.
         11   -1    0    0    0    0 -0.00000000000E+00 -0.00000000000E+00 -0.45593999997E+02  0.45594000000E+02  0.51100000000E-03 0. -1.
         23    2    1    2    0    0  0.00000000000E+00  0.00000000000E+00  0.00000000000E+00  0.91188000000E+02  0.91188000000E+02 0.  0.
    9900012    2    3    3    0    0  0.24098991714E+02  0.26901403939E+02 -0.71647053665E+01  0.54367082867E+02  0.39999997012E+02 0.  0.
        -12    1    3    3    0    0 -0.24098991714E+02 -0.26901403939E+02  0.71647053665E+01  0.36820917133E+02  0.00000000000E+00 0.  1.
         11    1    4    4    0    0  0.19171252887E+02  0.22571688793E+02 -0.58035600998E+01  0.30177796181E+02  0.51100000000E-03 0. -1.
        -11    1    4    4    0    0  0.33766172432E+01  0.95929526521E+01  0.82678555621E+01  0.13106628874E+02  0.51100000000E-03 0.  1.
         12    1    4    4    0    0  0.15511215842E+01 -0.52632375065E+01 -0.96290008289E+01  0.11082657812E+02  0.00000000000E+00 0. -1.
</event>
<event>
 8    1  0.2472977E-006  0.9118800E+02  0.7816164E-02  0.1184000E+00
        -11   -1    0    0    0    0  0.00000000000E+00  0.00000000000E+00  0.45593999997E+02  0.45594000000E+02  0.51100000000E-03 0.  1.
         11   -1    0    0    0    0 -0.00000000000E+00 -0.00000000000E+00 -0.45593999997E+02  0.45594000000E+02  0.51100000000E-03 0. -1.
         23    2    1    2    0    0 -0.13322676296E-14  0.00000000000E+00 -0.35527136788E-14  0.91188000000E+02  0.91188000000E+02 0.  0.
    9900012    2    3    3    0    0  0.14929404294E+01  0.29687147188E+02 -0.21730706488E+02  0.54367093117E+02  0.40000020378E+02 0.  0.
         12    1    3    3    0    0 -0.14929404294E+01 -0.29687147188E+02  0.21730706488E+02  0.36820906883E+02  0.00000000000E+00 0. -1.
         11    1    4    4    0    0 -0.12954651187E+02  0.24536884345E+02 -0.12638403318E+02  0.30489521469E+02  0.51100000000E-03 0.  1.
        -11    1    4    4    0    0 -0.21969272806E+01 -0.11430456858E+01 -0.50575674911E+01  0.56313437210E+01  0.51100000000E-03 0. -1.
        -12    1    4    4    0    0  0.16644518897E+02  0.62933085283E+01 -0.40347356782E+01  0.18246227926E+02  0.00000000000E+00 0.  1.
</event>
<event>
 8    1  0.2472977E-006  0.9118800E+02  0.7816164E-02  0.1184000E+00
        -11   -1    0    0    0    0  0.00000000000E+00  0.00000000000E+00  0.45593999997E+02  0.45594000000E+02  0.51100000000E-03 0.  1.
         11   -1    0    0    0    0 -0.00000000000E+00 -0.00000000000E+00 -0.45593999997E+02  0.45594000000E+02  0.51100000000E-03 0. -1.
         23    2    1    2    0    0  0.00000000000E+00 -0.17763568394E-14  0.00000000000E+00  0.91188000000E+02  0.91188000000E+02 0.  0.
    9900012    2    3    3    0    0  0.13597336372E+02  0.37207729452E+01 -0.34015483227E+02  0.54367016759E+02  0.39999846304E+02 0.  0.
        -12    1    3    3    0    0 -0.13597336372E+02 -0.37207729452E+01  0.34015483227E+02  0.36820983241E+02  0.00000000000E+00 0.  1.
         11    1    4    4    0    0  0.14322904805E+01 -0.71760517691E+00 -0.10057340313E+01  0.18915375791E+01  0.51100000000E-03 0. -1.
        -11    1    4    4    0    0  0.18892117569E+02  0.16864832944E+02 -0.14477799230E+02  0.29170899323E+02  0.51100000000E-03 0.  1.
        -12    1    4    4    0    0 -0.67270716780E+01 -0.12426454822E+02 -0.18531949965E+02  0.23304579857E+02  0.00000000000E+00 0.  1.
</event>
<event>
 8    1  0.2472977E-006  0.9118800E+02  0.7816164E-02  0.1184000E+00
        -11   -1    0    0    0    0  0.00000000000E+00  0.00000000000E+00  0.45593999997E+02  0.45594000000E+02  0.51100000000E-03 0. -1.
         11   -1    0    0    0    0 -0.00000000000E+00 -0.00000000000E+00 -0.45593999997E+02  0.45594000000E+02  0.51100000000E-03 0.  1.
         23    2    1    2    0    0  0.00000000000E+00 -0.88817841970E-15 -0.35527136788E-14  0.91188000000E+02  0.91188000000E+02 0.  0.
    9900012    2    3    3    0    0 -0.28041835073E+02 -0.32620778546E+01 -0.23638868991E+02  0.54367057680E+02  0.39999939593E+02 0.  0.
         12    1    3    3    0    0  0.28041835073E+02  0.32620778546E+01  0.23638868991E+02  0.36820942320E+02  0.00000000000E+00 0. -1.
         11    1    4    4    0    0 -0.17292613630E+02  0.22310607120E+01 -0.25722520471E+02  0.31075073253E+02  0.51100000000E-03 0. -1.
        -11    1    4    4    0    0 -0.95074342217E+01 -0.11168861686E+02 -0.36652644393E+01  0.15118496636E+02  0.51100000000E-03 0.  1.
         12    1    4    4    0    0 -0.12417872213E+01  0.56757231199E+01  0.57489159193E+01  0.81734877918E+01  0.00000000000E+00 0. -1.
</event>
<event>
 8    1  0.2472977E-006  0.9118800E+02  0.7816164E-02  0.1184000E+00
        -11   -1    0    0    0    0  0.00000000000E+00  0.00000000000E+00  0.45593999997E+02  0.45594000000E+02  0.51100000000E-03 0.  1.
         11   -1    0    0    0    0 -0.00000000000E+00 -0.00000000000E+00 -0.45593999997E+02  0.45594000000E+02  0.51100000000E-03 0. -1.
         23    2    1    2    0    0  0.00000000000E+00 -0.88817841970E-15  0.00000000000E+00  0.91188000000E+02  0.91188000000E+02 0.  0.
    9900012    2    3    3    0    0 -0.26361551019E+02  0.44870779535E+01  0.25312312986E+02  0.54367103360E+02  0.40000043730E+02 0.  0.
         12    1    3    3    0    0  0.26361551019E+02 -0.44870779535E+01 -0.25312312986E+02  0.36820896640E+02  0.00000000000E+00 0. -1.
         11    1    4    4    0    0 -0.66582906018E+01 -0.48112764688E+00 -0.11755127931E+01  0.67783588086E+01  0.51100000000E-03 0. -1.
        -11    1    4    4    0    0 -0.28056173913E+02  0.28955202828E+00  0.12688301935E+02  0.30793274286E+02  0.51100000000E-03 0.  1.
         12    1    4    4    0    0  0.83529134955E+01  0.46786535721E+01  0.13799523844E+02  0.16795470265E+02  0.00000000000E+00 0. -1.
</event>
<event>
 8    1  0.2472977E-006  0.9118800E+02  0.7816164E-02  0.1184000E+00
        -11   -1    0    0    0    0  0.00000000000E+00  0.00000000000E+00  0.45593999997E+02  0.45594000000E+02  0.51100000000E-03 0. -1.
         11   -1    0    0    0    0 -0.00000000000E+00 -0.00000000000E+00 -0.45593999997E+02  0.45594000000E+02  0.51100000000E-03 0.  1.
         23    2    1    2    0    0 -0.35527136788E-14  0.00000000000E+00  0.00000000000E+00  0.91188000000E+02  0.91188000000E+02 0.  0.
    9900012    2    3    3    0    0 -0.18431863410E+02 -0.14703811727E+02 -0.28281509032E+02  0.54367089892E+02  0.40000013026E+02 0.  0.
         12    1    3    3    0    0  0.18431863410E+02  0.14703811727E+02  0.28281509032E+02  0.36820910108E+02  0.00000000000E+00 0. -1.
         11    1    4    4    0    0  0.19684957909E+01 -0.98339554332E+01  0.42877172582E+01  0.10907161624E+02  0.51100000000E-03 0. -1.
        -11    1    4    4    0    0 -0.22108951671E+02 -0.89599087636E+01 -0.30027950976E+02  0.38350535187E+02  0.51100000000E-03 0.  1.
         12    1    4    4    0    0  0.17085924705E+01  0.40900524697E+01 -0.25412753148E+01  0.51093930814E+01  0.00000000000E+00 0. -1.
</event>
<event>
 8    1  0.2472977E-006  0.9118800E+02  0.7816164E-02  0.1184000E+00
        -11   -1    0    0    0    0  0.00000000000E+00  0.00000000000E+00  0.45593999997E+02  0.45594000000E+02  0.51100000000E-03 0. -1.
         11   -1    0    0    0    0 -0.00000000000E+00 -0.00000000000E+00 -0.45593999997E+02  0.45594000000E+02  0.51100000000E-03 0.  1.
         23    2    1    2    0    0 -0.35527136788E-14  0.00000000000E+00 -0.17763568394E-14  0.91188000000E+02  0.91188000000E+02 0.  0.
    9900012    2    3    3    0    0 -0.17975303183E+02 -0.28097993638E+02 -0.15593943666E+02  0.54367084068E+02  0.39999999749E+02 0.  0.
         12    1    3    3    0    0  0.17975303183E+02  0.28097993638E+02  0.15593943666E+02  0.36820915932E+02  0.00000000000E+00 0. -1.
         11    1    4    4    0    0  0.12367924738E+01  0.27830825469E+01 -0.36890893957E+00  0.30677839156E+01  0.51100000000E-03 0. -1.
        -11    1    4    4    0    0 -0.16663318152E+02  0.12323536441E+01 -0.39563148528E+01  0.17170826853E+02  0.51100000000E-03 0.  1.
        -12    1    4    4    0    0 -0.25487775056E+01 -0.32113429829E+02 -0.11268719874E+02  0.34128473300E+02  0.00000000000E+00 0.  1.
</event>
<event>
 8    1  0.2472977E-006  0.9118800E+02  0.7816164E-02  0.1184000E+00
        -11   -1    0    0    0    0  0.00000000000E+00  0.00000000000E+00  0.45593999997E+02  0.45594000000E+02  0.51100000000E-03 0. -1.
         11   -1    0    0    0    0 -0.00000000000E+00 -0.00000000000E+00 -0.45593999997E+02  0.45594000000E+02  0.51100000000E-03 0.  1.
         23    2    1    2    0    0  0.00000000000E+00  0.00000000000E+00  0.00000000000E+00  0.91188000000E+02  0.91188000000E+02 0.  0.
    9900012    2    3    3    0    0  0.50429794622E+01 -0.86010508829E+01 -0.35445314565E+02  0.54367081452E+02  0.39999993786E+02 0.  0.
         12    1    3    3    0    0 -0.50429794622E+01  0.86010508829E+01  0.35445314565E+02  0.36820918548E+02  0.00000000000E+00 0. -1.
         11    1    4    4    0    0  0.19809317210E+02 -0.61331682250E+01 -0.14487144472E+02  0.25296287396E+02  0.51100000000E-03 0. -1.
        -11    1    4    4    0    0 -0.12278791785E+02 -0.38586565485E+01 -0.22432101524E+02  0.25862272466E+02  0.51100000000E-03 0.  1.
         12    1    4    4    0    0 -0.24875459624E+01  0.13907738906E+01  0.14739314313E+01  0.32085215900E+01  0.00000000000E+00 0. -1.
</event>
<event>
 8    1  0.2472977E-006  0.9118800E+02  0.7816164E-02  0.1184000E+00
        -11   -1    0    0    0    0  0.00000000000E+00  0.00000000000E+00  0.45593999997E+02  0.45594000000E+02  0.51100000000E-03 0. -1.
         11   -1    0    0    0    0 -0.00000000000E+00 -0.00000000000E+00 -0.45593999997E+02  0.45594000000E+02  0.51100000000E-03 0.  1.
         23    2    1    2    0    0  0.00000000000E+00  0.00000000000E+00  0.00000000000E+00  0.91188000000E+02  0.91188000000E+02 0.  0.
    9900012    2    3    3    0    0  0.13366263470E+02  0.33221221227E+02 -0.85717172452E+01  0.54367070144E+02  0.39999968007E+02 0.  0.
         12    1    3    3    0    0 -0.13366263470E+02 -0.33221221227E+02  0.85717172452E+01  0.36820929856E+02  0.00000000000E+00 0. -1.
         11    1    4    4    0    0  0.19398705603E+02  0.14719796548E+02 -0.10632346815E+02  0.26571206005E+02  0.51100000000E-03 0. -1.
        -11    1    4    4    0    0 -0.10082828234E+02  0.77651625059E+01 -0.56984309977E+01  0.13943933808E+02  0.51100000000E-03 0.  1.
         12    1    4    4    0    0  0.40503861015E+01  0.10736262172E+02  0.77590605673E+01  0.13851930331E+02  0.00000000000E+00 0. -1.
</event>
<event>
 8    1  0.2472977E-006  0.9118800E+02  0.7816164E-02  0.1184000E+00
        -11   -1    0    0    0    0  0.00000000000E+00  0.00000000000E+00  0.45593999997E+02  0.45594000000E+02  0.51100000000E-03 0.  1.
         11   -1    0    0    0    0 -0.00000000000E+00 -0.00000000000E+00 -0.45593999997E+02  0.45594000000E+02  0.51100000000E-03 0. -1.
         23    2    1    2    0    0 -0.71054273576E-14  0.00000000000E+00 -0.35527136788E-14  0.91188000000E+02  0.91188000000E+02 0.  0.
    9900012    2    3    3    0    0  0.32615347282E+02  0.11801769459E+02  0.12358739661E+02  0.54367067275E+02  0.39999961468E+02 0.  0.
         12    1    3    3    0    0 -0.32615347282E+02 -0.11801769459E+02 -0.12358739661E+02  0.36820932725E+02  0.00000000000E+00 0. -1.
         11    1    4    4    0    0  0.10315347217E+02  0.13776888228E+02 -0.72548678420E+01  0.18677316325E+02  0.51100000000E-03 0. -1.
        -11    1    4    4    0    0  0.48852841368E+01  0.73829251544E+01  0.17070189845E+01  0.90159580194E+01  0.51100000000E-03 0.  1.
        -12    1    4    4    0    0  0.17414715929E+02 -0.93580439235E+01  0.17906588519E+02  0.26673792931E+02  0.00000000000E+00 0.  1.
</event>
<event>
 8    1  0.2472977E-006  0.9118800E+02  0.7816164E-02  0.1184000E+00
        -11   -1    0    0    0    0  0.00000000000E+00  0.00000000000E+00  0.45593999997E+02  0.45594000000E+02  0.51100000000E-03 0. -1.
         11   -1    0    0    0    0 -0.00000000000E+00 -0.00000000000E+00 -0.45593999997E+02  0.45594000000E+02  0.51100000000E-03 0.  1.
         23    2    1    2    0    0  0.17763568394E-14 -0.71054273576E-14  0.71054273576E-14  0.91188000000E+02  0.91188000000E+02 0.  0.
    9900012    2    3    3    0    0  0.11306946449E+02 -0.24932351710E+02  0.24623380599E+02  0.54367081056E+02  0.39999992882E+02 0.  0.
        -12    1    3    3    0    0 -0.11306946449E+02  0.24932351710E+02 -0.24623380599E+02  0.36820918944E+02  0.00000000000E+00 0.  1.
         11    1    4    4    0    0  0.79260844743E+01 -0.62228505614E+01 -0.15750088159E+01  0.10199379257E+02  0.51100000000E-03 0. -1.
        -11    1    4    4    0    0 -0.73209009210E+01 -0.16522166346E+02  0.27229411266E+01  0.18275447456E+02  0.51100000000E-03 0.  1.
         12    1    4    4    0    0  0.10701762896E+02 -0.21873348026E+01  0.23475448288E+02  0.25892254343E+02  0.00000000000E+00 0. -1.
</event>
<event>
 8    1  0.2472977E-006  0.9118800E+02  0.7816164E-02  0.1184000E+00
        -11   -1    0    0    0    0  0.00000000000E+00  0.00000000000E+00  0.45593999997E+02  0.45594000000E+02  0.51100000000E-03 0.  1.
         11   -1    0    0    0    0 -0.00000000000E+00 -0.00000000000E+00 -0.45593999997E+02  0.45594000000E+02  0.51100000000E-03 0. -1.
         23    2    1    2    0    0  0.00000000000E+00  0.00000000000E+00 -0.35527136788E-14  0.91188000000E+02  0.91188000000E+02 0.  0.
    9900012    2    3    3    0    0 -0.11004014617E+02 -0.18541883408E+02  0.29847774557E+02  0.54367089853E+02  0.40000012939E+02 0.  0.
         12    1    3    3    0    0  0.11004014617E+02  0.18541883408E+02 -0.29847774557E+02  0.36820910147E+02  0.00000000000E+00 0. -1.
         11    1    4    4    0    0 -0.10789499829E+02  0.85445967497E+01  0.20325822142E+02  0.24547148229E+02  0.51100000000E-03 0. -1.
        -11    1    4    4    0    0  0.27048158090E+01 -0.19383349651E+02  0.90675105475E+01  0.21569655075E+02  0.51100000000E-03 0.  1.
        -12    1    4    4    0    0 -0.29193305971E+01 -0.77031305069E+01  0.45444186776E+00  0.82502865497E+01  0.00000000000E+00 0.  1.
</event>
<event>
 8    1  0.2472977E-006  0.9118800E+02  0.7816164E-02  0.1184000E+00
        -11   -1    0    0    0    0  0.00000000000E+00  0.00000000000E+00  0.45593999997E+02  0.45594000000E+02  0.51100000000E-03 0.  1.
         11   -1    0    0    0    0 -0.00000000000E+00 -0.00000000000E+00 -0.45593999997E+02  0.45594000000E+02  0.51100000000E-03 0. -1.
         23    2    1    2    0    0  0.00000000000E+00  0.71054273576E-14  0.00000000000E+00  0.91188000000E+02  0.91188000000E+02 0.  0.
    9900012    2    3    3    0    0  0.15227536068E+02  0.32321542948E+02  0.89004725621E+01  0.54367103690E+02  0.40000044482E+02 0.  0.
        -12    1    3    3    0    0 -0.15227536068E+02 -0.32321542948E+02 -0.89004725621E+01  0.36820896310E+02  0.00000000000E+00 0.  1.
         11    1    4    4    0    0  0.90215672014E+01  0.22030611506E+02  0.14269706710E+02  0.27755378721E+02  0.51100000000E-03 0. -1.
        -11    1    4    4    0    0  0.50006153628E+01  0.17760268953E+02 -0.30730537608E+01  0.18704998448E+02  0.51100000000E-03 0.  1.
        -12    1    4    4    0    0  0.12053535036E+01 -0.74693375102E+01 -0.22961803866E+01  0.79067265209E+01  0.00000000000E+00 0.  1.
</event>
<event>
 8    1  0.2472977E-006  0.9118800E+02  0.7816164E-02  0.1184000E+00
        -11   -1    0    0    0    0  0.00000000000E+00  0.00000000000E+00  0.45593999997E+02  0.45594000000E+02  0.51100000000E-03 0.  1.
         11   -1    0    0    0    0 -0.00000000000E+00 -0.00000000000E+00 -0.45593999997E+02  0.45594000000E+02  0.51100000000E-03 0. -1.
         23    2    1    2    0    0  0.10658141036E-13  0.00000000000E+00  0.00000000000E+00  0.91188000000E+02  0.91188000000E+02 0.  0.
    9900012    2    3    3    0    0 -0.28030197998E+02 -0.12119576661E+02  0.20571912728E+02  0.54367085678E+02  0.40000003420E+02 0.  0.
         12    1    3    3    0    0  0.28030197998E+02  0.12119576661E+02 -0.20571912728E+02  0.36820914322E+02  0.00000000000E+00 0. -1.
         11    1    4    4    0    0  0.52802774821E+01 -0.13173628470E+01  0.14045256284E+02  0.15062735459E+02  0.51100000000E-03 0. -1.
        -11    1    4    4    0    0  0.87843161658E+00  0.99944531848E+00  0.26033422973E+01  0.29236833665E+01  0.51100000000E-03 0.  1.
         12    1    4    4    0    0 -0.34188907096E+02 -0.11801659132E+02  0.39233141461E+01  0.36380666852E+02  0.00000000000E+00 0. -1.
</event>
<event>
 8    1  0.2472977E-006  0.9118800E+02  0.7816164E-02  0.1184000E+00
        -11   -1    0    0    0    0  0.00000000000E+00  0.00000000000E+00  0.45593999997E+02  0.45594000000E+02  0.51100000000E-03 0. -1.
         11   -1    0    0    0    0 -0.00000000000E+00 -0.00000000000E+00 -0.45593999997E+02  0.45594000000E+02  0.51100000000E-03 0.  1.
         23    2    1    2    0    0  0.00000000000E+00  0.35527136788E-14  0.17763568394E-14  0.91188000000E+02  0.91188000000E+02 0.  0.
    9900012    2    3    3    0    0 -0.26082146227E+02 -0.21197253562E+02  0.15039217756E+02  0.54367082289E+02  0.39999995694E+02 0.  0.
        -12    1    3    3    0    0  0.26082146227E+02  0.21197253562E+02 -0.15039217756E+02  0.36820917711E+02  0.00000000000E+00 0.  1.
         11    1    4    4    0    0  0.10654445278E+01 -0.19012989580E+02  0.25972363321E+01  0.19219120210E+02  0.51100000000E-03 0. -1.
        -11    1    4    4    0    0 -0.13130063491E+02 -0.23286742117E+01 -0.36312114573E+01  0.13820527768E+02  0.51100000000E-03 0.  1.
        -12    1    4    4    0    0 -0.14017527264E+02  0.14441022972E+00  0.16073192881E+02  0.21327434311E+02  0.00000000000E+00 0.  1.
</event>
<event>
 8    1  0.2472977E-006  0.9118800E+02  0.7816164E-02  0.1184000E+00
        -11   -1    0    0    0    0  0.00000000000E+00  0.00000000000E+00  0.45593999997E+02  0.45594000000E+02  0.51100000000E-03 0.  1.
         11   -1    0    0    0    0 -0.00000000000E+00 -0.00000000000E+00 -0.45593999997E+02  0.45594000000E+02  0.51100000000E-03 0. -1.
         23    2    1    2    0    0 -0.88817841970E-15  0.00000000000E+00  0.00000000000E+00  0.91188000000E+02  0.91188000000E+02 0.  0.
    9900012    2    3    3    0    0  0.78883139327E+01 -0.30314333395E+02 -0.19354372690E+02  0.54367135696E+02  0.40000117446E+02 0.  0.
        -12    1    3    3    0    0 -0.78883139327E+01  0.30314333395E+02  0.19354372690E+02  0.36820864304E+02  0.00000000000E+00 0.  1.
         11    1    4    4    0    0  0.79024190773E+01 -0.28498803342E+02 -0.17153396595E+02  0.34188726712E+02  0.51100000000E-03 0. -1.
        -11    1    4    4    0    0  0.21232774815E+00  0.78868225715E+01  0.38112757802E+01  0.87620132778E+01  0.51100000000E-03 0.  1.
        -12    1    4    4    0    0 -0.22643289270E+00 -0.97023526242E+01 -0.60122518757E+01  0.11416395706E+02  0.00000000000E+00 0.  1.
</event>
<event>
 8    1  0.2472977E-006  0.9118800E+02  0.7816164E-02  0.1184000E+00
        -11   -1    0    0    0    0  0.00000000000E+00  0.00000000000E+00  0.45593999997E+02  0.45594000000E+02  0.51100000000E-03 0. -1.
         11   -1    0    0    0    0 -0.00000000000E+00 -0.00000000000E+00 -0.45593999997E+02  0.45594000000E+02  0.51100000000E-03 0.  1.
         23    2    1    2    0    0 -0.35527136788E-14 -0.35527136788E-14 -0.17763568394E-14  0.91188000000E+02  0.91188000000E+02 0.  0.
    9900012    2    3    3    0    0 -0.30799520836E+02 -0.16479376633E+02 -0.11644703036E+02  0.54367089545E+02  0.40000012236E+02 0.  0.
         12    1    3    3    0    0  0.30799520836E+02  0.16479376633E+02  0.11644703036E+02  0.36820910455E+02  0.00000000000E+00 0. -1.
         11    1    4    4    0    0 -0.15830771219E+02 -0.23130573470E+02 -0.16778316508E+01  0.28079385067E+02  0.51100000000E-03 0. -1.
        -11    1    4    4    0    0  0.28784025340E+01 -0.28057637486E+01 -0.76210668071E+00  0.40912489797E+01  0.51100000000E-03 0.  1.
        -12    1    4    4    0    0 -0.17847152151E+02  0.94569605858E+01 -0.92047647049E+01  0.22196455499E+02  0.00000000000E+00 0.  1.
</event>
<event>
 8    1  0.2472977E-006  0.9118800E+02  0.7816164E-02  0.1184000E+00
        -11   -1    0    0    0    0  0.00000000000E+00  0.00000000000E+00  0.45593999997E+02  0.45594000000E+02  0.51100000000E-03 0. -1.
         11   -1    0    0    0    0 -0.00000000000E+00 -0.00000000000E+00 -0.45593999997E+02  0.45594000000E+02  0.51100000000E-03 0.  1.
         23    2    1    2    0    0  0.00000000000E+00  0.26645352591E-14  0.00000000000E+00  0.91188000000E+02  0.91188000000E+02 0.  0.
    9900012    2    3    3    0    0 -0.57588371966E+01 -0.52531867161E+01 -0.35986368990E+02  0.54367096567E+02  0.40000028245E+02 0.  0.
         12    1    3    3    0    0  0.57588371966E+01  0.52531867161E+01  0.35986368990E+02  0.36820903433E+02  0.00000000000E+00 0. -1.
         11    1    4    4    0    0 -0.32764616408E+01  0.15118902215E+02 -0.27041932394E+02  0.31154173283E+02  0.51100000000E-03 0. -1.
        -11    1    4    4    0    0 -0.43093997932E+01 -0.16391993035E+02 -0.62147691634E+01  0.18052471250E+02  0.51100000000E-03 0.  1.
         12    1    4    4    0    0  0.18270242373E+01 -0.39800958960E+01 -0.27296674322E+01  0.51604520341E+01  0.00000000000E+00 0. -1.
</event>
<event>
 8    1  0.2472977E-006  0.9118800E+02  0.7816164E-02  0.1184000E+00
        -11   -1    0    0    0    0  0.00000000000E+00  0.00000000000E+00  0.45593999997E+02  0.45594000000E+02  0.51100000000E-03 0. -1.
         11   -1    0    0    0    0 -0.00000000000E+00 -0.00000000000E+00 -0.45593999997E+02  0.45594000000E+02  0.51100000000E-03 0.  1.
         23    2    1    2    0    0 -0.35527136788E-14 -0.44408920985E-15  0.00000000000E+00  0.91188000000E+02  0.91188000000E+02 0.  0.
    9900012    2    3    3    0    0  0.24898065862E+02  0.72319716231E+00 -0.27117217441E+02  0.54367079593E+02  0.39999989549E+02 0.  0.
         12    1    3    3    0    0 -0.24898065862E+02 -0.72319716231E+00  0.27117217441E+02  0.36820920407E+02  0.00000000000E+00 0. -1.
         11    1    4    4    0    0  0.21188171115E+01 -0.13949211474E+02 -0.72774776166E+01  0.15875502115E+02  0.51100000000E-03 0.  1.
        -11    1    4    4    0    0 -0.23110003531E+01 -0.17092572134E+01 -0.77822395749E+00  0.29779045725E+01  0.51100000000E-03 0. -1.
        -12    1    4    4    0    0  0.25090249104E+02  0.16381665849E+02 -0.19061515867E+02  0.35513672906E+02  0.00000000000E+00 0.  1.
</event>
<event>
 8    1  0.2472977E-006  0.9118800E+02  0.7816164E-02  0.1184000E+00
        -11   -1    0    0    0    0  0.00000000000E+00  0.00000000000E+00  0.45593999997E+02  0.45594000000E+02  0.51100000000E-03 0. -1.
         11   -1    0    0    0    0 -0.00000000000E+00 -0.00000000000E+00 -0.45593999997E+02  0.45594000000E+02  0.51100000000E-03 0.  1.
         23    2    1    2    0    0  0.00000000000E+00  0.00000000000E+00  0.88817841970E-15  0.91188000000E+02  0.91188000000E+02 0.  0.
    9900012    2    3    3    0    0 -0.36590150642E+02 -0.34160434993E+01  0.22958771744E+01  0.54367088425E+02  0.40000009683E+02 0.  0.
        -12    1    3    3    0    0  0.36590150642E+02  0.34160434993E+01 -0.22958771744E+01  0.36820911575E+02  0.00000000000E+00 0.  1.
         11    1    4    4    0    0 -0.30826660836E+02 -0.10283367591E+02  0.83507751114E+01  0.33552438250E+02  0.51100000000E-03 0. -1.
        -11    1    4    4    0    0 -0.80127012840E+01 -0.34879351883E+01 -0.27307954004E+00  0.87432057302E+01  0.51100000000E-03 0.  1.
        -12    1    4    4    0    0  0.22492114776E+01  0.10355259280E+02 -0.57818183969E+01  0.12071444445E+02  0.00000000000E+00 0.  1.
</event>
<event>
 8    1  0.2472977E-006  0.9118800E+02  0.7816164E-02  0.1184000E+00
        -11   -1    0    0    0    0  0.00000000000E+00  0.00000000000E+00  0.45593999997E+02  0.45594000000E+02  0.51100000000E-03 0. -1.
         11   -1    0    0    0    0 -0.00000000000E+00 -0.00000000000E+00 -0.45593999997E+02  0.45594000000E+02  0.51100000000E-03 0.  1.
         23    2    1    2    0    0  0.11102230246E-14  0.35527136788E-14  0.71054273576E-14  0.91188000000E+02  0.91188000000E+02 0.  0.
    9900012    2    3    3    0    0  0.17898635344E+01  0.12282726443E+02  0.34665707098E+02  0.54367078923E+02  0.39999988020E+02 0.  0.
        -12    1    3    3    0    0 -0.17898635344E+01 -0.12282726443E+02 -0.34665707098E+02  0.36820921077E+02  0.00000000000E+00 0.  1.
         11    1    4    4    0    0 -0.48897020247E+01 -0.34799284955E+01  0.28188731321E+02  0.28820542361E+02  0.51100000000E-03 0. -1.
        -11    1    4    4    0    0 -0.36555190760E+01 -0.16801002824E+01  0.28983526442E+01  0.49584276727E+01  0.51100000000E-03 0.  1.
         12    1    4    4    0    0  0.10335084635E+02  0.17442755221E+02  0.35786231329E+01  0.20588108889E+02  0.00000000000E+00 0. -1.
</event>
<event>
 8    1  0.2472977E-006  0.9118800E+02  0.7816164E-02  0.1184000E+00
        -11   -1    0    0    0    0  0.00000000000E+00  0.00000000000E+00  0.45593999997E+02  0.45594000000E+02  0.51100000000E-03 0.  1.
         11   -1    0    0    0    0 -0.00000000000E+00 -0.00000000000E+00 -0.45593999997E+02  0.45594000000E+02  0.51100000000E-03 0. -1.
         23    2    1    2    0    0  0.35527136788E-14  0.35527136788E-14  0.00000000000E+00  0.91188000000E+02  0.91188000000E+02 0.  0.
    9900012    2    3    3    0    0  0.21714254927E+02 -0.20455753734E+02 -0.21583182027E+02  0.54367075592E+02  0.39999980426E+02 0.  0.
        -12    1    3    3    0    0 -0.21714254927E+02  0.20455753734E+02  0.21583182027E+02  0.36820924408E+02  0.00000000000E+00 0.  1.
         11    1    4    4    0    0  0.21267685417E+02  0.18544885512E+01 -0.10235407366E+01  0.21372908241E+02  0.51100000000E-03 0. -1.
        -11    1    4    4    0    0  0.37392227083E+01 -0.99041787460E+01 -0.16364746106E+02  0.19490496619E+02  0.51100000000E-03 0.  1.
         12    1    4    4    0    0 -0.32926531980E+01 -0.12406063539E+02 -0.41948951850E+01  0.13503670732E+02  0.00000000000E+00 0. -1.
</event>
<event>
 8    1  0.2472977E-006  0.9118800E+02  0.7816164E-02  0.1184000E+00
        -11   -1    0    0    0    0  0.00000000000E+00  0.00000000000E+00  0.45593999997E+02  0.45594000000E+02  0.51100000000E-03 0.  1.
         11   -1    0    0    0    0 -0.00000000000E+00 -0.00000000000E+00 -0.45593999997E+02  0.45594000000E+02  0.51100000000E-03 0. -1.
         23    2    1    2    0    0 -0.17763568394E-14  0.00000000000E+00  0.00000000000E+00  0.91188000000E+02  0.91188000000E+02 0.  0.
    9900012    2    3    3    0    0  0.10965993154E+02  0.51760887694E+01  0.34766861001E+02  0.54367088487E+02  0.40000009824E+02 0.  0.
         12    1    3    3    0    0 -0.10965993154E+02 -0.51760887694E+01 -0.34766861001E+02  0.36820911513E+02  0.00000000000E+00 0. -1.
         11    1    4    4    0    0 -0.81569037736E+00  0.34433224501E+01 -0.55178921637E+01  0.65550708980E+01  0.51100000000E-03 0. -1.
        -11    1    4    4    0    0 -0.30519905491E+01 -0.70886411125E+01  0.74976090082E+01  0.10760000940E+02  0.51100000000E-03 0.  1.
         12    1    4    4    0    0  0.14833674080E+02  0.88214074318E+01  0.32787144156E+02  0.37052016649E+02  0.00000000000E+00 0. -1.
</event>
<event>
 8    1  0.2472977E-006  0.9118800E+02  0.7816164E-02  0.1184000E+00
        -11   -1    0    0    0    0  0.00000000000E+00  0.00000000000E+00  0.45593999997E+02  0.45594000000E+02  0.51100000000E-03 0.  1.
         11   -1    0    0    0    0 -0.00000000000E+00 -0.00000000000E+00 -0.45593999997E+02  0.45594000000E+02  0.51100000000E-03 0. -1.
         23    2    1    2    0    0  0.00000000000E+00  0.35527136788E-14 -0.17763568394E-14  0.91188000000E+02  0.91188000000E+02 0.  0.
    9900012    2    3    3    0    0 -0.16052625276E+02 -0.30892411370E+02  0.11989656721E+02  0.54367085742E+02  0.40000003567E+02 0.  0.
         12    1    3    3    0    0  0.16052625276E+02  0.30892411370E+02 -0.11989656721E+02  0.36820914258E+02  0.00000000000E+00 0. -1.
         11    1    4    4    0    0 -0.17371163758E+02 -0.12316485205E+02 -0.85378870515E+01  0.22942289634E+02  0.51100000000E-03 0. -1.
        -11    1    4    4    0    0  0.56711994758E+01 -0.58432111596E+01  0.17585055963E+01  0.83305439404E+01  0.51100000000E-03 0.  1.
        -12    1    4    4    0    0 -0.43526609943E+01 -0.12732715005E+02  0.18769038176E+02  0.23094252167E+02  0.00000000000E+00 0.  1.
</event>
<event>
 8    1  0.2472977E-006  0.9118800E+02  0.7816164E-02  0.1184000E+00
        -11   -1    0    0    0    0  0.00000000000E+00  0.00000000000E+00  0.45593999997E+02  0.45594000000E+02  0.51100000000E-03 0.  1.
         11   -1    0    0    0    0 -0.00000000000E+00 -0.00000000000E+00 -0.45593999997E+02  0.45594000000E+02  0.51100000000E-03 0. -1.
         23    2    1    2    0    0 -0.88817841970E-15  0.44408920985E-15  0.00000000000E+00  0.91188000000E+02  0.91188000000E+02 0.  0.
    9900012    2    3    3    0    0 -0.68894805250E+01 -0.36597814770E+01 -0.35985011576E+02  0.54367082026E+02  0.39999995094E+02 0.  0.
        -12    1    3    3    0    0  0.68894805250E+01  0.36597814770E+01  0.35985011576E+02  0.36820917974E+02  0.00000000000E+00 0.  1.
         11    1    4    4    0    0  0.20188126631E+01 -0.99523935322E+01 -0.52623811201E+01  0.11437587023E+02  0.51100000000E-03 0. -1.
        -11    1    4    4    0    0 -0.11202241295E+02  0.28472929212E+01  0.36825881375E+00  0.11564294264E+02  0.51100000000E-03 0.  1.
        -12    1    4    4    0    0  0.22939481066E+01  0.34453191340E+01 -0.31090889269E+02  0.31365200739E+02  0.00000000000E+00 0.  1.
</event>
<event>
 8    1  0.2472977E-006  0.9118800E+02  0.7816164E-02  0.1184000E+00
        -11   -1    0    0    0    0  0.00000000000E+00  0.00000000000E+00  0.45593999997E+02  0.45594000000E+02  0.51100000000E-03 0. -1.
         11   -1    0    0    0    0 -0.00000000000E+00 -0.00000000000E+00 -0.45593999997E+02  0.45594000000E+02  0.51100000000E-03 0.  1.
         23    2    1    2    0    0  0.35527136788E-14  0.00000000000E+00  0.35527136788E-14  0.91188000000E+02  0.91188000000E+02 0.  0.
    9900012    2    3    3    0    0 -0.21075294059E+02 -0.24668518533E+02  0.17409084134E+02  0.54367081534E+02  0.39999993974E+02 0.  0.
        -12    1    3    3    0    0  0.21075294059E+02  0.24668518533E+02 -0.17409084134E+02  0.36820918466E+02  0.00000000000E+00 0.  1.
         11    1    4    4    0    0 -0.29081740410E+01 -0.14541401864E+02  0.21677013924E+02  0.26264096736E+02  0.51100000000E-03 0.  1.
        -11    1    4    4    0    0  0.31460880907E+01 -0.48889035631E+01 -0.50913664182E+00  0.58359633913E+01  0.51100000000E-03 0. -1.
         12    1    4    4    0    0 -0.21313208109E+02 -0.52382131052E+01 -0.37587931484E+01  0.22267021407E+02  0.00000000000E+00 0. -1.
</event>
<event>
 8    1  0.2472977E-006  0.9118800E+02  0.7816164E-02  0.1184000E+00
        -11   -1    0    0    0    0  0.00000000000E+00  0.00000000000E+00  0.45593999997E+02  0.45594000000E+02  0.51100000000E-03 0.  1.
         11   -1    0    0    0    0 -0.00000000000E+00 -0.00000000000E+00 -0.45593999997E+02  0.45594000000E+02  0.51100000000E-03 0. -1.
         23    2    1    2    0    0  0.00000000000E+00  0.33306690739E-15  0.00000000000E+00  0.91188000000E+02  0.91188000000E+02 0.  0.
    9900012    2    3    3    0    0 -0.14093349105E+02 -0.46576992224E+00  0.34013824291E+02  0.54367086465E+02  0.40000005214E+02 0.  0.
         12    1    3    3    0    0  0.14093349105E+02  0.46576992224E+00 -0.34013824291E+02  0.36820913535E+02  0.00000000000E+00 0. -1.
         11    1    4    4    0    0  0.63722844385E+00  0.20877296720E+01  0.48299422158E+01  0.53002846473E+01  0.51100000000E-03 0. -1.
        -11    1    4    4    0    0  0.17246604486E+00 -0.14808233831E+02  0.91045808977E+00  0.14837198790E+02  0.51100000000E-03 0.  1.
        -12    1    4    4    0    0 -0.14903043594E+02  0.12254734237E+02  0.28273423986E+02  0.34229603028E+02  0.00000000000E+00 0.  1.
</event>
<event>
 8    1  0.2472977E-006  0.9118800E+02  0.7816164E-02  0.1184000E+00
        -11   -1    0    0    0    0  0.00000000000E+00  0.00000000000E+00  0.45593999997E+02  0.45594000000E+02  0.51100000000E-03 0.  1.
         11   -1    0    0    0    0 -0.00000000000E+00 -0.00000000000E+00 -0.45593999997E+02  0.45594000000E+02  0.51100000000E-03 0. -1.
         23    2    1    2    0    0  0.17763568394E-14 -0.17763568394E-14  0.00000000000E+00  0.91188000000E+02  0.91188000000E+02 0.  0.
    9900012    2    3    3    0    0  0.12842505535E+02 -0.59595950786E+01 -0.33990202150E+02  0.54367074372E+02  0.39999977646E+02 0.  0.
        -12    1    3    3    0    0 -0.12842505535E+02  0.59595950786E+01  0.33990202150E+02  0.36820925628E+02  0.00000000000E+00 0.  1.
         11    1    4    4    0    0 -0.31765472677E+01  0.35288554547E+01 -0.19233158326E+02  0.19810543981E+02  0.51100000000E-03 0. -1.
        -11    1    4    4    0    0  0.85577717384E+01  0.81874625480E+01 -0.36790339378E+01  0.12401826119E+02  0.51100000000E-03 0.  1.
         12    1    4    4    0    0  0.74612810641E+01 -0.17675913081E+02 -0.11078009886E+02  0.22154704273E+02  0.00000000000E+00 0. -1.
</event>
<event>
 8    1  0.2472977E-006  0.9118800E+02  0.7816164E-02  0.1184000E+00
        -11   -1    0    0    0    0  0.00000000000E+00  0.00000000000E+00  0.45593999997E+02  0.45594000000E+02  0.51100000000E-03 0. -1.
         11   -1    0    0    0    0 -0.00000000000E+00 -0.00000000000E+00 -0.45593999997E+02  0.45594000000E+02  0.51100000000E-03 0.  1.
         23    2    1    2    0    0 -0.53290705182E-14 -0.35527136788E-14  0.35527136788E-14  0.91188000000E+02  0.91188000000E+02 0.  0.
    9900012    2    3    3    0    0 -0.87877302653E+01 -0.19633545807E+02  0.29884360054E+02  0.54367145854E+02  0.40000140603E+02 0.  0.
        -12    1    3    3    0    0  0.87877302653E+01  0.19633545807E+02 -0.29884360054E+02  0.36820854146E+02  0.00000000000E+00 0.  1.
         11    1    4    4    0    0  0.66060529077E+00 -0.96557020408E+01  0.34584527804E+01  0.10277639668E+02  0.51100000000E-03 0. -1.
        -11    1    4    4    0    0  0.77769502876E+01  0.65913305228E+01  0.30093560073E+01  0.10629337594E+02  0.51100000000E-03 0.  1.
        -12    1    4    4    0    0 -0.17225285844E+02 -0.16569174290E+02  0.23416551266E+02  0.33460168593E+02  0.00000000000E+00 0.  1.
</event>
<event>
 8    1  0.2472977E-006  0.9118800E+02  0.7816164E-02  0.1184000E+00
        -11   -1    0    0    0    0  0.00000000000E+00  0.00000000000E+00  0.45593999997E+02  0.45594000000E+02  0.51100000000E-03 0.  1.
         11   -1    0    0    0    0 -0.00000000000E+00 -0.00000000000E+00 -0.45593999997E+02  0.45594000000E+02  0.51100000000E-03 0. -1.
         23    2    1    2    0    0  0.35527136788E-14 -0.88817841970E-15  0.00000000000E+00  0.91188000000E+02  0.91188000000E+02 0.  0.
    9900012    2    3    3    0    0 -0.16857685950E+02 -0.43264223791E+01 -0.32448114571E+02  0.54367086847E+02  0.40000006085E+02 0.  0.
        -12    1    3    3    0    0  0.16857685950E+02  0.43264223791E+01  0.32448114571E+02  0.36820913153E+02  0.00000000000E+00 0.  1.
         11    1    4    4    0    0 -0.15665430721E+02  0.78969875283E+01 -0.28092870593E+01  0.17766829367E+02  0.51100000000E-03 0. -1.
        -11    1    4    4    0    0  0.75904363379E+01 -0.17440021370E+01 -0.10163363372E+02  0.12804304844E+02  0.51100000000E-03 0.  1.
         12    1    4    4    0    0 -0.87826915668E+01 -0.10479407770E+02 -0.19475464140E+02  0.23795952636E+02  0.00000000000E+00 0. -1.
</event>
<event>
 8    1  0.2472977E-006  0.9118800E+02  0.7816164E-02  0.1184000E+00
        -11   -1    0    0    0    0  0.00000000000E+00  0.00000000000E+00  0.45593999997E+02  0.45594000000E+02  0.51100000000E-03 0.  1.
         11   -1    0    0    0    0 -0.00000000000E+00 -0.00000000000E+00 -0.45593999997E+02  0.45594000000E+02  0.51100000000E-03 0. -1.
         23    2    1    2    0    0  0.35527136788E-14  0.00000000000E+00  0.00000000000E+00  0.91188000000E+02  0.91188000000E+02 0.  0.
    9900012    2    3    3    0    0  0.20092880284E+02 -0.25572248427E+02  0.17266031294E+02  0.54367087947E+02  0.40000008594E+02 0.  0.
         12    1    3    3    0    0 -0.20092880284E+02  0.25572248427E+02 -0.17266031294E+02  0.36820912053E+02  0.00000000000E+00 0. -1.
         11    1    4    4    0    0  0.45017806870E+01 -0.25429822776E+02  0.12505177407E+02  0.28693577295E+02  0.51100000000E-03 0. -1.
        -11    1    4    4    0    0  0.99890517674E+01 -0.55782817293E+01  0.10854477548E+02  0.15770797867E+02  0.51100000000E-03 0.  1.
         12    1    4    4    0    0  0.56020478300E+01  0.54358560782E+01 -0.60936236604E+01  0.99027127853E+01  0.00000000000E+00 0. -1.
</event>
<event>
 8    1  0.2472977E-006  0.9118800E+02  0.7816164E-02  0.1184000E+00
        -11   -1    0    0    0    0  0.00000000000E+00  0.00000000000E+00  0.45593999997E+02  0.45594000000E+02  0.51100000000E-03 0.  1.
         11   -1    0    0    0    0 -0.00000000000E+00 -0.00000000000E+00 -0.45593999997E+02  0.45594000000E+02  0.51100000000E-03 0. -1.
         23    2    1    2    0    0  0.00000000000E+00  0.55511151231E-15  0.71054273576E-14  0.91188000000E+02  0.91188000000E+02 0.  0.
    9900012    2    3    3    0    0  0.13619827025E+02  0.76143708231E+00 -0.34200880600E+02  0.54367085991E+02  0.40000004134E+02 0.  0.
        -12    1    3    3    0    0 -0.13619827025E+02 -0.76143708231E+00  0.34200880600E+02  0.36820914009E+02  0.00000000000E+00 0.  1.
         11    1    4    4    0    0  0.16600311195E+02  0.85691705471E+01 -0.22677681903E+01  0.18818708470E+02  0.51100000000E-03 0.  1.
        -11    1    4    4    0    0 -0.74336009973E+01 -0.70342028857E+01 -0.16054760123E+02  0.19039268812E+02  0.51100000000E-03 0. -1.
        -12    1    4    4    0    0  0.44531168270E+01 -0.77353057913E+00 -0.15878352287E+02  0.16509108710E+02  0.00000000000E+00 0.  1.
</event>
<event>
 8    1  0.2472977E-006  0.9118800E+02  0.7816164E-02  0.1184000E+00
        -11   -1    0    0    0    0  0.00000000000E+00  0.00000000000E+00  0.45593999997E+02  0.45594000000E+02  0.51100000000E-03 0.  1.
         11   -1    0    0    0    0 -0.00000000000E+00 -0.00000000000E+00 -0.45593999997E+02  0.45594000000E+02  0.51100000000E-03 0. -1.
         23    2    1    2    0    0  0.35527136788E-14  0.22204460493E-15  0.00000000000E+00  0.91188000000E+02  0.91188000000E+02 0.  0.
    9900012    2    3    3    0    0 -0.30807563585E+02  0.13040449024E+01 -0.20123943661E+02  0.54367087251E+02  0.40000007007E+02 0.  0.
        -12    1    3    3    0    0  0.30807563585E+02 -0.13040449024E+01  0.20123943661E+02  0.36820912749E+02  0.00000000000E+00 0.  1.
         11    1    4    4    0    0 -0.42544506432E+01 -0.11934765116E+02 -0.16360257315E+02  0.20692921213E+02  0.51100000000E-03 0. -1.
        -11    1    4    4    0    0 -0.11335838669E+02  0.89451585942E+01  0.53793461115E+01  0.15409557601E+02  0.51100000000E-03 0.  1.
         12    1    4    4    0    0 -0.15217274273E+02  0.42936514246E+01 -0.91430324571E+01  0.18264608437E+02  0.00000000000E+00 0. -1.
</event>
<event>
 8    1  0.2472977E-006  0.9118800E+02  0.7816164E-02  0.1184000E+00
        -11   -1    0    0    0    0  0.00000000000E+00  0.00000000000E+00  0.45593999997E+02  0.45594000000E+02  0.51100000000E-03 0.  1.
         11   -1    0    0    0    0 -0.00000000000E+00 -0.00000000000E+00 -0.45593999997E+02  0.45594000000E+02  0.51100000000E-03 0. -1.
         23    2    1    2    0    0  0.88817841970E-15  0.71054273576E-14  0.00000000000E+00  0.91188000000E+02  0.91188000000E+02 0.  0.
    9900012    2    3    3    0    0 -0.43785505473E+01  0.36544372410E+02  0.10570461727E+01  0.54367079230E+02  0.39999988720E+02 0.  0.
         12    1    3    3    0    0  0.43785505473E+01 -0.36544372410E+02 -0.10570461727E+01  0.36820920770E+02  0.00000000000E+00 0. -1.
         11    1    4    4    0    0 -0.65152373684E+01  0.81852600628E+01  0.77487485737E+01  0.13018828864E+02  0.51100000000E-03 0. -1.
        -11    1    4    4    0    0 -0.63744528257E+01  0.24876918037E+02  0.53146844201E+01  0.26224808304E+02  0.51100000000E-03 0.  1.
         12    1    4    4    0    0  0.85111396468E+01  0.34821943107E+01 -0.12006386821E+02  0.15123442062E+02  0.00000000000E+00 0. -1.
</event>
<event>
 8    1  0.2472977E-006  0.9118800E+02  0.7816164E-02  0.1184000E+00
        -11   -1    0    0    0    0  0.00000000000E+00  0.00000000000E+00  0.45593999997E+02  0.45594000000E+02  0.51100000000E-03 0. -1.
         11   -1    0    0    0    0 -0.00000000000E+00 -0.00000000000E+00 -0.45593999997E+02  0.45594000000E+02  0.51100000000E-03 0.  1.
         23    2    1    2    0    0 -0.17763568394E-14 -0.17763568394E-14  0.71054273576E-14  0.91188000000E+02  0.91188000000E+02 0.  0.
    9900012    2    3    3    0    0 -0.87098484188E+01  0.14460871394E+02 -0.32723109843E+02  0.54367079605E+02  0.39999989575E+02 0.  0.
         12    1    3    3    0    0  0.87098484188E+01 -0.14460871394E+02  0.32723109843E+02  0.36820920395E+02  0.00000000000E+00 0. -1.
         11    1    4    4    0    0 -0.14516900420E+02 -0.53793534889E+01 -0.96659339874E+01  0.18251249872E+02  0.51100000000E-03 0. -1.
        -11    1    4    4    0    0 -0.34000878446E+01  0.65070673781E+00 -0.11261900441E+02  0.11781953081E+02  0.51100000000E-03 0.  1.
        -12    1    4    4    0    0  0.92071398460E+01  0.19189518145E+02 -0.11795275415E+02  0.24333876652E+02  0.00000000000E+00 0.  1.
</event>
<event>
 8    1  0.2472977E-006  0.9118800E+02  0.7816164E-02  0.1184000E+00
        -11   -1    0    0    0    0  0.00000000000E+00  0.00000000000E+00  0.45593999997E+02  0.45594000000E+02  0.51100000000E-03 0. -1.
         11   -1    0    0    0    0 -0.00000000000E+00 -0.00000000000E+00 -0.45593999997E+02  0.45594000000E+02  0.51100000000E-03 0.  1.
         23    2    1    2    0    0  0.16653345369E-15  0.00000000000E+00  0.00000000000E+00  0.91188000000E+02  0.91188000000E+02 0.  0.
    9900012    2    3    3    0    0 -0.15059326107E+00 -0.77500296053E+01 -0.35995757541E+02  0.54367079341E+02  0.39999988974E+02 0.  0.
         12    1    3    3    0    0  0.15059326107E+00  0.77500296053E+01  0.35995757541E+02  0.36820920659E+02  0.00000000000E+00 0. -1.
         11    1    4    4    0    0  0.13372059588E+02 -0.91920213724E+01 -0.20307015373E+02  0.25993847505E+02  0.51100000000E-03 0. -1.
        -11    1    4    4    0    0 -0.24742628089E+01 -0.73283648982E+01 -0.11120088076E+02  0.13545599566E+02  0.51100000000E-03 0.  1.
         12    1    4    4    0    0 -0.11048390040E+02  0.87703566653E+01 -0.45686540920E+01  0.14827632269E+02  0.00000000000E+00 0. -1.
</event>
<event>
 8    1  0.2472977E-006  0.9118800E+02  0.7816164E-02  0.1184000E+00
        -11   -1    0    0    0    0  0.00000000000E+00  0.00000000000E+00  0.45593999997E+02  0.45594000000E+02  0.51100000000E-03 0.  1.
         11   -1    0    0    0    0 -0.00000000000E+00 -0.00000000000E+00 -0.45593999997E+02  0.45594000000E+02  0.51100000000E-03 0. -1.
         23    2    1    2    0    0  0.00000000000E+00  0.00000000000E+00  0.00000000000E+00  0.91188000000E+02  0.91188000000E+02 0.  0.
    9900012    2    3    3    0    0  0.25367547640E+02  0.21713018498E+02 -0.15518012054E+02  0.54367131683E+02  0.40000108298E+02 0.  0.
         12    1    3    3    0    0 -0.25367547640E+02 -0.21713018498E+02  0.15518012054E+02  0.36820868317E+02  0.00000000000E+00 0. -1.
         11    1    4    4    0    0  0.50829237610E+01  0.53718694203E+01 -0.13454597445E+02  0.15353152370E+02  0.51100000000E-03 0. -1.
        -11    1    4    4    0    0  0.23100008013E+02  0.91653013514E+01 -0.11029900357E+02  0.27189553531E+02  0.51100000000E-03 0.  1.
        -12    1    4    4    0    0 -0.28153841344E+01  0.71758477257E+01  0.89664857482E+01  0.11824425782E+02  0.00000000000E+00 0.  1.
</event>
<event>
 8    1  0.2472977E-006  0.9118800E+02  0.7816164E-02  0.1184000E+00
        -11   -1    0    0    0    0  0.00000000000E+00  0.00000000000E+00  0.45593999997E+02  0.45594000000E+02  0.51100000000E-03 0. -1.
         11   -1    0    0    0    0 -0.00000000000E+00 -0.00000000000E+00 -0.45593999997E+02  0.45594000000E+02  0.51100000000E-03 0.  1.
         23    2    1    2    0    0 -0.88817841970E-15  0.35527136788E-14  0.00000000000E+00  0.91188000000E+02  0.91188000000E+02 0.  0.
    9900012    2    3    3    0    0 -0.72271074943E+01  0.25440419106E+02  0.25619000087E+02  0.54367093269E+02  0.40000020725E+02 0.  0.
        -12    1    3    3    0    0  0.72271074943E+01 -0.25440419106E+02 -0.25619000087E+02  0.36820906731E+02  0.00000000000E+00 0.  1.
         11    1    4    4    0    0 -0.89200993915E+01  0.11545887289E+02  0.19877767332E+02  0.24657682794E+02  0.51100000000E-03 0. -1.
        -11    1    4    4    0    0 -0.33482510814E+01 -0.64806123678E+01  0.47335000846E+01  0.86956969403E+01  0.51100000000E-03 0.  1.
        -12    1    4    4    0    0  0.50412429785E+01  0.20375144186E+02  0.10077326709E+01  0.21013713534E+02  0.00000000000E+00 0.  1.
</event>
<event>
 8    1  0.2472977E-006  0.9118800E+02  0.7816164E-02  0.1184000E+00
        -11   -1    0    0    0    0  0.00000000000E+00  0.00000000000E+00  0.45593999997E+02  0.45594000000E+02  0.51100000000E-03 0. -1.
         11   -1    0    0    0    0 -0.00000000000E+00 -0.00000000000E+00 -0.45593999997E+02  0.45594000000E+02  0.51100000000E-03 0.  1.
         23    2    1    2    0    0  0.00000000000E+00  0.17763568394E-14  0.17763568394E-14  0.91188000000E+02  0.91188000000E+02 0.  0.
    9900012    2    3    3    0    0  0.34152099327E+02 -0.67388590977E+01 -0.12000043815E+02  0.54367093412E+02  0.40000021051E+02 0.  0.
         12    1    3    3    0    0 -0.34152099327E+02  0.67388590977E+01  0.12000043815E+02  0.36820906588E+02  0.00000000000E+00 0. -1.
         11    1    4    4    0    0 -0.62399802503E+00 -0.13243575272E+02 -0.51339681466E+01  0.14217569719E+02  0.51100000000E-03 0. -1.
        -11    1    4    4    0    0  0.12175600668E+02  0.22309677237E+01  0.60418484666E+01  0.13774120726E+02  0.51100000000E-03 0.  1.
        -12    1    4    4    0    0  0.22600496684E+02  0.42737484510E+01 -0.12907924135E+02  0.26375402967E+02  0.00000000000E+00 0.  1.
</event>
<event>
 8    1  0.2472977E-006  0.9118800E+02  0.7816164E-02  0.1184000E+00
        -11   -1    0    0    0    0  0.00000000000E+00  0.00000000000E+00  0.45593999997E+02  0.45594000000E+02  0.51100000000E-03 0. -1.
         11   -1    0    0    0    0 -0.00000000000E+00 -0.00000000000E+00 -0.45593999997E+02  0.45594000000E+02  0.51100000000E-03 0.  1.
         23    2    1    2    0    0 -0.17763568394E-14  0.00000000000E+00  0.00000000000E+00  0.91188000000E+02  0.91188000000E+02 0.  0.
    9900012    2    3    3    0    0 -0.84924489947E+01  0.35201946994E+02 -0.66694532873E+01  0.54367077018E+02  0.39999983679E+02 0.  0.
         12    1    3    3    0    0  0.84924489947E+01 -0.35201946994E+02  0.66694532873E+01  0.36820922982E+02  0.00000000000E+00 0. -1.
         11    1    4    4    0    0  0.11166930086E+01  0.44600937499E+01  0.83861108954E+01  0.95638013230E+01  0.51100000000E-03 0. -1.
        -11    1    4    4    0    0  0.82544320364E+01  0.11620804556E+02 -0.11662169141E+02  0.18416974130E+02  0.51100000000E-03 0.  1.
         12    1    4    4    0    0 -0.17863574040E+02  0.19121048688E+02 -0.33933950418E+01  0.26386301565E+02  0.00000000000E+00 0. -1.
</event>
<event>
 8    1  0.2472977E-006  0.9118800E+02  0.7816164E-02  0.1184000E+00
        -11   -1    0    0    0    0  0.00000000000E+00  0.00000000000E+00  0.45593999997E+02  0.45594000000E+02  0.51100000000E-03 0.  1.
         11   -1    0    0    0    0 -0.00000000000E+00 -0.00000000000E+00 -0.45593999997E+02  0.45594000000E+02  0.51100000000E-03 0. -1.
         23    2    1    2    0    0  0.35527136788E-14 -0.71054273576E-14  0.00000000000E+00  0.91188000000E+02  0.91188000000E+02 0.  0.
    9900012    2    3    3    0    0 -0.19525111682E+02  0.27071752213E+02 -0.15545747550E+02  0.54367081747E+02  0.39999994458E+02 0.  0.
        -12    1    3    3    0    0  0.19525111682E+02 -0.27071752213E+02  0.15545747550E+02  0.36820918253E+02  0.00000000000E+00 0.  1.
         11    1    4    4    0    0 -0.11472830818E+02  0.11158622899E+02 -0.40929728582E+01  0.16519477566E+02  0.51100000000E-03 0. -1.
        -11    1    4    4    0    0 -0.66065949471E+01 -0.60719786910E+01  0.50713870262E+01  0.10307035881E+02  0.51100000000E-03 0.  1.
        -12    1    4    4    0    0 -0.14456859172E+01  0.21985108005E+02 -0.16524161718E+02  0.27540568300E+02  0.00000000000E+00 0.  1.
</event>
<event>
 8    1  0.2472977E-006  0.9118800E+02  0.7816164E-02  0.1184000E+00
        -11   -1    0    0    0    0  0.00000000000E+00  0.00000000000E+00  0.45593999997E+02  0.45594000000E+02  0.51100000000E-03 0.  1.
         11   -1    0    0    0    0 -0.00000000000E+00 -0.00000000000E+00 -0.45593999997E+02  0.45594000000E+02  0.51100000000E-03 0. -1.
         23    2    1    2    0    0 -0.35527136788E-14  0.00000000000E+00 -0.35527136788E-14  0.91188000000E+02  0.91188000000E+02 0.  0.
    9900012    2    3    3    0    0  0.30382354894E+02  0.70696902299E+01  0.19563142637E+02  0.54367020128E+02  0.39999853987E+02 0.  0.
         12    1    3    3    0    0 -0.30382354894E+02 -0.70696902299E+01 -0.19563142637E+02  0.36820979872E+02  0.00000000000E+00 0. -1.
         11    1    4    4    0    0  0.19425286669E+01 -0.90564345631E+01  0.10720742153E+02  0.14167806364E+02  0.51100000000E-03 0. -1.
        -11    1    4    4    0    0  0.23034743886E+02  0.18816120183E+01  0.94085705691E+01  0.24953177956E+02  0.51100000000E-03 0.  1.
        -12    1    4    4    0    0  0.54050823414E+01  0.14244512775E+02 -0.56617008443E+00  0.15246035808E+02  0.00000000000E+00 0.  1.
</event>
<event>
 8    1  0.2472977E-006  0.9118800E+02  0.7816164E-02  0.1184000E+00
        -11   -1    0    0    0    0  0.00000000000E+00  0.00000000000E+00  0.45593999997E+02  0.45594000000E+02  0.51100000000E-03 0.  1.
         11   -1    0    0    0    0 -0.00000000000E+00 -0.00000000000E+00 -0.45593999997E+02  0.45594000000E+02  0.51100000000E-03 0. -1.
         23    2    1    2    0    0 -0.17763568394E-14  0.00000000000E+00  0.00000000000E+00  0.91188000000E+02  0.91188000000E+02 0.  0.
    9900012    2    3    3    0    0 -0.12991269265E+02 -0.31067187780E+02 -0.14894194548E+02  0.54367078435E+02  0.39999986908E+02 0.  0.
         12    1    3    3    0    0  0.12991269265E+02  0.31067187780E+02  0.14894194548E+02  0.36820921565E+02  0.00000000000E+00 0. -1.
         11    1    4    4    0    0 -0.14727329152E+02 -0.12440421172E+02 -0.78375427376E+01  0.20810703479E+02  0.51100000000E-03 0. -1.
        -11    1    4    4    0    0  0.57232112984E+01 -0.73134086514E+00  0.79781469973E+01  0.98458537872E+01  0.51100000000E-03 0.  1.
         12    1    4    4    0    0 -0.39871514114E+01 -0.17895425743E+02 -0.15034798807E+02  0.23710521168E+02  0.00000000000E+00 0. -1.
</event>
<event>
 8    1  0.2472977E-006  0.9118800E+02  0.7816164E-02  0.1184000E+00
        -11   -1    0    0    0    0  0.00000000000E+00  0.00000000000E+00  0.45593999997E+02  0.45594000000E+02  0.51100000000E-03 0.  1.
         11   -1    0    0    0    0 -0.00000000000E+00 -0.00000000000E+00 -0.45593999997E+02  0.45594000000E+02  0.51100000000E-03 0. -1.
         23    2    1    2    0    0  0.00000000000E+00  0.00000000000E+00  0.00000000000E+00  0.91188000000E+02  0.91188000000E+02 0.  0.
    9900012    2    3    3    0    0  0.18273497553E+02  0.31842164050E+02  0.28172453506E+01  0.54367068513E+02  0.39999964289E+02 0.  0.
        -12    1    3    3    0    0 -0.18273497553E+02 -0.31842164050E+02 -0.28172453506E+01  0.36820931487E+02  0.00000000000E+00 0.  1.
         11    1    4    4    0    0  0.16939185175E+02  0.27986133407E+02  0.33611932316E+01  0.32885517750E+02  0.51100000000E-03 0. -1.
        -11    1    4    4    0    0  0.29918832388E+01  0.12402327816E+02 -0.66092107507E+00  0.12775207141E+02  0.51100000000E-03 0.  1.
         12    1    4    4    0    0 -0.16575708603E+01 -0.85462971736E+01  0.11697319414E+00  0.87063436220E+01  0.00000000000E+00 0. -1.
</event>
<event>
 8    1  0.2472977E-006  0.9118800E+02  0.7816164E-02  0.1184000E+00
        -11   -1    0    0    0    0  0.00000000000E+00  0.00000000000E+00  0.45593999997E+02  0.45594000000E+02  0.51100000000E-03 0.  1.
         11   -1    0    0    0    0 -0.00000000000E+00 -0.00000000000E+00 -0.45593999997E+02  0.45594000000E+02  0.51100000000E-03 0. -1.
         23    2    1    2    0    0  0.11102230246E-14  0.00000000000E+00  0.00000000000E+00  0.91188000000E+02  0.91188000000E+02 0.  0.
    9900012    2    3    3    0    0 -0.14789708712E+01 -0.27582259701E+02  0.24347782894E+02  0.54367042151E+02  0.39999904193E+02 0.  0.
         12    1    3    3    0    0  0.14789708712E+01  0.27582259701E+02 -0.24347782894E+02  0.36820957849E+02  0.00000000000E+00 0. -1.
         11    1    4    4    0    0  0.78112503546E+00 -0.16073215328E+02 -0.42731297907E+01  0.16649866239E+02  0.51100000000E-03 0. -1.
        -11    1    4    4    0    0  0.35261658974E+01 -0.44469089222E+01  0.27996539990E+02  0.28565977955E+02  0.51100000000E-03 0.  1.
        -12    1    4    4    0    0 -0.57862618040E+01 -0.70621354508E+01  0.62437269466E+00  0.91511979572E+01  0.00000000000E+00 0.  1.
</event>
<event>
 8    1  0.2472977E-006  0.9118800E+02  0.7816164E-02  0.1184000E+00
        -11   -1    0    0    0    0  0.00000000000E+00  0.00000000000E+00  0.45593999997E+02  0.45594000000E+02  0.51100000000E-03 0.  1.
         11   -1    0    0    0    0 -0.00000000000E+00 -0.00000000000E+00 -0.45593999997E+02  0.45594000000E+02  0.51100000000E-03 0. -1.
         23    2    1    2    0    0 -0.17763568394E-14 -0.71054273576E-14 -0.17763568394E-14  0.91188000000E+02  0.91188000000E+02 0.  0.
    9900012    2    3    3    0    0 -0.13003951542E+02 -0.33423793981E+02 -0.83382735114E+01  0.54367087940E+02  0.40000008576E+02 0.  0.
        -12    1    3    3    0    0  0.13003951542E+02  0.33423793981E+02  0.83382735114E+01  0.36820912060E+02  0.00000000000E+00 0.  1.
         11    1    4    4    0    0  0.26096746679E+01  0.41597643586E+01  0.31239707611E+01  0.58200717323E+01  0.51100000000E-03 0.  1.
        -11    1    4    4    0    0 -0.12349460694E+02 -0.21148421444E+02  0.50684987062E+01  0.25009090116E+02  0.51100000000E-03 0. -1.
         12    1    4    4    0    0 -0.32641655160E+01 -0.16435136895E+02 -0.16530742979E+02  0.23537926092E+02  0.00000000000E+00 0. -1.
</event>
<event>
 8    1  0.2472977E-006  0.9118800E+02  0.7816164E-02  0.1184000E+00
        -11   -1    0    0    0    0  0.00000000000E+00  0.00000000000E+00  0.45593999997E+02  0.45594000000E+02  0.51100000000E-03 0. -1.
         11   -1    0    0    0    0 -0.00000000000E+00 -0.00000000000E+00 -0.45593999997E+02  0.45594000000E+02  0.51100000000E-03 0.  1.
         23    2    1    2    0    0  0.00000000000E+00 -0.11102230246E-15  0.00000000000E+00  0.91188000000E+02  0.91188000000E+02 0.  0.
    9900012    2    3    3    0    0 -0.18509881179E+02  0.91678681311E+00  0.31817029549E+02  0.54367087889E+02  0.40000008461E+02 0.  0.
        -12    1    3    3    0    0  0.18509881179E+02 -0.91678681311E+00 -0.31817029549E+02  0.36820912111E+02  0.00000000000E+00 0.  1.
         11    1    4    4    0    0 -0.88358504545E+00  0.34320479847E+01  0.15080588648E+00  0.35471705031E+01  0.51100000000E-03 0. -1.
        -11    1    4    4    0    0 -0.83242272193E+00 -0.21488094855E+01  0.33807653303E+02  0.33886099391E+02  0.51100000000E-03 0.  1.
        -12    1    4    4    0    0 -0.16793873411E+02 -0.36645168603E+00 -0.21414296403E+01  0.16933817995E+02  0.00000000000E+00 0.  1.
</event>
<event>
 8    1  0.2472977E-006  0.9118800E+02  0.7816164E-02  0.1184000E+00
        -11   -1    0    0    0    0  0.00000000000E+00  0.00000000000E+00  0.45593999997E+02  0.45594000000E+02  0.51100000000E-03 0. -1.
         11   -1    0    0    0    0 -0.00000000000E+00 -0.00000000000E+00 -0.45593999997E+02  0.45594000000E+02  0.51100000000E-03 0.  1.
         23    2    1    2    0    0 -0.66613381478E-15  0.00000000000E+00  0.00000000000E+00  0.91188000000E+02  0.91188000000E+02 0.  0.
    9900012    2    3    3    0    0  0.11265141932E+01 -0.26529428697E+02  0.25508803725E+02  0.54367099838E+02  0.40000035702E+02 0.  0.
        -12    1    3    3    0    0 -0.11265141932E+01  0.26529428697E+02 -0.25508803725E+02  0.36820900162E+02  0.00000000000E+00 0.  1.
         11    1    4    4    0    0 -0.60545198644E+01 -0.92011881699E+01 -0.42980232173E+01  0.11823370009E+02  0.51100000000E-03 0.  1.
        -11    1    4    4    0    0  0.13624286179E+02 -0.96516694604E+01  0.79375125938E+01  0.18487293034E+02  0.51100000000E-03 0. -1.
         12    1    4    4    0    0 -0.64432521218E+01 -0.76765710670E+01  0.21869314348E+02  0.24056436796E+02  0.00000000000E+00 0. -1.
</event>
<event>
 8    1  0.2472977E-006  0.9118800E+02  0.7816164E-02  0.1184000E+00
        -11   -1    0    0    0    0  0.00000000000E+00  0.00000000000E+00  0.45593999997E+02  0.45594000000E+02  0.51100000000E-03 0. -1.
         11   -1    0    0    0    0 -0.00000000000E+00 -0.00000000000E+00 -0.45593999997E+02  0.45594000000E+02  0.51100000000E-03 0.  1.
         23    2    1    2    0    0  0.00000000000E+00 -0.44408920985E-15 -0.35527136788E-14  0.91188000000E+02  0.91188000000E+02 0.  0.
    9900012    2    3    3    0    0  0.33023923480E+02 -0.25547089763E+01  0.16083346304E+02  0.54367080833E+02  0.39999992375E+02 0.  0.
        -12    1    3    3    0    0 -0.33023923480E+02  0.25547089763E+01 -0.16083346304E+02  0.36820919167E+02  0.00000000000E+00 0.  1.
         11    1    4    4    0    0  0.17533209451E+02 -0.81534353559E+01  0.24743241600E+02  0.31402546822E+02  0.51100000000E-03 0. -1.
        -11    1    4    4    0    0  0.27807042004E+01 -0.10352597787E+01 -0.80889797998E+01  0.86160125999E+01  0.51100000000E-03 0.  1.
         12    1    4    4    0    0  0.12710009828E+02  0.66339861584E+01 -0.57091549563E+00  0.14348521411E+02  0.00000000000E+00 0. -1.
</event>
<event>
 8    1  0.2472977E-006  0.9118800E+02  0.7816164E-02  0.1184000E+00
        -11   -1    0    0    0    0  0.00000000000E+00  0.00000000000E+00  0.45593999997E+02  0.45594000000E+02  0.51100000000E-03 0.  1.
         11   -1    0    0    0    0 -0.00000000000E+00 -0.00000000000E+00 -0.45593999997E+02  0.45594000000E+02  0.51100000000E-03 0. -1.
         23    2    1    2    0    0  0.00000000000E+00  0.66613381478E-15 -0.35527136788E-14  0.91188000000E+02  0.91188000000E+02 0.  0.
    9900012    2    3    3    0    0 -0.22404293072E+02 -0.72663045681E+00 -0.29211287151E+02  0.54367086963E+02  0.40000006349E+02 0.  0.
        -12    1    3    3    0    0  0.22404293072E+02  0.72663045681E+00  0.29211287151E+02  0.36820913037E+02  0.00000000000E+00 0.  1.
         11    1    4    4    0    0  0.87415923723E+00 -0.42341811554E+01 -0.12892924617E+02  0.13598527489E+02  0.51100000000E-03 0. -1.
        -11    1    4    4    0    0  0.93858072367E+00 -0.97205464383E+01 -0.42168565933E+01  0.10637285209E+02  0.51100000000E-03 0.  1.
         12    1    4    4    0    0 -0.24217033033E+02  0.13228097137E+02 -0.12101505940E+02  0.30131274265E+02  0.00000000000E+00 0. -1.
</event>
<event>
 8    1  0.2472977E-006  0.9118800E+02  0.7816164E-02  0.1184000E+00
        -11   -1    0    0    0    0  0.00000000000E+00  0.00000000000E+00  0.45593999997E+02  0.45594000000E+02  0.51100000000E-03 0.  1.
         11   -1    0    0    0    0 -0.00000000000E+00 -0.00000000000E+00 -0.45593999997E+02  0.45594000000E+02  0.51100000000E-03 0. -1.
         23    2    1    2    0    0  0.00000000000E+00  0.00000000000E+00  0.00000000000E+00  0.91188000000E+02  0.91188000000E+02 0.  0.
    9900012    2    3    3    0    0 -0.23125000304E+02 -0.27123329475E+02  0.92377781226E+01  0.54367120250E+02  0.40000082235E+02 0.  0.
        -12    1    3    3    0    0  0.23125000304E+02  0.27123329475E+02 -0.92377781226E+01  0.36820879750E+02  0.00000000000E+00 0.  1.
         11    1    4    4    0    0  0.46187720735E+01  0.64167218552E+00  0.22185080904E+00  0.46684062273E+01  0.51100000000E-03 0. -1.
        -11    1    4    4    0    0 -0.16767896582E+02 -0.13532400346E+01 -0.54021693814E+01  0.17668532725E+02  0.51100000000E-03 0.  1.
         12    1    4    4    0    0 -0.10975875795E+02 -0.26411761626E+02  0.14418096695E+02  0.32030181298E+02  0.00000000000E+00 0. -1.
</event>
<event>
 8    1  0.2472977E-006  0.9118800E+02  0.7816164E-02  0.1184000E+00
        -11   -1    0    0    0    0  0.00000000000E+00  0.00000000000E+00  0.45593999997E+02  0.45594000000E+02  0.51100000000E-03 0.  1.
         11   -1    0    0    0    0 -0.00000000000E+00 -0.00000000000E+00 -0.45593999997E+02  0.45594000000E+02  0.51100000000E-03 0. -1.
         23    2    1    2    0    0  0.44408920985E-15  0.17763568394E-14  0.00000000000E+00  0.91188000000E+02  0.91188000000E+02 0.  0.
    9900012    2    3    3    0    0  0.18945019664E+01 -0.15711609579E+02 -0.33246660460E+02  0.54367024388E+02  0.39999863697E+02 0.  0.
        -12    1    3    3    0    0 -0.18945019664E+01  0.15711609579E+02  0.33246660460E+02  0.36820975612E+02  0.00000000000E+00 0.  1.
         11    1    4    4    0    0  0.11818923780E+00  0.36000227154E+01 -0.11370394785E+02  0.11927280078E+02  0.51100000000E-03 0. -1.
        -11    1    4    4    0    0 -0.10691461559E+02 -0.21212531445E+02 -0.14171129485E+02  0.27660436579E+02  0.51100000000E-03 0.  1.
        -12    1    4    4    0    0  0.12467774288E+02  0.19008991515E+01 -0.77051361913E+01  0.14779307731E+02  0.00000000000E+00 0.  1.
</event>
<event>
 8    1  0.2472977E-006  0.9118800E+02  0.7816164E-02  0.1184000E+00
        -11   -1    0    0    0    0  0.00000000000E+00  0.00000000000E+00  0.45593999997E+02  0.45594000000E+02  0.51100000000E-03 0. -1.
         11   -1    0    0    0    0 -0.00000000000E+00 -0.00000000000E+00 -0.45593999997E+02  0.45594000000E+02  0.51100000000E-03 0.  1.
         23    2    1    2    0    0  0.00000000000E+00  0.35527136788E-14  0.00000000000E+00  0.91188000000E+02  0.91188000000E+02 0.  0.
    9900012    2    3    3    0    0 -0.17770226677E+02 -0.31519055081E+02  0.68226381926E+01  0.54367079571E+02  0.39999989498E+02 0.  0.
         12    1    3    3    0    0  0.17770226677E+02  0.31519055081E+02 -0.68226381926E+01  0.36820920429E+02  0.00000000000E+00 0. -1.
         11    1    4    4    0    0  0.18688422873E+01 -0.46617506084E+01  0.88292415781E+01  0.10157755526E+02  0.51100000000E-03 0. -1.
        -11    1    4    4    0    0 -0.20457948863E+02 -0.34585935815E+01 -0.11768069751E+01  0.20781588394E+02  0.51100000000E-03 0.  1.
        -12    1    4    4    0    0  0.81887989878E+00 -0.23398710891E+02 -0.82979641035E+00  0.23427735651E+02  0.00000000000E+00 0.  1.
</event>
<event>
 8    1  0.2472977E-006  0.9118800E+02  0.7816164E-02  0.1184000E+00
        -11   -1    0    0    0    0  0.00000000000E+00  0.00000000000E+00  0.45593999997E+02  0.45594000000E+02  0.51100000000E-03 0.  1.
         11   -1    0    0    0    0 -0.00000000000E+00 -0.00000000000E+00 -0.45593999997E+02  0.45594000000E+02  0.51100000000E-03 0. -1.
         23    2    1    2    0    0  0.35527136788E-14  0.17763568394E-14  0.00000000000E+00  0.91188000000E+02  0.91188000000E+02 0.  0.
    9900012    2    3    3    0    0  0.24277548726E+02  0.90789475363E+01  0.26152143519E+02  0.54367336356E+02  0.40000574887E+02 0.  0.
         12    1    3    3    0    0 -0.24277548726E+02 -0.90789475363E+01 -0.26152143519E+02  0.36820663644E+02  0.00000000000E+00 0. -1.
         11    1    4    4    0    0  0.72077246710E-01  0.55382383164E+01  0.47421983417E+01  0.72914829871E+01  0.51100000000E-03 0.  1.
        -11    1    4    4    0    0  0.26897043209E+02  0.65360707486E+01  0.25570353049E+01  0.27797654291E+02  0.51100000000E-03 0. -1.
         12    1    4    4    0    0 -0.26915717299E+01 -0.29953615287E+01  0.18852909872E+02  0.19278199079E+02  0.00000000000E+00 0. -1.
</event>
<event>
 8    1  0.2472977E-006  0.9118800E+02  0.7816164E-02  0.1184000E+00
        -11   -1    0    0    0    0  0.00000000000E+00  0.00000000000E+00  0.45593999997E+02  0.45594000000E+02  0.51100000000E-03 0.  1.
         11   -1    0    0    0    0 -0.00000000000E+00 -0.00000000000E+00 -0.45593999997E+02  0.45594000000E+02  0.51100000000E-03 0. -1.
         23    2    1    2    0    0 -0.22204460493E-15  0.35527136788E-14 -0.35527136788E-14  0.91188000000E+02  0.91188000000E+02 0.  0.
    9900012    2    3    3    0    0 -0.15841772197E+01  0.19975245952E+02  0.30891082380E+02  0.54367095083E+02  0.40000024861E+02 0.  0.
         12    1    3    3    0    0  0.15841772197E+01 -0.19975245952E+02 -0.30891082380E+02  0.36820904917E+02  0.00000000000E+00 0. -1.
         11    1    4    4    0    0  0.80027572232E+01  0.98790387329E+01 -0.39351571356E+01  0.13308831331E+02  0.51100000000E-03 0.  1.
        -11    1    4    4    0    0 -0.95010944971E+01 -0.14161218180E+01  0.11051899738E+02  0.14643110521E+02  0.51100000000E-03 0. -1.
        -12    1    4    4    0    0 -0.85839945769E-01  0.11512329037E+02  0.23774339778E+02  0.26415153231E+02  0.00000000000E+00 0.  1.
</event>
<event>
 8    1  0.2472977E-006  0.9118800E+02  0.7816164E-02  0.1184000E+00
        -11   -1    0    0    0    0  0.00000000000E+00  0.00000000000E+00  0.45593999997E+02  0.45594000000E+02  0.51100000000E-03 0.  1.
         11   -1    0    0    0    0 -0.00000000000E+00 -0.00000000000E+00 -0.45593999997E+02  0.45594000000E+02  0.51100000000E-03 0. -1.
         23    2    1    2    0    0  0.00000000000E+00  0.17763568394E-14  0.00000000000E+00  0.91188000000E+02  0.91188000000E+02 0.  0.
    9900012    2    3    3    0    0  0.16880481051E+02 -0.15701922785E+02 -0.28710241136E+02  0.54367096077E+02  0.40000027126E+02 0.  0.
        -12    1    3    3    0    0 -0.16880481051E+02  0.15701922785E+02  0.28710241136E+02  0.36820903923E+02  0.00000000000E+00 0.  1.
         11    1    4    4    0    0  0.34528009336E+01 -0.45563511024E+01  0.23504255962E+01  0.61811544553E+01  0.51100000000E-03 0. -1.
        -11    1    4    4    0    0  0.14261039065E+01  0.55243255705E+01  0.44004615498E+01  0.72052763635E+01  0.51100000000E-03 0.  1.
         12    1    4    4    0    0  0.12001576210E+02 -0.16669897253E+02 -0.35461128282E+02  0.40980665258E+02  0.00000000000E+00 0. -1.
</event>
<event>
 8    1  0.2472977E-006  0.9118800E+02  0.7816164E-02  0.1184000E+00
        -11   -1    0    0    0    0  0.00000000000E+00  0.00000000000E+00  0.45593999997E+02  0.45594000000E+02  0.51100000000E-03 0.  1.
         11   -1    0    0    0    0 -0.00000000000E+00 -0.00000000000E+00 -0.45593999997E+02  0.45594000000E+02  0.51100000000E-03 0. -1.
         23    2    1    2    0    0 -0.35527136788E-14  0.17763568394E-14  0.71054273576E-14  0.91188000000E+02  0.91188000000E+02 0.  0.
    9900012    2    3    3    0    0 -0.16805130863E+02 -0.47188616518E+01  0.32420699348E+02  0.54367057253E+02  0.39999938619E+02 0.  0.
         12    1    3    3    0    0  0.16805130863E+02  0.47188616518E+01 -0.32420699348E+02  0.36820942747E+02  0.00000000000E+00 0. -1.
         11    1    4    4    0    0 -0.15917082612E+02 -0.18531760377E+02  0.77633288393E+01  0.25632965815E+02  0.51100000000E-03 0. -1.
        -11    1    4    4    0    0  0.15088639346E+01  0.39172515974E+01  0.45175622616E+01  0.61668386958E+01  0.51100000000E-03 0.  1.
         12    1    4    4    0    0 -0.23969121856E+01  0.98956471277E+01  0.20139808247E+02  0.22567252742E+02  0.00000000000E+00 0. -1.
</event>
<event>
 8    1  0.2472977E-006  0.9118800E+02  0.7816164E-02  0.1184000E+00
        -11   -1    0    0    0    0  0.00000000000E+00  0.00000000000E+00  0.45593999997E+02  0.45594000000E+02  0.51100000000E-03 0. -1.
         11   -1    0    0    0    0 -0.00000000000E+00 -0.00000000000E+00 -0.45593999997E+02  0.45594000000E+02  0.51100000000E-03 0.  1.
         23    2    1    2    0    0  0.35527136788E-14  0.00000000000E+00  0.00000000000E+00  0.91188000000E+02  0.91188000000E+02 0.  0.
    9900012    2    3    3    0    0 -0.25435080857E+02  0.16994078040E+02  0.20494832968E+02  0.54367079248E+02  0.39999988762E+02 0.  0.
        -12    1    3    3    0    0  0.25435080857E+02 -0.16994078040E+02 -0.20494832968E+02  0.36820920752E+02  0.00000000000E+00 0.  1.
         11    1    4    4    0    0 -0.17867133382E+02  0.57883915971E+01  0.17337284601E+02  0.25560151999E+02  0.51100000000E-03 0. -1.
        -11    1    4    4    0    0 -0.62498133711E+01  0.11142376253E+02 -0.96005778901E+01  0.15980732518E+02  0.51100000000E-03 0.  1.
        -12    1    4    4    0    0 -0.13181341035E+01  0.63310190063E-01  0.12758126257E+02  0.12826194731E+02  0.00000000000E+00 0.  1.
</event>
<event>
 8    1  0.2472977E-006  0.9118800E+02  0.7816164E-02  0.1184000E+00
        -11   -1    0    0    0    0  0.00000000000E+00  0.00000000000E+00  0.45593999997E+02  0.45594000000E+02  0.51100000000E-03 0.  1.
         11   -1    0    0    0    0 -0.00000000000E+00 -0.00000000000E+00 -0.45593999997E+02  0.45594000000E+02  0.51100000000E-03 0. -1.
         23    2    1    2    0    0  0.17763568394E-14  0.00000000000E+00  0.00000000000E+00  0.91188000000E+02  0.91188000000E+02 0.  0.
    9900012    2    3    3    0    0  0.14177612325E+02  0.18835767768E+02 -0.28284084054E+02  0.54367078645E+02  0.39999987388E+02 0.  0.
        -12    1    3    3    0    0 -0.14177612325E+02 -0.18835767768E+02  0.28284084054E+02  0.36820921355E+02  0.00000000000E+00 0.  1.
         11    1    4    4    0    0  0.66409934077E+01  0.85536579607E+00  0.44937698985E+01  0.80640196086E+01  0.51100000000E-03 0. -1.
        -11    1    4    4    0    0 -0.73893818397E+01  0.16003509192E+02 -0.16848342970E+02  0.24384050761E+02  0.51100000000E-03 0.  1.
        -12    1    4    4    0    0  0.14926000757E+02  0.19768927805E+01 -0.15929510982E+02  0.21919008275E+02  0.00000000000E+00 0.  1.
</event>
<event>
 8    1  0.2472977E-006  0.9118800E+02  0.7816164E-02  0.1184000E+00
        -11   -1    0    0    0    0  0.00000000000E+00  0.00000000000E+00  0.45593999997E+02  0.45594000000E+02  0.51100000000E-03 0.  1.
         11   -1    0    0    0    0 -0.00000000000E+00 -0.00000000000E+00 -0.45593999997E+02  0.45594000000E+02  0.51100000000E-03 0. -1.
         23    2    1    2    0    0  0.35527136788E-14  0.88817841970E-15  0.00000000000E+00  0.91188000000E+02  0.91188000000E+02 0.  0.
    9900012    2    3    3    0    0  0.26056291300E+02 -0.14729375071E+01  0.25974551366E+02  0.54367120327E+02  0.40000082409E+02 0.  0.
        -12    1    3    3    0    0 -0.26056291300E+02  0.14729375071E+01 -0.25974551366E+02  0.36820879673E+02  0.00000000000E+00 0.  1.
         11    1    4    4    0    0 -0.45386438172E-02  0.53137432419E+01  0.55240749176E+01  0.76649391254E+01  0.51100000000E-03 0. -1.
        -11    1    4    4    0    0 -0.44560583143E+01  0.21464467030E+01 -0.41841448389E+01  0.64784841933E+01  0.51100000000E-03 0.  1.
         12    1    4    4    0    0  0.30516888258E+02 -0.89331274520E+01  0.24634621288E+02  0.40223697008E+02  0.00000000000E+00 0. -1.
</event>
<event>
 8    1  0.2472977E-006  0.9118800E+02  0.7816164E-02  0.1184000E+00
        -11   -1    0    0    0    0  0.00000000000E+00  0.00000000000E+00  0.45593999997E+02  0.45594000000E+02  0.51100000000E-03 0. -1.
         11   -1    0    0    0    0 -0.00000000000E+00 -0.00000000000E+00 -0.45593999997E+02  0.45594000000E+02  0.51100000000E-03 0.  1.
         23    2    1    2    0    0  0.71054273576E-14 -0.88817841970E-15  0.00000000000E+00  0.91188000000E+02  0.91188000000E+02 0.  0.
    9900012    2    3    3    0    0  0.35479146442E+02  0.49071022836E+01 -0.85399233643E+01  0.54367085072E+02  0.40000002038E+02 0.  0.
         12    1    3    3    0    0 -0.35479146442E+02 -0.49071022836E+01  0.85399233643E+01  0.36820914928E+02  0.00000000000E+00 0. -1.
         11    1    4    4    0    0 -0.18346973297E+01  0.10281382612E+02  0.30245007583E+01  0.10872927288E+02  0.51100000000E-03 0. -1.
        -11    1    4    4    0    0  0.44788377964E+00 -0.28614750985E+01 -0.52656823129E+01  0.60096630605E+01  0.51100000000E-03 0.  1.
         12    1    4    4    0    0  0.36865959992E+02 -0.25128052301E+01 -0.62987418097E+01  0.37484494723E+02  0.00000000000E+00 0. -1.
</event>
<event>
 8    1  0.2472977E-006  0.9118800E+02  0.7816164E-02  0.1184000E+00
        -11   -1    0    0    0    0  0.00000000000E+00  0.00000000000E+00  0.45593999997E+02  0.45594000000E+02  0.51100000000E-03 0.  1.
         11   -1    0    0    0    0 -0.00000000000E+00 -0.00000000000E+00 -0.45593999997E+02  0.45594000000E+02  0.51100000000E-03 0. -1.
         23    2    1    2    0    0 -0.35527136788E-14  0.17763568394E-14  0.00000000000E+00  0.91188000000E+02  0.91188000000E+02 0.  0.
    9900012    2    3    3    0    0 -0.23390759154E+02  0.93394944215E+01 -0.26859375253E+02  0.54367084628E+02  0.40000001027E+02 0.  0.
        -12    1    3    3    0    0  0.23390759154E+02 -0.93394944215E+01  0.26859375253E+02  0.36820915372E+02  0.00000000000E+00 0.  1.
         11    1    4    4    0    0 -0.84335149232E+01  0.30366040699E+01 -0.54723181697E+01  0.10501971465E+02  0.51100000000E-03 0. -1.
        -11    1    4    4    0    0 -0.59670647892E+01 -0.14330354815E+02 -0.62092486417E+01  0.16718842672E+02  0.51100000000E-03 0.  1.
        -12    1    4    4    0    0 -0.89901794414E+01  0.20633245167E+02 -0.15177808442E+02  0.27146270491E+02  0.00000000000E+00 0.  1.
</event>
<event>
 8    1  0.2472977E-006  0.9118800E+02  0.7816164E-02  0.1184000E+00
        -11   -1    0    0    0    0  0.00000000000E+00  0.00000000000E+00  0.45593999997E+02  0.45594000000E+02  0.51100000000E-03 0. -1.
         11   -1    0    0    0    0 -0.00000000000E+00 -0.00000000000E+00 -0.45593999997E+02  0.45594000000E+02  0.51100000000E-03 0.  1.
         23    2    1    2    0    0 -0.26645352591E-14  0.00000000000E+00  0.44408920985E-15  0.91188000000E+02  0.91188000000E+02 0.  0.
    9900012    2    3    3    0    0  0.28588406532E+01 -0.36612443555E+02  0.26705487978E+01  0.54367138741E+02  0.40000124388E+02 0.  0.
        -12    1    3    3    0    0 -0.28588406532E+01  0.36612443555E+02 -0.26705487978E+01  0.36820861259E+02  0.00000000000E+00 0.  1.
         11    1    4    4    0    0 -0.93342484908E+01  0.16865592399E+00  0.18524691081E+01  0.95177876509E+01  0.51100000000E-03 0. -1.
        -11    1    4    4    0    0  0.10248145254E+02 -0.92714285647E+01 -0.79093802752E+01  0.15923007423E+02  0.51100000000E-03 0.  1.
         12    1    4    4    0    0  0.19449438898E+01 -0.27509670914E+02  0.87274599648E+01  0.28926343668E+02  0.00000000000E+00 0. -1.
</event>
<event>
 8    1  0.2472977E-006  0.9118800E+02  0.7816164E-02  0.1184000E+00
        -11   -1    0    0    0    0  0.00000000000E+00  0.00000000000E+00  0.45593999997E+02  0.45594000000E+02  0.51100000000E-03 0. -1.
         11   -1    0    0    0    0 -0.00000000000E+00 -0.00000000000E+00 -0.45593999997E+02  0.45594000000E+02  0.51100000000E-03 0.  1.
         23    2    1    2    0    0  0.17763568394E-14  0.00000000000E+00  0.00000000000E+00  0.91188000000E+02  0.91188000000E+02 0.  0.
    9900012    2    3    3    0    0  0.10445504666E+02  0.33203179051E+02 -0.12009121496E+02  0.54367100147E+02  0.40000036406E+02 0.  0.
         12    1    3    3    0    0 -0.10445504666E+02 -0.33203179051E+02  0.12009121496E+02  0.36820899853E+02  0.00000000000E+00 0. -1.
         11    1    4    4    0    0  0.45106521669E+00  0.23322635534E+02  0.10210365054E+02  0.25463706385E+02  0.51100000000E-03 0. -1.
        -11    1    4    4    0    0  0.43286790839E+01 -0.24034000624E+01 -0.62938121624E+01  0.80078627778E+01  0.51100000000E-03 0.  1.
         12    1    4    4    0    0  0.56657603656E+01  0.12283943580E+02 -0.15925674388E+02  0.20895530984E+02  0.00000000000E+00 0. -1.
</event>
<event>
 8    1  0.2472977E-006  0.9118800E+02  0.7816164E-02  0.1184000E+00
        -11   -1    0    0    0    0  0.00000000000E+00  0.00000000000E+00  0.45593999997E+02  0.45594000000E+02  0.51100000000E-03 0.  1.
         11   -1    0    0    0    0 -0.00000000000E+00 -0.00000000000E+00 -0.45593999997E+02  0.45594000000E+02  0.51100000000E-03 0. -1.
         23    2    1    2    0    0  0.17763568394E-14 -0.10269562978E-14 -0.71054273576E-14  0.91188000000E+02  0.91188000000E+02 0.  0.
    9900012    2    3    3    0    0 -0.99855340536E+01  0.13349377892E+00  0.35440798903E+02  0.54367096456E+02  0.40000027991E+02 0.  0.
         12    1    3    3    0    0  0.99855340536E+01 -0.13349377892E+00 -0.35440798903E+02  0.36820903544E+02  0.00000000000E+00 0. -1.
         11    1    4    4    0    0 -0.15531509432E+02  0.21594719174E+01  0.11235072207E+02  0.19290359041E+02  0.51100000000E-03 0. -1.
        -11    1    4    4    0    0 -0.26053756084E+01  0.99876449531E+01  0.65761089324E+01  0.12238718998E+02  0.51100000000E-03 0.  1.
         12    1    4    4    0    0  0.81513509868E+01 -0.12013623092E+02  0.17629617764E+02  0.22838018416E+02  0.00000000000E+00 0. -1.
</event>
<event>
 8    1  0.2472977E-006  0.9118800E+02  0.7816164E-02  0.1184000E+00
        -11   -1    0    0    0    0  0.00000000000E+00  0.00000000000E+00  0.45593999997E+02  0.45594000000E+02  0.51100000000E-03 0.  1.
         11   -1    0    0    0    0 -0.00000000000E+00 -0.00000000000E+00 -0.45593999997E+02  0.45594000000E+02  0.51100000000E-03 0. -1.
         23    2    1    2    0    0  0.35527136788E-14  0.44408920985E-15  0.71054273576E-14  0.91188000000E+02  0.91188000000E+02 0.  0.
    9900012    2    3    3    0    0 -0.22864621146E+02  0.34494012368E+01 -0.28654673305E+02  0.54367087854E+02  0.40000008382E+02 0.  0.
        -12    1    3    3    0    0  0.22864621146E+02 -0.34494012368E+01  0.28654673305E+02  0.36820912146E+02  0.00000000000E+00 0.  1.
         11    1    4    4    0    0  0.18927208972E+01  0.10063659935E+02  0.31230632268E+01  0.10705753960E+02  0.51100000000E-03 0.  1.
        -11    1    4    4    0    0 -0.25375014162E+02 -0.91032730276E+01 -0.26544268777E+02  0.37833307134E+02  0.51100000000E-03 0. -1.
         12    1    4    4    0    0  0.61767211903E+00  0.24890143295E+01 -0.52334677540E+01  0.58280267597E+01  0.00000000000E+00 0. -1.
</event>
<event>
 8    1  0.2472977E-006  0.9118800E+02  0.7816164E-02  0.1184000E+00
        -11   -1    0    0    0    0  0.00000000000E+00  0.00000000000E+00  0.45593999997E+02  0.45594000000E+02  0.51100000000E-03 0.  1.
         11   -1    0    0    0    0 -0.00000000000E+00 -0.00000000000E+00 -0.45593999997E+02  0.45594000000E+02  0.51100000000E-03 0. -1.
         23    2    1    2    0    0 -0.44408920985E-15  0.00000000000E+00  0.00000000000E+00  0.91188000000E+02  0.91188000000E+02 0.  0.
    9900012    2    3    3    0    0  0.11962319862E+01 -0.24655897803E+02 -0.27320884179E+02  0.54367150203E+02  0.40000150517E+02 0.  0.
        -12    1    3    3    0    0 -0.11962319862E+01  0.24655897803E+02  0.27320884179E+02  0.36820849797E+02  0.00000000000E+00 0.  1.
         11    1    4    4    0    0  0.92375617903E+01 -0.88868901816E+01 -0.78421444917E+00  0.12842287861E+02  0.51100000000E-03 0. -1.
        -11    1    4    4    0    0 -0.17577583122E+02 -0.10599339624E+02 -0.20925970068E+02  0.29312346416E+02  0.51100000000E-03 0.  1.
        -12    1    4    4    0    0  0.95362533178E+01 -0.51696679973E+01 -0.56106996620E+01  0.12212515926E+02  0.00000000000E+00 0.  1.
</event>
<event>
 8    1  0.2472977E-006  0.9118800E+02  0.7816164E-02  0.1184000E+00
        -11   -1    0    0    0    0  0.00000000000E+00  0.00000000000E+00  0.45593999997E+02  0.45594000000E+02  0.51100000000E-03 0.  1.
         11   -1    0    0    0    0 -0.00000000000E+00 -0.00000000000E+00 -0.45593999997E+02  0.45594000000E+02  0.51100000000E-03 0. -1.
         23    2    1    2    0    0  0.00000000000E+00  0.00000000000E+00 -0.88817841970E-15  0.91188000000E+02  0.91188000000E+02 0.  0.
    9900012    2    3    3    0    0  0.19950583302E+02  0.30504050399E+02  0.52208267212E+01  0.54367083438E+02  0.39999998313E+02 0.  0.
         12    1    3    3    0    0 -0.19950583302E+02 -0.30504050399E+02 -0.52208267212E+01  0.36820916562E+02  0.00000000000E+00 0. -1.
         11    1    4    4    0    0  0.67001188452E+01  0.36358559155E+01 -0.86848323948E+01  0.11555836394E+02  0.51100000000E-03 0. -1.
        -11    1    4    4    0    0 -0.22179186750E+01  0.12927123084E+02 -0.56161758745E+01  0.14267834671E+02  0.51100000000E-03 0.  1.
        -12    1    4    4    0    0  0.15468383132E+02  0.13941071400E+02  0.19521834991E+02  0.28543412373E+02  0.00000000000E+00 0.  1.
</event>
<event>
 8    1  0.2472977E-006  0.9118800E+02  0.7816164E-02  0.1184000E+00
        -11   -1    0    0    0    0  0.00000000000E+00  0.00000000000E+00  0.45593999997E+02  0.45594000000E+02  0.51100000000E-03 0. -1.
         11   -1    0    0    0    0 -0.00000000000E+00 -0.00000000000E+00 -0.45593999997E+02  0.45594000000E+02  0.51100000000E-03 0.  1.
         23    2    1    2    0    0 -0.66613381478E-15  0.00000000000E+00  0.00000000000E+00  0.91188000000E+02  0.91188000000E+02 0.  0.
    9900012    2    3    3    0    0 -0.13184125105E+01 -0.32565604243E+02  0.17132541061E+02  0.54367071787E+02  0.39999971753E+02 0.  0.
        -12    1    3    3    0    0  0.13184125105E+01  0.32565604243E+02 -0.17132541061E+02  0.36820928213E+02  0.00000000000E+00 0.  1.
         11    1    4    4    0    0 -0.72239179884E+01 -0.56740407984E+00  0.57267534653E+01  0.92359430491E+01  0.51100000000E-03 0.  1.
        -11    1    4    4    0    0 -0.36300867984E+01 -0.13408166715E+02  0.18439294432E+02  0.23086014039E+02  0.51100000000E-03 0. -1.
        -12    1    4    4    0    0  0.95355922763E+01 -0.18590033448E+02 -0.70335068361E+01  0.22045114698E+02  0.00000000000E+00 0.  1.
</event>
<event>
 8    1  0.2472977E-006  0.9118800E+02  0.7816164E-02  0.1184000E+00
        -11   -1    0    0    0    0  0.00000000000E+00  0.00000000000E+00  0.45593999997E+02  0.45594000000E+02  0.51100000000E-03 0. -1.
         11   -1    0    0    0    0 -0.00000000000E+00 -0.00000000000E+00 -0.45593999997E+02  0.45594000000E+02  0.51100000000E-03 0.  1.
         23    2    1    2    0    0  0.00000000000E+00  0.17763568394E-14 -0.88817841970E-15  0.91188000000E+02  0.91188000000E+02 0.  0.
    9900012    2    3    3    0    0  0.35306471027E+02 -0.90221317915E+01  0.52757727078E+01  0.54367088332E+02  0.40000009470E+02 0.  0.
        -12    1    3    3    0    0 -0.35306471027E+02  0.90221317915E+01 -0.52757727078E+01  0.36820911668E+02  0.00000000000E+00 0.  1.
         11    1    4    4    0    0  0.29294245773E+02 -0.80845015242E+01  0.13956165865E+02  0.33440791950E+02  0.51100000000E-03 0. -1.
        -11    1    4    4    0    0  0.12383451415E+02 -0.13264523874E+01 -0.71558187230E+01  0.14363672467E+02  0.51100000000E-03 0.  1.
         12    1    4    4    0    0 -0.63712261617E+01  0.38882212005E+00 -0.15245744340E+01  0.65626239149E+01  0.00000000000E+00 0. -1.
</event>
<event>
 8    1  0.2472977E-006  0.9118800E+02  0.7816164E-02  0.1184000E+00
        -11   -1    0    0    0    0  0.00000000000E+00  0.00000000000E+00  0.45593999997E+02  0.45594000000E+02  0.51100000000E-03 0. -1.
         11   -1    0    0    0    0 -0.00000000000E+00 -0.00000000000E+00 -0.45593999997E+02  0.45594000000E+02  0.51100000000E-03 0.  1.
         23    2    1    2    0    0  0.35527136788E-14  0.35527136788E-14  0.00000000000E+00  0.91188000000E+02  0.91188000000E+02 0.  0.
    9900012    2    3    3    0    0 -0.17737394962E+02 -0.31913992786E+02 -0.47604781938E+01  0.54367078390E+02  0.39999986807E+02 0.  0.
        -12    1    3    3    0    0  0.17737394962E+02  0.31913992786E+02  0.47604781938E+01  0.36820921610E+02  0.00000000000E+00 0.  1.
         11    1    4    4    0    0  0.61077605258E+01  0.11704682680E+01  0.33136207565E+01  0.70466174429E+01  0.51100000000E-03 0. -1.
        -11    1    4    4    0    0 -0.20762243299E+02 -0.15127870137E+02  0.32115743478E+01  0.25888943812E+02  0.51100000000E-03 0.  1.
         12    1    4    4    0    0 -0.30829121886E+01 -0.17956590917E+02 -0.11285673298E+02  0.21431517135E+02  0.00000000000E+00 0. -1.
</event>
<event>
 8    1  0.2472977E-006  0.9118800E+02  0.7816164E-02  0.1184000E+00
        -11   -1    0    0    0    0  0.00000000000E+00  0.00000000000E+00  0.45593999997E+02  0.45594000000E+02  0.51100000000E-03 0. -1.
         11   -1    0    0    0    0 -0.00000000000E+00 -0.00000000000E+00 -0.45593999997E+02  0.45594000000E+02  0.51100000000E-03 0.  1.
         23    2    1    2    0    0  0.00000000000E+00  0.00000000000E+00  0.71054273576E-14  0.91188000000E+02  0.91188000000E+02 0.  0.
    9900012    2    3    3    0    0 -0.11363117968E+02  0.13735304379E+02  0.32218022242E+02  0.54367082120E+02  0.39999995309E+02 0.  0.
        -12    1    3    3    0    0  0.11363117968E+02 -0.13735304379E+02 -0.32218022242E+02  0.36820917880E+02  0.00000000000E+00 0.  1.
         11    1    4    4    0    0 -0.72424153044E+01  0.47674437306E+00  0.26573855396E+02  0.27547225913E+02  0.51100000000E-03 0. -1.
        -11    1    4    4    0    0 -0.55460343445E+01  0.16606354290E+02 -0.27017915890E+01  0.17715224464E+02  0.51100000000E-03 0.  1.
        -12    1    4    4    0    0  0.14253316805E+01 -0.33477942848E+01  0.83459584353E+01  0.91046317431E+01  0.00000000000E+00 0.  1.
</event>
<event>
 8    1  0.2472977E-006  0.9118800E+02  0.7816164E-02  0.1184000E+00
        -11   -1    0    0    0    0  0.00000000000E+00  0.00000000000E+00  0.45593999997E+02  0.45594000000E+02  0.51100000000E-03 0. -1.
         11   -1    0    0    0    0 -0.00000000000E+00 -0.00000000000E+00 -0.45593999997E+02  0.45594000000E+02  0.51100000000E-03 0.  1.
         23    2    1    2    0    0 -0.35527136788E-14  0.00000000000E+00 -0.17763568394E-14  0.91188000000E+02  0.91188000000E+02 0.  0.
    9900012    2    3    3    0    0 -0.23873655186E+02  0.23878818771E+02 -0.14684333833E+02  0.54367094825E+02  0.40000024272E+02 0.  0.
         12    1    3    3    0    0  0.23873655186E+02 -0.23878818771E+02  0.14684333833E+02  0.36820905175E+02  0.00000000000E+00 0. -1.
         11    1    4    4    0    0 -0.14216894694E+01  0.83477119444E-02  0.46999441232E+00  0.14973862697E+01  0.51100000000E-03 0. -1.
        -11    1    4    4    0    0 -0.18826014956E+02  0.17510045879E+02  0.93017605844E+01  0.27341238012E+02  0.51100000000E-03 0.  1.
         12    1    4    4    0    0 -0.36259507602E+01  0.63604251797E+01 -0.24456088830E+02  0.25528470543E+02  0.00000000000E+00 0. -1.
</event>
<event>
 8    1  0.2472977E-006  0.9118800E+02  0.7816164E-02  0.1184000E+00
        -11   -1    0    0    0    0  0.00000000000E+00  0.00000000000E+00  0.45593999997E+02  0.45594000000E+02  0.51100000000E-03 0.  1.
         11   -1    0    0    0    0 -0.00000000000E+00 -0.00000000000E+00 -0.45593999997E+02  0.45594000000E+02  0.51100000000E-03 0. -1.
         23    2    1    2    0    0  0.00000000000E+00 -0.17763568394E-14  0.00000000000E+00  0.91188000000E+02  0.91188000000E+02 0.  0.
    9900012    2    3    3    0    0 -0.29146125670E+02  0.14883684901E+02  0.16874798717E+02  0.54367088149E+02  0.40000009053E+02 0.  0.
         12    1    3    3    0    0  0.29146125670E+02 -0.14883684901E+02 -0.16874798717E+02  0.36820911851E+02  0.00000000000E+00 0. -1.
         11    1    4    4    0    0 -0.20381982507E+02  0.21089529080E+01 -0.80832815047E+01  0.22027535800E+02  0.51100000000E-03 0. -1.
        -11    1    4    4    0    0 -0.80291988657E+01  0.99299618804E+01  0.26202558864E+02  0.29148692401E+02  0.51100000000E-03 0.  1.
        -12    1    4    4    0    0 -0.73494429707E+00  0.28447701129E+01 -0.12444786429E+01  0.31908599480E+01  0.00000000000E+00 0.  1.
</event>
<event>
 8    1  0.2472977E-006  0.9118800E+02  0.7816164E-02  0.1184000E+00
        -11   -1    0    0    0    0  0.00000000000E+00  0.00000000000E+00  0.45593999997E+02  0.45594000000E+02  0.51100000000E-03 0. -1.
         11   -1    0    0    0    0 -0.00000000000E+00 -0.00000000000E+00 -0.45593999997E+02  0.45594000000E+02  0.51100000000E-03 0.  1.
         23    2    1    2    0    0  0.88817841970E-15  0.00000000000E+00 -0.71054273576E-14  0.91188000000E+02  0.91188000000E+02 0.  0.
    9900012    2    3    3    0    0  0.48029307301E+01  0.10350175541E+02 -0.35008338266E+02  0.54367108844E+02  0.40000056233E+02 0.  0.
         12    1    3    3    0    0 -0.48029307301E+01 -0.10350175541E+02  0.35008338266E+02  0.36820891156E+02  0.00000000000E+00 0. -1.
         11    1    4    4    0    0  0.28357515767E+01  0.52551772824E+01 -0.17108290547E+00  0.59739137001E+01  0.51100000000E-03 0. -1.
        -11    1    4    4    0    0  0.95825705031E+01  0.13765034358E+02 -0.32567330216E+02  0.36632401313E+02  0.51100000000E-03 0.  1.
        -12    1    4    4    0    0 -0.76153913497E+01 -0.86700360993E+01 -0.22699251445E+01  0.11760793831E+02  0.00000000000E+00 0.  1.
</event>
<event>
 8    1  0.2472977E-006  0.9118800E+02  0.7816164E-02  0.1184000E+00
        -11   -1    0    0    0    0  0.00000000000E+00  0.00000000000E+00  0.45593999997E+02  0.45594000000E+02  0.51100000000E-03 0. -1.
         11   -1    0    0    0    0 -0.00000000000E+00 -0.00000000000E+00 -0.45593999997E+02  0.45594000000E+02  0.51100000000E-03 0.  1.
         23    2    1    2    0    0 -0.35527136788E-14 -0.35527136788E-14  0.35527136788E-14  0.91188000000E+02  0.91188000000E+02 0.  0.
    9900012    2    3    3    0    0  0.19359258205E+02  0.18485958812E+02 -0.25283739361E+02  0.54367095237E+02  0.40000025212E+02 0.  0.
         12    1    3    3    0    0 -0.19359258205E+02 -0.18485958812E+02  0.25283739361E+02  0.36820904763E+02  0.00000000000E+00 0. -1.
         11    1    4    4    0    0  0.13141882319E+01  0.25139409943E+00 -0.14822062604E+02  0.14882332808E+02  0.51100000000E-03 0. -1.
        -11    1    4    4    0    0  0.95354852908E+01  0.74210323275E+00 -0.16538726217E+02  0.19105121357E+02  0.51100000000E-03 0.  1.
         12    1    4    4    0    0  0.85095846823E+01  0.17492461480E+02  0.60770494594E+01  0.20379641072E+02  0.00000000000E+00 0. -1.
</event>
<event>
 8    1  0.2472977E-006  0.9118800E+02  0.7816164E-02  0.1184000E+00
        -11   -1    0    0    0    0  0.00000000000E+00  0.00000000000E+00  0.45593999997E+02  0.45594000000E+02  0.51100000000E-03 0. -1.
         11   -1    0    0    0    0 -0.00000000000E+00 -0.00000000000E+00 -0.45593999997E+02  0.45594000000E+02  0.51100000000E-03 0.  1.
         23    2    1    2    0    0  0.00000000000E+00  0.35527136788E-14  0.11102230246E-14  0.91188000000E+02  0.91188000000E+02 0.  0.
    9900012    2    3    3    0    0  0.25936535557E+02  0.26119454258E+02  0.92193501463E+00  0.54367085676E+02  0.40000003416E+02 0.  0.
        -12    1    3    3    0    0 -0.25936535557E+02 -0.26119454258E+02 -0.92193501463E+00  0.36820914324E+02  0.00000000000E+00 0.  1.
         11    1    4    4    0    0  0.14280123087E+02  0.25720761258E+02  0.14720529428E+02  0.32896405000E+02  0.51100000000E-03 0. -1.
        -11    1    4    4    0    0  0.53273507535E-01  0.10471933414E+01 -0.87290713403E+01  0.87918222620E+01  0.51100000000E-03 0.  1.
         12    1    4    4    0    0  0.11603138963E+02 -0.64850034084E+00 -0.50695230730E+01  0.12678858414E+02  0.00000000000E+00 0. -1.
</event>
<event>
 8    1  0.2472977E-006  0.9118800E+02  0.7816164E-02  0.1184000E+00
        -11   -1    0    0    0    0  0.00000000000E+00  0.00000000000E+00  0.45593999997E+02  0.45594000000E+02  0.51100000000E-03 0.  1.
         11   -1    0    0    0    0 -0.00000000000E+00 -0.00000000000E+00 -0.45593999997E+02  0.45594000000E+02  0.51100000000E-03 0. -1.
         23    2    1    2    0    0  0.35527136788E-14  0.00000000000E+00  0.88817841970E-15  0.91188000000E+02  0.91188000000E+02 0.  0.
    9900012    2    3    3    0    0 -0.31236227843E+02 -0.19068163020E+02 -0.40601294359E+01  0.54367062724E+02  0.39999951093E+02 0.  0.
         12    1    3    3    0    0  0.31236227843E+02  0.19068163020E+02  0.40601294359E+01  0.36820937276E+02  0.00000000000E+00 0. -1.
         11    1    4    4    0    0 -0.22287272819E+02 -0.50154743961E+01 -0.52422781180E+01  0.23438408505E+02  0.51100000000E-03 0. -1.
        -11    1    4    4    0    0  0.61132339811E+00 -0.12212133395E+02  0.11469447467E+02  0.16764788809E+02  0.51100000000E-03 0.  1.
         12    1    4    4    0    0 -0.95602784226E+01 -0.18405552288E+01 -0.10287298785E+02  0.14163865410E+02  0.00000000000E+00 0. -1.
</event>
<event>
 8    1  0.2472977E-006  0.9118800E+02  0.7816164E-02  0.1184000E+00
        -11   -1    0    0    0    0  0.00000000000E+00  0.00000000000E+00  0.45593999997E+02  0.45594000000E+02  0.51100000000E-03 0.  1.
         11   -1    0    0    0    0 -0.00000000000E+00 -0.00000000000E+00 -0.45593999997E+02  0.45594000000E+02  0.51100000000E-03 0. -1.
         23    2    1    2    0    0  0.00000000000E+00  0.83266726847E-15  0.00000000000E+00  0.91188000000E+02  0.91188000000E+02 0.  0.
    9900012    2    3    3    0    0  0.30277538194E+02 -0.38449438656E+00  0.20950021366E+02  0.54367074560E+02  0.39999978075E+02 0.  0.
         12    1    3    3    0    0 -0.30277538194E+02  0.38449438656E+00 -0.20950021366E+02  0.36820925440E+02  0.00000000000E+00 0. -1.
         11    1    4    4    0    0 -0.51106059729E+01  0.51617018831E+01  0.64030795574E+01  0.96830205938E+01  0.51100000000E-03 0. -1.
        -11    1    4    4    0    0  0.38686856130E+00 -0.71632708019E+01  0.17728400641E+01  0.73895248845E+01  0.51100000000E-03 0.  1.
        -12    1    4    4    0    0  0.35001275606E+02  0.16170745322E+01  0.12774101744E+02  0.37294529082E+02  0.00000000000E+00 0.  1.
</event>
<event>
 8    1  0.2472977E-006  0.9118800E+02  0.7816164E-02  0.1184000E+00
        -11   -1    0    0    0    0  0.00000000000E+00  0.00000000000E+00  0.45593999997E+02  0.45594000000E+02  0.51100000000E-03 0. -1.
         11   -1    0    0    0    0 -0.00000000000E+00 -0.00000000000E+00 -0.45593999997E+02  0.45594000000E+02  0.51100000000E-03 0.  1.
         23    2    1    2    0    0 -0.17763568394E-14 -0.83266726847E-15  0.71054273576E-14  0.91188000000E+02  0.91188000000E+02 0.  0.
    9900012    2    3    3    0    0  0.14315239637E+02  0.33365090865E+00 -0.33922571851E+02  0.54367105256E+02  0.40000048052E+02 0.  0.
         12    1    3    3    0    0 -0.14315239637E+02 -0.33365090865E+00  0.33922571851E+02  0.36820894744E+02  0.00000000000E+00 0. -1.
         11    1    4    4    0    0 -0.92866672971E+00 -0.11018012335E+02 -0.23196798995E+01  0.11297784420E+02  0.51100000000E-03 0. -1.
        -11    1    4    4    0    0  0.15572875677E+02  0.29240089522E+01 -0.30749924148E+02  0.34592226303E+02  0.51100000000E-03 0.  1.
        -12    1    4    4    0    0 -0.32896931038E+00  0.84276542911E+01 -0.85296780269E+00  0.84770945335E+01  0.00000000000E+00 0.  1.
</event>
<event>
 8    1  0.2472977E-006  0.9118800E+02  0.7816164E-02  0.1184000E+00
        -11   -1    0    0    0    0  0.00000000000E+00  0.00000000000E+00  0.45593999997E+02  0.45594000000E+02  0.51100000000E-03 0.  1.
         11   -1    0    0    0    0 -0.00000000000E+00 -0.00000000000E+00 -0.45593999997E+02  0.45594000000E+02  0.51100000000E-03 0. -1.
         23    2    1    2    0    0  0.00000000000E+00  0.11102230246E-15  0.35527136788E-14  0.91188000000E+02  0.91188000000E+02 0.  0.
    9900012    2    3    3    0    0 -0.31497244838E+02  0.71624653252E+00 -0.19057555941E+02  0.54367083662E+02  0.39999998825E+02 0.  0.
        -12    1    3    3    0    0  0.31497244838E+02 -0.71624653252E+00  0.19057555941E+02  0.36820916338E+02  0.00000000000E+00 0.  1.
         11    1    4    4    0    0  0.48385973486E+00  0.71515134553E+01  0.50479078577E+01  0.87669629260E+01  0.51100000000E-03 0. -1.
        -11    1    4    4    0    0 -0.31137416558E+02  0.29506248912E-01 -0.15438174188E+02  0.34754522051E+02  0.51100000000E-03 0.  1.
         12    1    4    4    0    0 -0.84368801547E+00 -0.64647731717E+01 -0.86672896114E+01  0.10845598685E+02  0.00000000000E+00 0. -1.
</event>
<event>
 8    1  0.2472977E-006  0.9118800E+02  0.7816164E-02  0.1184000E+00
        -11   -1    0    0    0    0  0.00000000000E+00  0.00000000000E+00  0.45593999997E+02  0.45594000000E+02  0.51100000000E-03 0.  1.
         11   -1    0    0    0    0 -0.00000000000E+00 -0.00000000000E+00 -0.45593999997E+02  0.45594000000E+02  0.51100000000E-03 0. -1.
         23    2    1    2    0    0  0.00000000000E+00 -0.17763568394E-14 -0.35527136788E-14  0.91188000000E+02  0.91188000000E+02 0.  0.
    9900012    2    3    3    0    0  0.30644640958E+02  0.11796410869E+02 -0.16659240011E+02  0.54367087374E+02  0.40000007288E+02 0.  0.
         12    1    3    3    0    0 -0.30644640958E+02 -0.11796410869E+02  0.16659240011E+02  0.36820912626E+02  0.00000000000E+00 0. -1.
         11    1    4    4    0    0  0.11244912381E+02 -0.11835053392E+01  0.18171805062E+01  0.11452112670E+02  0.51100000000E-03 0. -1.
        -11    1    4    4    0    0 -0.81585366725E+01 -0.25366507498E+00 -0.38091935541E+01  0.90075536302E+01  0.51100000000E-03 0.  1.
         12    1    4    4    0    0  0.27558265250E+02  0.13233581283E+02 -0.14667226963E+02  0.33907421074E+02  0.00000000000E+00 0. -1.
</event>
<event>
 8    1  0.2472977E-006  0.9118800E+02  0.7816164E-02  0.1184000E+00
        -11   -1    0    0    0    0  0.00000000000E+00  0.00000000000E+00  0.45593999997E+02  0.45594000000E+02  0.51100000000E-03 0. -1.
         11   -1    0    0    0    0 -0.00000000000E+00 -0.00000000000E+00 -0.45593999997E+02  0.45594000000E+02  0.51100000000E-03 0.  1.
         23    2    1    2    0    0  0.00000000000E+00 -0.88817841970E-15  0.00000000000E+00  0.91188000000E+02  0.91188000000E+02 0.  0.
    9900012    2    3    3    0    0  0.22843340540E+02 -0.61368909848E+01  0.28218808694E+02  0.54367071140E+02  0.39999970279E+02 0.  0.
        -12    1    3    3    0    0 -0.22843340540E+02  0.61368909848E+01 -0.28218808694E+02  0.36820928860E+02  0.00000000000E+00 0.  1.
         11    1    4    4    0    0  0.20157517238E+02 -0.16643420981E+02  0.23062220091E+02  0.34859646570E+02  0.51100000000E-03 0. -1.
        -11    1    4    4    0    0  0.76522201314E+01  0.84038151615E+01  0.75103352163E+01  0.13622984898E+02  0.51100000000E-03 0.  1.
         12    1    4    4    0    0 -0.49663968292E+01  0.21027148344E+01 -0.23537466141E+01  0.58844396729E+01  0.00000000000E+00 0. -1.
</event>
<event>
 8    1  0.2472977E-006  0.9118800E+02  0.7816164E-02  0.1184000E+00
        -11   -1    0    0    0    0  0.00000000000E+00  0.00000000000E+00  0.45593999997E+02  0.45594000000E+02  0.51100000000E-03 0.  1.
         11   -1    0    0    0    0 -0.00000000000E+00 -0.00000000000E+00 -0.45593999997E+02  0.45594000000E+02  0.51100000000E-03 0. -1.
         23    2    1    2    0    0  0.00000000000E+00  0.00000000000E+00  0.35527136788E-14  0.91188000000E+02  0.91188000000E+02 0.  0.
    9900012    2    3    3    0    0  0.73617387438E+00  0.34891102914E+02 -0.11741000143E+02  0.54367053531E+02  0.39999930135E+02 0.  0.
        -12    1    3    3    0    0 -0.73617387438E+00 -0.34891102914E+02  0.11741000143E+02  0.36820946469E+02  0.00000000000E+00 0.  1.
         11    1    4    4    0    0  0.51627233017E+00  0.12172552732E+02  0.13922976440E+02  0.18500995929E+02  0.51100000000E-03 0.  1.
        -11    1    4    4    0    0 -0.88935859582E+00  0.14114253744E+02 -0.81535494743E+01  0.16324321939E+02  0.51100000000E-03 0. -1.
         12    1    4    4    0    0  0.11092601400E+01  0.86042964375E+01 -0.17510427109E+02  0.19541735664E+02  0.00000000000E+00 0. -1.
</event>
<event>
 8    1  0.2472977E-006  0.9118800E+02  0.7816164E-02  0.1184000E+00
        -11   -1    0    0    0    0  0.00000000000E+00  0.00000000000E+00  0.45593999997E+02  0.45594000000E+02  0.51100000000E-03 0.  1.
         11   -1    0    0    0    0 -0.00000000000E+00 -0.00000000000E+00 -0.45593999997E+02  0.45594000000E+02  0.51100000000E-03 0. -1.
         23    2    1    2    0    0 -0.17763568394E-14  0.00000000000E+00  0.00000000000E+00  0.91188000000E+02  0.91188000000E+02 0.  0.
    9900012    2    3    3    0    0 -0.44011782065E+01  0.92441939380E+01 -0.35368848681E+02  0.54367069156E+02  0.39999965755E+02 0.  0.
        -12    1    3    3    0    0  0.44011782065E+01 -0.92441939380E+01  0.35368848681E+02  0.36820930844E+02  0.00000000000E+00 0.  1.
         11    1    4    4    0    0  0.56952929232E+01  0.12362383696E+02 -0.14388133659E+02  0.19806142547E+02  0.51100000000E-03 0. -1.
        -11    1    4    4    0    0 -0.14949445944E+02 -0.10309145262E+02 -0.10578527116E+02  0.21015937911E+02  0.51100000000E-03 0.  1.
        -12    1    4    4    0    0  0.48529748142E+01  0.71909555043E+01 -0.10402187906E+02  0.13544988699E+02  0.00000000000E+00 0.  1.
</event>
<event>
 8    1  0.2472977E-006  0.9118800E+02  0.7816164E-02  0.1184000E+00
        -11   -1    0    0    0    0  0.00000000000E+00  0.00000000000E+00  0.45593999997E+02  0.45594000000E+02  0.51100000000E-03 0.  1.
         11   -1    0    0    0    0 -0.00000000000E+00 -0.00000000000E+00 -0.45593999997E+02  0.45594000000E+02  0.51100000000E-03 0. -1.
         23    2    1    2    0    0  0.35527136788E-14  0.00000000000E+00 -0.35527136788E-14  0.91188000000E+02  0.91188000000E+02 0.  0.
    9900012    2    3    3    0    0  0.19122761741E+02 -0.26015159666E+02 -0.17700623148E+02  0.54367073764E+02  0.39999976260E+02 0.  0.
         12    1    3    3    0    0 -0.19122761741E+02  0.26015159666E+02  0.17700623148E+02  0.36820926236E+02  0.00000000000E+00 0. -1.
         11    1    4    4    0    0  0.24723772061E+01  0.41886688726E+01 -0.76860914918E+00  0.49242620014E+01  0.51100000000E-03 0. -1.
        -11    1    4    4    0    0 -0.82915872134E+01 -0.27564509465E+01 -0.15934208646E+00  0.87392122356E+01  0.51100000000E-03 0.  1.
        -12    1    4    4    0    0  0.24941971749E+02 -0.27447377592E+02 -0.16772671912E+02  0.40703599527E+02  0.00000000000E+00 0.  1.
</event>
<event>
 8    1  0.2472977E-006  0.9118800E+02  0.7816164E-02  0.1184000E+00
        -11   -1    0    0    0    0  0.00000000000E+00  0.00000000000E+00  0.45593999997E+02  0.45594000000E+02  0.51100000000E-03 0.  1.
         11   -1    0    0    0    0 -0.00000000000E+00 -0.00000000000E+00 -0.45593999997E+02  0.45594000000E+02  0.51100000000E-03 0. -1.
         23    2    1    2    0    0  0.00000000000E+00  0.18041124150E-14  0.00000000000E+00  0.91188000000E+02  0.91188000000E+02 0.  0.
    9900012    2    3    3    0    0 -0.11920632872E+02  0.18028426872E+00  0.34837422182E+02  0.54367082375E+02  0.39999995890E+02 0.  0.
         12    1    3    3    0    0  0.11920632872E+02 -0.18028426872E+00 -0.34837422182E+02  0.36820917625E+02  0.00000000000E+00 0. -1.
         11    1    4    4    0    0 -0.80557296308E+01  0.91122497549E+01  0.67113692542E+01  0.13891376930E+02  0.51100000000E-03 0. -1.
        -11    1    4    4    0    0 -0.13342162231E+02  0.24182983690E+01  0.18077689358E+02  0.22597882927E+02  0.51100000000E-03 0.  1.
         12    1    4    4    0    0  0.94772589901E+01 -0.11350263855E+02  0.10048363570E+02  0.17877822518E+02  0.00000000000E+00 0. -1.
</event>
<event>
 8    1  0.2472977E-006  0.9118800E+02  0.7816164E-02  0.1184000E+00
        -11   -1    0    0    0    0  0.00000000000E+00  0.00000000000E+00  0.45593999997E+02  0.45594000000E+02  0.51100000000E-03 0. -1.
         11   -1    0    0    0    0 -0.00000000000E+00 -0.00000000000E+00 -0.45593999997E+02  0.45594000000E+02  0.51100000000E-03 0.  1.
         23    2    1    2    0    0  0.00000000000E+00  0.33306690739E-15 -0.71054273576E-14  0.91188000000E+02  0.91188000000E+02 0.  0.
    9900012    2    3    3    0    0  0.12988831800E+02  0.56446112529E+00  0.34449236967E+02  0.54367105178E+02  0.40000047874E+02 0.  0.
        -12    1    3    3    0    0 -0.12988831800E+02 -0.56446112529E+00 -0.34449236967E+02  0.36820894822E+02  0.00000000000E+00 0.  1.
         11    1    4    4    0    0  0.45410223480E+01  0.70402662469E+01  0.17957241266E+02  0.19815366434E+02  0.51100000000E-03 0. -1.
        -11    1    4    4    0    0  0.10988416932E+02  0.92918806002E+01  0.78912698775E+01  0.16412083728E+02  0.51100000000E-03 0.  1.
        -12    1    4    4    0    0 -0.25406074800E+01 -0.15767685722E+02  0.86007258240E+01  0.18139655016E+02  0.00000000000E+00 0.  1.
</event>
<event>
 8    1  0.2472977E-006  0.9118800E+02  0.7816164E-02  0.1184000E+00
        -11   -1    0    0    0    0  0.00000000000E+00  0.00000000000E+00  0.45593999997E+02  0.45594000000E+02  0.51100000000E-03 0. -1.
         11   -1    0    0    0    0 -0.00000000000E+00 -0.00000000000E+00 -0.45593999997E+02  0.45594000000E+02  0.51100000000E-03 0.  1.
         23    2    1    2    0    0 -0.44408920985E-15  0.35527136788E-14 -0.35527136788E-14  0.91188000000E+02  0.91188000000E+02 0.  0.
    9900012    2    3    3    0    0  0.15869921256E+01 -0.19272350699E+02 -0.31334123610E+02  0.54367226680E+02  0.40000324860E+02 0.  0.
         12    1    3    3    0    0 -0.15869921256E+01  0.19272350699E+02  0.31334123610E+02  0.36820773320E+02  0.00000000000E+00 0. -1.
         11    1    4    4    0    0  0.10576510817E+02 -0.11711645548E+02  0.20456496516E+01  0.15912570668E+02  0.51100000000E-03 0. -1.
        -11    1    4    4    0    0 -0.65054988298E+01 -0.38874622577E+01 -0.36783077305E+01  0.84240029588E+01  0.51100000000E-03 0.  1.
         12    1    4    4    0    0 -0.24840198619E+01 -0.36732428931E+01 -0.29701465532E+02  0.30030653052E+02  0.00000000000E+00 0. -1.
</event>
<event>
 8    1  0.2472977E-006  0.9118800E+02  0.7816164E-02  0.1184000E+00
        -11   -1    0    0    0    0  0.00000000000E+00  0.00000000000E+00  0.45593999997E+02  0.45594000000E+02  0.51100000000E-03 0.  1.
         11   -1    0    0    0    0 -0.00000000000E+00 -0.00000000000E+00 -0.45593999997E+02  0.45594000000E+02  0.51100000000E-03 0. -1.
         23    2    1    2    0    0 -0.35527136788E-14 -0.35527136788E-14  0.17763568394E-14  0.91188000000E+02  0.91188000000E+02 0.  0.
    9900012    2    3    3    0    0 -0.18688755394E+02 -0.28507036116E+02 -0.13923346362E+02  0.54367078498E+02  0.39999987053E+02 0.  0.
        -12    1    3    3    0    0  0.18688755394E+02  0.28507036116E+02  0.13923346362E+02  0.36820921502E+02  0.00000000000E+00 0.  1.
         11    1    4    4    0    0  0.41719188682E+01 -0.32276952257E+01  0.13614875227E+01  0.54476207695E+01  0.51100000000E-03 0. -1.
        -11    1    4    4    0    0  0.52724689290E+01  0.25231859656E+01 -0.58223201975E+01  0.82501399241E+01  0.51100000000E-03 0.  1.
         12    1    4    4    0    0 -0.28133143192E+02 -0.27802526856E+02 -0.94625136872E+01  0.40669317805E+02  0.00000000000E+00 0. -1.
</event>
<event>
 8    1  0.2472977E-006  0.9118800E+02  0.7816164E-02  0.1184000E+00
        -11   -1    0    0    0    0  0.00000000000E+00  0.00000000000E+00  0.45593999997E+02  0.45594000000E+02  0.51100000000E-03 0. -1.
         11   -1    0    0    0    0 -0.00000000000E+00 -0.00000000000E+00 -0.45593999997E+02  0.45594000000E+02  0.51100000000E-03 0.  1.
         23    2    1    2    0    0  0.17763568394E-14  0.35527136788E-14 -0.53290705182E-14  0.91188000000E+02  0.91188000000E+02 0.  0.
    9900012    2    3    3    0    0 -0.15886302742E+02 -0.29776372518E+02  0.14723216197E+02  0.54367081077E+02  0.39999992930E+02 0.  0.
        -12    1    3    3    0    0  0.15886302742E+02  0.29776372518E+02 -0.14723216197E+02  0.36820918923E+02  0.00000000000E+00 0.  1.
         11    1    4    4    0    0 -0.10414645872E+02 -0.10263313870E+02 -0.11938544251E+02  0.18876686662E+02  0.51100000000E-03 0. -1.
        -11    1    4    4    0    0  0.22331981192E+01 -0.12109501715E+01  0.40879249586E+00  0.25730693195E+01  0.51100000000E-03 0.  1.
         12    1    4    4    0    0 -0.77048549899E+01 -0.18302108477E+02  0.26252967952E+02  0.32917325095E+02  0.00000000000E+00 0. -1.
</event>
<event>
 8    1  0.2472977E-006  0.9118800E+02  0.7816164E-02  0.1184000E+00
        -11   -1    0    0    0    0  0.00000000000E+00  0.00000000000E+00  0.45593999997E+02  0.45594000000E+02  0.51100000000E-03 0. -1.
         11   -1    0    0    0    0 -0.00000000000E+00 -0.00000000000E+00 -0.45593999997E+02  0.45594000000E+02  0.51100000000E-03 0.  1.
         23    2    1    2    0    0  0.35527136788E-14  0.00000000000E+00 -0.88817841970E-15  0.91188000000E+02  0.91188000000E+02 0.  0.
    9900012    2    3    3    0    0  0.29797391958E+02 -0.21195329261E+02  0.43188886904E+01  0.54367090865E+02  0.40000015245E+02 0.  0.
        -12    1    3    3    0    0 -0.29797391958E+02  0.21195329261E+02 -0.43188886904E+01  0.36820909135E+02  0.00000000000E+00 0.  1.
         11    1    4    4    0    0  0.21606618153E+02 -0.10420992365E+02 -0.33996294203E+01  0.24228093411E+02  0.51100000000E-03 0.  1.
        -11    1    4    4    0    0  0.14875012033E+02 -0.13677030926E+02  0.99414423781E+01  0.22520200593E+02  0.51100000000E-03 0. -1.
        -12    1    4    4    0    0 -0.66842382274E+01  0.29026940300E+01 -0.22229242674E+01  0.76187968611E+01  0.00000000000E+00 0.  1.
</event>
<event>
 8    1  0.2472977E-006  0.9118800E+02  0.7816164E-02  0.1184000E+00
        -11   -1    0    0    0    0  0.00000000000E+00  0.00000000000E+00  0.45593999997E+02  0.45594000000E+02  0.51100000000E-03 0. -1.
         11   -1    0    0    0    0 -0.00000000000E+00 -0.00000000000E+00 -0.45593999997E+02  0.45594000000E+02  0.51100000000E-03 0.  1.
         23    2    1    2    0    0  0.00000000000E+00  0.00000000000E+00  0.00000000000E+00  0.91188000000E+02  0.91188000000E+02 0.  0.
    9900012    2    3    3    0    0  0.20362939618E+02 -0.29671144579E+02 -0.77952858113E+01  0.54366910779E+02  0.39999604702E+02 0.  0.
         12    1    3    3    0    0 -0.20362939618E+02  0.29671144579E+02  0.77952858113E+01  0.36821089221E+02  0.00000000000E+00 0. -1.
         11    1    4    4    0    0  0.26171171238E+01  0.15719851608E+00  0.25105444246E+01  0.36299926973E+01  0.51100000000E-03 0. -1.
        -11    1    4    4    0    0  0.13242067263E+02  0.27912177930E+01  0.49965891661E+01  0.14425988553E+02  0.51100000000E-03 0.  1.
        -12    1    4    4    0    0  0.45037552304E+01 -0.32619560888E+02 -0.15302419402E+02  0.36310929529E+02  0.00000000000E+00 0.  1.
</event>
<event>
 8    1  0.2472977E-006  0.9118800E+02  0.7816164E-02  0.1184000E+00
        -11   -1    0    0    0    0  0.00000000000E+00  0.00000000000E+00  0.45593999997E+02  0.45594000000E+02  0.51100000000E-03 0.  1.
         11   -1    0    0    0    0 -0.00000000000E+00 -0.00000000000E+00 -0.45593999997E+02  0.45594000000E+02  0.51100000000E-03 0. -1.
         23    2    1    2    0    0 -0.17763568394E-14  0.00000000000E+00  0.00000000000E+00  0.91188000000E+02  0.91188000000E+02 0.  0.
    9900012    2    3    3    0    0 -0.15405480144E+02 -0.25201468359E+02  0.21984935577E+02  0.54367079068E+02  0.39999988352E+02 0.  0.
         12    1    3    3    0    0  0.15405480144E+02  0.25201468359E+02 -0.21984935577E+02  0.36820920932E+02  0.00000000000E+00 0. -1.
         11    1    4    4    0    0 -0.61494391008E+01  0.24380483343E+01  0.92327683912E+01  0.11357979282E+02  0.51100000000E-03 0. -1.
        -11    1    4    4    0    0  0.38241404598E+01 -0.25947950311E+02  0.14053365940E+02  0.29755961925E+02  0.51100000000E-03 0.  1.
        -12    1    4    4    0    0 -0.13080181503E+02 -0.16915663829E+01 -0.13011987543E+01  0.13253137862E+02  0.00000000000E+00 0.  1.
</event>
<event>
 8    1  0.2472977E-006  0.9118800E+02  0.7816164E-02  0.1184000E+00
        -11   -1    0    0    0    0  0.00000000000E+00  0.00000000000E+00  0.45593999997E+02  0.45594000000E+02  0.51100000000E-03 0.  1.
         11   -1    0    0    0    0 -0.00000000000E+00 -0.00000000000E+00 -0.45593999997E+02  0.45594000000E+02  0.51100000000E-03 0. -1.
         23    2    1    2    0    0  0.00000000000E+00  0.00000000000E+00  0.00000000000E+00  0.91188000000E+02  0.91188000000E+02 0.  0.
    9900012    2    3    3    0    0 -0.19586612553E+02 -0.21947491328E+02  0.22146089732E+02  0.54367121991E+02  0.40000086203E+02 0.  0.
         12    1    3    3    0    0  0.19586612553E+02  0.21947491328E+02 -0.22146089732E+02  0.36820878009E+02  0.00000000000E+00 0. -1.
         11    1    4    4    0    0  0.72681922465E+01 -0.23271016865E+01 -0.43026352802E+01  0.87609754826E+01  0.51100000000E-03 0. -1.
        -11    1    4    4    0    0 -0.14430317313E+02 -0.19469219654E+02  0.20886177909E+02  0.31992452229E+02  0.51100000000E-03 0.  1.
        -12    1    4    4    0    0 -0.12424487487E+02 -0.15116998738E+00  0.55625471031E+01  0.13613694280E+02  0.00000000000E+00 0.  1.
</event>
<event>
 8    1  0.2472977E-006  0.9118800E+02  0.7816164E-02  0.1184000E+00
        -11   -1    0    0    0    0  0.00000000000E+00  0.00000000000E+00  0.45593999997E+02  0.45594000000E+02  0.51100000000E-03 0.  1.
         11   -1    0    0    0    0 -0.00000000000E+00 -0.00000000000E+00 -0.45593999997E+02  0.45594000000E+02  0.51100000000E-03 0. -1.
         23    2    1    2    0    0  0.00000000000E+00  0.00000000000E+00 -0.11102230246E-15  0.91188000000E+02  0.91188000000E+02 0.  0.
    9900012    2    3    3    0    0 -0.36162127962E+02 -0.69057133316E+01 -0.62349261186E+00  0.54367121162E+02  0.40000084313E+02 0.  0.
        -12    1    3    3    0    0  0.36162127962E+02  0.69057133316E+01  0.62349261186E+00  0.36820878838E+02  0.00000000000E+00 0.  1.
         11    1    4    4    0    0 -0.23526003696E+02 -0.32071311871E+01  0.17958441152E+01  0.23811417360E+02  0.51100000000E-03 0. -1.
        -11    1    4    4    0    0 -0.21164425965E+02 -0.18935514915E+00 -0.71420151416E+00  0.21177319610E+02  0.51100000000E-03 0.  1.
        -12    1    4    4    0    0  0.85283016985E+01 -0.35092269954E+01 -0.17051352128E+01  0.93783841924E+01  0.00000000000E+00 0.  1.
</event>
<event>
 8    1  0.2472977E-006  0.9118800E+02  0.7816164E-02  0.1184000E+00
        -11   -1    0    0    0    0  0.00000000000E+00  0.00000000000E+00  0.45593999997E+02  0.45594000000E+02  0.51100000000E-03 0.  1.
         11   -1    0    0    0    0 -0.00000000000E+00 -0.00000000000E+00 -0.45593999997E+02  0.45594000000E+02  0.51100000000E-03 0. -1.
         23    2    1    2    0    0  0.00000000000E+00  0.00000000000E+00  0.00000000000E+00  0.91188000000E+02  0.91188000000E+02 0.  0.
    9900012    2    3    3    0    0  0.21641043165E+02 -0.23447997974E+02  0.18374884765E+02  0.54367085449E+02  0.40000002898E+02 0.  0.
         12    1    3    3    0    0 -0.21641043165E+02  0.23447997974E+02 -0.18374884765E+02  0.36820914551E+02  0.00000000000E+00 0. -1.
         11    1    4    4    0    0  0.74651276716E+01 -0.80815428709E+01  0.13248475938E+02  0.17220963425E+02  0.51100000000E-03 0. -1.
        -11    1    4    4    0    0 -0.42741337218E+01 -0.14283566884E+01  0.12167169565E+02  0.12974915699E+02  0.51100000000E-03 0.  1.
         12    1    4    4    0    0  0.18450049215E+02 -0.13938098415E+02 -0.70407607383E+01  0.24171206325E+02  0.00000000000E+00 0. -1.
</event>
<event>
 8    1  0.2472977E-006  0.9118800E+02  0.7816164E-02  0.1184000E+00
        -11   -1    0    0    0    0  0.00000000000E+00  0.00000000000E+00  0.45593999997E+02  0.45594000000E+02  0.51100000000E-03 0. -1.
         11   -1    0    0    0    0 -0.00000000000E+00 -0.00000000000E+00 -0.45593999997E+02  0.45594000000E+02  0.51100000000E-03 0.  1.
         23    2    1    2    0    0  0.35527136788E-14  0.00000000000E+00  0.00000000000E+00  0.91188000000E+02  0.91188000000E+02 0.  0.
    9900012    2    3    3    0    0 -0.15972029152E+02  0.23814027357E+02  0.23099051781E+02  0.54367084648E+02  0.40000001072E+02 0.  0.
        -12    1    3    3    0    0  0.15972029152E+02 -0.23814027357E+02 -0.23099051781E+02  0.36820915352E+02  0.00000000000E+00 0.  1.
         11    1    4    4    0    0  0.29902007764E+01 -0.46497958067E+01 -0.99183543580E+00  0.56165505001E+01  0.51100000000E-03 0. -1.
        -11    1    4    4    0    0 -0.12536174927E+02  0.45451968582E+01 -0.11549462089E+01  0.13384632879E+02  0.51100000000E-03 0.  1.
         12    1    4    4    0    0 -0.64260550011E+01  0.23918626306E+02  0.25245833426E+02  0.35365901269E+02  0.00000000000E+00 0. -1.
</event>
<event>
 8    1  0.2472977E-006  0.9118800E+02  0.7816164E-02  0.1184000E+00
        -11   -1    0    0    0    0  0.00000000000E+00  0.00000000000E+00  0.45593999997E+02  0.45594000000E+02  0.51100000000E-03 0.  1.
         11   -1    0    0    0    0 -0.00000000000E+00 -0.00000000000E+00 -0.45593999997E+02  0.45594000000E+02  0.51100000000E-03 0. -1.
         23    2    1    2    0    0  0.35527136788E-14  0.00000000000E+00 -0.44408920985E-15  0.91188000000E+02  0.91188000000E+02 0.  0.
    9900012    2    3    3    0    0  0.13363173780E+02  0.34308906953E+02  0.32275495690E+00  0.54367086370E+02  0.40000004998E+02 0.  0.
        -12    1    3    3    0    0 -0.13363173780E+02 -0.34308906953E+02 -0.32275495690E+00  0.36820913630E+02  0.00000000000E+00 0.  1.
         11    1    4    4    0    0  0.20286181579E+01  0.18414150045E+02  0.23358694198E+01  0.18672238744E+02  0.51100000000E-03 0.  1.
        -11    1    4    4    0    0  0.16342501437E+02  0.21037761007E+02  0.31888630395E+01  0.26829714667E+02  0.51100000000E-03 0. -1.
         12    1    4    4    0    0 -0.50079458142E+01 -0.51430040990E+01 -0.52019775024E+01  0.88651329587E+01  0.00000000000E+00 0. -1.
</event>
<event>
 8    1  0.2472977E-006  0.9118800E+02  0.7816164E-02  0.1184000E+00
        -11   -1    0    0    0    0  0.00000000000E+00  0.00000000000E+00  0.45593999997E+02  0.45594000000E+02  0.51100000000E-03 0. -1.
         11   -1    0    0    0    0 -0.00000000000E+00 -0.00000000000E+00 -0.45593999997E+02  0.45594000000E+02  0.51100000000E-03 0.  1.
         23    2    1    2    0    0  0.00000000000E+00  0.44408920985E-15  0.00000000000E+00  0.91188000000E+02  0.91188000000E+02 0.  0.
    9900012    2    3    3    0    0 -0.35148509113E+02  0.16689627579E+01 -0.10843201594E+02  0.54367107149E+02  0.40000052367E+02 0.  0.
         12    1    3    3    0    0  0.35148509113E+02 -0.16689627579E+01  0.10843201594E+02  0.36820892851E+02  0.00000000000E+00 0. -1.
         11    1    4    4    0    0 -0.13690736419E+02 -0.87537989766E+01 -0.93547827272E+01  0.18750392538E+02  0.51100000000E-03 0. -1.
        -11    1    4    4    0    0 -0.65859161740E+01  0.14433934252E+02  0.77481204987E+01  0.17656333746E+02  0.51100000000E-03 0.  1.
        -12    1    4    4    0    0 -0.14871856521E+02 -0.40111725175E+01 -0.92365393655E+01  0.17960380864E+02  0.00000000000E+00 0.  1.
</event>
<event>
 8    1  0.2472977E-006  0.9118800E+02  0.7816164E-02  0.1184000E+00
        -11   -1    0    0    0    0  0.00000000000E+00  0.00000000000E+00  0.45593999997E+02  0.45594000000E+02  0.51100000000E-03 0.  1.
         11   -1    0    0    0    0 -0.00000000000E+00 -0.00000000000E+00 -0.45593999997E+02  0.45594000000E+02  0.51100000000E-03 0. -1.
         23    2    1    2    0    0 -0.35527136788E-14  0.00000000000E+00  0.00000000000E+00  0.91188000000E+02  0.91188000000E+02 0.  0.
    9900012    2    3    3    0    0 -0.22520102014E+02  0.21470443783E+02 -0.19688705728E+02  0.54367080888E+02  0.39999992501E+02 0.  0.
        -12    1    3    3    0    0  0.22520102014E+02 -0.21470443783E+02  0.19688705728E+02  0.36820919112E+02  0.00000000000E+00 0.  1.
         11    1    4    4    0    0  0.39036269388E+00 -0.83352821678E+01 -0.52503114642E+01  0.98587566448E+01  0.51100000000E-03 0. -1.
        -11    1    4    4    0    0 -0.15007507077E+01 -0.22304670182E+01 -0.35778183601E+01  0.44752676217E+01  0.51100000000E-03 0.  1.
         12    1    4    4    0    0 -0.21409714000E+02  0.32036192969E+02 -0.10860575904E+02  0.40033056622E+02  0.00000000000E+00 0. -1.
</event>
<event>
 8    1  0.2472977E-006  0.9118800E+02  0.7816164E-02  0.1184000E+00
        -11   -1    0    0    0    0  0.00000000000E+00  0.00000000000E+00  0.45593999997E+02  0.45594000000E+02  0.51100000000E-03 0. -1.
         11   -1    0    0    0    0 -0.00000000000E+00 -0.00000000000E+00 -0.45593999997E+02  0.45594000000E+02  0.51100000000E-03 0.  1.
         23    2    1    2    0    0  0.00000000000E+00  0.00000000000E+00 -0.35527136788E-14  0.91188000000E+02  0.91188000000E+02 0.  0.
    9900012    2    3    3    0    0  0.30477192985E+02 -0.10572359076E+02 -0.17752346756E+02  0.54367083607E+02  0.39999998698E+02 0.  0.
        -12    1    3    3    0    0 -0.30477192985E+02  0.10572359076E+02  0.17752346756E+02  0.36820916393E+02  0.00000000000E+00 0.  1.
         11    1    4    4    0    0  0.39186095615E+01 -0.11829776180E+02  0.73237215349E+01  0.14454618734E+02  0.51100000000E-03 0. -1.
        -11    1    4    4    0    0  0.11237760769E+02  0.33219910759E+01 -0.20797982433E+02  0.23872137846E+02  0.51100000000E-03 0.  1.
        -12    1    4    4    0    0  0.15320822655E+02 -0.20645739724E+01 -0.42780858581E+01  0.16040327026E+02  0.00000000000E+00 0.  1.
</event>
<event>
 8    1  0.2472977E-006  0.9118800E+02  0.7816164E-02  0.1184000E+00
        -11   -1    0    0    0    0  0.00000000000E+00  0.00000000000E+00  0.45593999997E+02  0.45594000000E+02  0.51100000000E-03 0.  1.
         11   -1    0    0    0    0 -0.00000000000E+00 -0.00000000000E+00 -0.45593999997E+02  0.45594000000E+02  0.51100000000E-03 0. -1.
         23    2    1    2    0    0 -0.17763568394E-14  0.35527136788E-14  0.00000000000E+00  0.91188000000E+02  0.91188000000E+02 0.  0.
    9900012    2    3    3    0    0 -0.98636085588E+01  0.22509282292E+02 -0.27419325679E+02  0.54367109411E+02  0.40000057523E+02 0.  0.
        -12    1    3    3    0    0  0.98636085588E+01 -0.22509282292E+02  0.27419325679E+02  0.36820890589E+02  0.00000000000E+00 0.  1.
         11    1    4    4    0    0 -0.10706764198E+02  0.14435608482E+01 -0.19443105578E+02  0.22243044358E+02  0.51100000000E-03 0. -1.
        -11    1    4    4    0    0 -0.75092312066E+00  0.93067062018E+01  0.79500329224E+01  0.12263021226E+02  0.51100000000E-03 0.  1.
        -12    1    4    4    0    0  0.15940787594E+01  0.11759015242E+02 -0.15926253023E+02  0.19861043827E+02  0.00000000000E+00 0.  1.
</event>
<event>
 8    1  0.2472977E-006  0.9118800E+02  0.7816164E-02  0.1184000E+00
        -11   -1    0    0    0    0  0.00000000000E+00  0.00000000000E+00  0.45593999997E+02  0.45594000000E+02  0.51100000000E-03 0. -1.
         11   -1    0    0    0    0 -0.00000000000E+00 -0.00000000000E+00 -0.45593999997E+02  0.45594000000E+02  0.51100000000E-03 0.  1.
         23    2    1    2    0    0  0.17763568394E-14 -0.71054273576E-14  0.00000000000E+00  0.91188000000E+02  0.91188000000E+02 0.  0.
    9900012    2    3    3    0    0  0.68919370723E+01 -0.34768401537E+02 -0.99719857190E+01  0.54367067893E+02  0.39999962876E+02 0.  0.
         12    1    3    3    0    0 -0.68919370723E+01  0.34768401537E+02  0.99719857190E+01  0.36820932107E+02  0.00000000000E+00 0. -1.
         11    1    4    4    0    0 -0.97539834726E+00  0.10903369960E+01 -0.97675360582E+01  0.98764871088E+01  0.51100000000E-03 0. -1.
        -11    1    4    4    0    0  0.37748388761E+01 -0.75636420766E+01 -0.11050364371E+02  0.13912894846E+02  0.51100000000E-03 0.  1.
         12    1    4    4    0    0  0.40924965435E+01 -0.28295096456E+02  0.10845914710E+02  0.30577685938E+02  0.00000000000E+00 0. -1.
</event>
<event>
 8    1  0.2472977E-006  0.9118800E+02  0.7816164E-02  0.1184000E+00
        -11   -1    0    0    0    0  0.00000000000E+00  0.00000000000E+00  0.45593999997E+02  0.45594000000E+02  0.51100000000E-03 0. -1.
         11   -1    0    0    0    0 -0.00000000000E+00 -0.00000000000E+00 -0.45593999997E+02  0.45594000000E+02  0.51100000000E-03 0.  1.
         23    2    1    2    0    0 -0.88817841970E-15  0.71054273576E-14  0.00000000000E+00  0.91188000000E+02  0.91188000000E+02 0.  0.
    9900012    2    3    3    0    0 -0.50114775647E+01  0.17071687041E+02  0.32236997318E+02  0.54367062996E+02  0.39999951712E+02 0.  0.
        -12    1    3    3    0    0  0.50114775647E+01 -0.17071687041E+02 -0.32236997318E+02  0.36820937004E+02  0.00000000000E+00 0.  1.
         11    1    4    4    0    0  0.10180285424E+02 -0.59579320614E+00  0.64728390817E+01  0.12078527513E+02  0.51100000000E-03 0. -1.
        -11    1    4    4    0    0 -0.74226195535E+01 -0.51186521839E+01  0.41121102255E+01  0.99098603413E+01  0.51100000000E-03 0.  1.
         12    1    4    4    0    0 -0.77691434347E+01  0.22786132431E+02  0.21652048011E+02  0.32378675141E+02  0.00000000000E+00 0. -1.
</event>
<event>
 8    1  0.2472977E-006  0.9118800E+02  0.7816164E-02  0.1184000E+00
        -11   -1    0    0    0    0  0.00000000000E+00  0.00000000000E+00  0.45593999997E+02  0.45594000000E+02  0.51100000000E-03 0.  1.
         11   -1    0    0    0    0 -0.00000000000E+00 -0.00000000000E+00 -0.45593999997E+02  0.45594000000E+02  0.51100000000E-03 0. -1.
         23    2    1    2    0    0  0.00000000000E+00  0.00000000000E+00  0.00000000000E+00  0.91188000000E+02  0.91188000000E+02 0.  0.
    9900012    2    3    3    0    0  0.26237714730E+02  0.25124083283E+02  0.60117844430E+01  0.54367098500E+02  0.40000032651E+02 0.  0.
         12    1    3    3    0    0 -0.26237714730E+02 -0.25124083283E+02 -0.60117844430E+01  0.36820901500E+02  0.00000000000E+00 0. -1.
         11    1    4    4    0    0  0.10217791521E+02  0.34655711221E+01 -0.10471508732E+02  0.15035489422E+02  0.51100000000E-03 0. -1.
        -11    1    4    4    0    0  0.88892630371E+01  0.25862553561E+02  0.11480770503E+02  0.29659716210E+02  0.51100000000E-03 0.  1.
        -12    1    4    4    0    0  0.71306601718E+01 -0.42040414001E+01  0.50025226720E+01  0.96718928687E+01  0.00000000000E+00 0.  1.
</event>
<event>
 8    1  0.2472977E-006  0.9118800E+02  0.7816164E-02  0.1184000E+00
        -11   -1    0    0    0    0  0.00000000000E+00  0.00000000000E+00  0.45593999997E+02  0.45594000000E+02  0.51100000000E-03 0.  1.
         11   -1    0    0    0    0 -0.00000000000E+00 -0.00000000000E+00 -0.45593999997E+02  0.45594000000E+02  0.51100000000E-03 0. -1.
         23    2    1    2    0    0  0.35527136788E-14  0.00000000000E+00 -0.71054273576E-14  0.91188000000E+02  0.91188000000E+02 0.  0.
    9900012    2    3    3    0    0  0.16993109714E+02  0.83489610385E+01 -0.31580206393E+02  0.54367077089E+02  0.39999983840E+02 0.  0.
        -12    1    3    3    0    0 -0.16993109714E+02 -0.83489610385E+01  0.31580206393E+02  0.36820922911E+02  0.00000000000E+00 0.  1.
         11    1    4    4    0    0 -0.76562589712E+01 -0.11346865398E+01 -0.15091102708E+02  0.16960164981E+02  0.51100000000E-03 0.  1.
        -11    1    4    4    0    0  0.16225699837E+02  0.14997942998E+02 -0.60610515432E+01  0.22911743178E+02  0.51100000000E-03 0. -1.
         12    1    4    4    0    0  0.84236688480E+01 -0.55142954202E+01 -0.10428052142E+02  0.14495168930E+02  0.00000000000E+00 0. -1.
</event>
<event>
 8    1  0.2472977E-006  0.9118800E+02  0.7816164E-02  0.1184000E+00
        -11   -1    0    0    0    0  0.00000000000E+00  0.00000000000E+00  0.45593999997E+02  0.45594000000E+02  0.51100000000E-03 0.  1.
         11   -1    0    0    0    0 -0.00000000000E+00 -0.00000000000E+00 -0.45593999997E+02  0.45594000000E+02  0.51100000000E-03 0. -1.
         23    2    1    2    0    0  0.00000000000E+00  0.00000000000E+00  0.00000000000E+00  0.91188000000E+02  0.91188000000E+02 0.  0.
    9900012    2    3    3    0    0  0.12646215346E+02  0.28353160482E+02  0.19797788672E+02  0.54367069699E+02  0.39999966994E+02 0.  0.
        -12    1    3    3    0    0 -0.12646215346E+02 -0.28353160482E+02 -0.19797788672E+02  0.36820930301E+02  0.00000000000E+00 0.  1.
         11    1    4    4    0    0  0.44016673390E+01  0.63378753708E+01  0.67780744438E+01  0.10270619894E+02  0.51100000000E-03 0. -1.
        -11    1    4    4    0    0  0.14457400830E+02  0.28735435562E+02  0.63913091005E+01  0.32796196852E+02  0.51100000000E-03 0.  1.
        -12    1    4    4    0    0 -0.62128528223E+01 -0.67201504508E+01  0.66284051273E+01  0.11300252953E+02  0.00000000000E+00 0.  1.
</event>
<event>
 8    1  0.2472977E-006  0.9118800E+02  0.7816164E-02  0.1184000E+00
        -11   -1    0    0    0    0  0.00000000000E+00  0.00000000000E+00  0.45593999997E+02  0.45594000000E+02  0.51100000000E-03 0.  1.
         11   -1    0    0    0    0 -0.00000000000E+00 -0.00000000000E+00 -0.45593999997E+02  0.45594000000E+02  0.51100000000E-03 0. -1.
         23    2    1    2    0    0  0.00000000000E+00  0.00000000000E+00  0.00000000000E+00  0.91188000000E+02  0.91188000000E+02 0.  0.
    9900012    2    3    3    0    0  0.73126515064E+01 -0.19498468617E+02 -0.30366354191E+02  0.54367073650E+02  0.39999975999E+02 0.  0.
        -12    1    3    3    0    0 -0.73126515064E+01  0.19498468617E+02  0.30366354191E+02  0.36820926350E+02  0.00000000000E+00 0.  1.
         11    1    4    4    0    0  0.10368538658E+02 -0.79882623893E+01 -0.43355227336E+01  0.13788244542E+02  0.51100000000E-03 0. -1.
        -11    1    4    4    0    0  0.12751784334E+02 -0.43559172603E+01 -0.14211953659E+02  0.19584729917E+02  0.51100000000E-03 0.  1.
        -12    1    4    4    0    0 -0.15807671485E+02 -0.71542889674E+01 -0.11818877798E+02  0.20994099191E+02  0.00000000000E+00 0.  1.
</event>
<event>
 8    1  0.2472977E-006  0.9118800E+02  0.7816164E-02  0.1184000E+00
        -11   -1    0    0    0    0  0.00000000000E+00  0.00000000000E+00  0.45593999997E+02  0.45594000000E+02  0.51100000000E-03 0.  1.
         11   -1    0    0    0    0 -0.00000000000E+00 -0.00000000000E+00 -0.45593999997E+02  0.45594000000E+02  0.51100000000E-03 0. -1.
         23    2    1    2    0    0  0.00000000000E+00  0.17763568394E-14  0.00000000000E+00  0.91188000000E+02  0.91188000000E+02 0.  0.
    9900012    2    3    3    0    0 -0.32499037612E+02  0.14263751690E+02 -0.98051478430E+01  0.54367041536E+02  0.39999902789E+02 0.  0.
        -12    1    3    3    0    0  0.32499037612E+02 -0.14263751690E+02  0.98051478430E+01  0.36820958464E+02  0.00000000000E+00 0.  1.
         11    1    4    4    0    0 -0.14262847635E+02 -0.18519592566E+01  0.10533748794E+02  0.17827463074E+02  0.51100000000E-03 0. -1.
        -11    1    4    4    0    0  0.34573626180E+01  0.46263981396E+01 -0.45458362733E+01  0.73499349455E+01  0.51100000000E-03 0.  1.
         12    1    4    4    0    0 -0.21693552595E+02  0.11489312807E+02 -0.15793060363E+02  0.29189643516E+02  0.00000000000E+00 0. -1.
</event>
<event>
 8    1  0.2472977E-006  0.9118800E+02  0.7816164E-02  0.1184000E+00
        -11   -1    0    0    0    0  0.00000000000E+00  0.00000000000E+00  0.45593999997E+02  0.45594000000E+02  0.51100000000E-03 0. -1.
         11   -1    0    0    0    0 -0.00000000000E+00 -0.00000000000E+00 -0.45593999997E+02  0.45594000000E+02  0.51100000000E-03 0.  1.
         23    2    1    2    0    0  0.00000000000E+00  0.88817841970E-15 -0.35527136788E-14  0.91188000000E+02  0.91188000000E+02 0.  0.
    9900012    2    3    3    0    0  0.21945353096E+02  0.71306402731E+01  0.28693826780E+02  0.54367078658E+02  0.39999987416E+02 0.  0.
        -12    1    3    3    0    0 -0.21945353096E+02 -0.71306402731E+01 -0.28693826780E+02  0.36820921342E+02  0.00000000000E+00 0.  1.
         11    1    4    4    0    0  0.13922687103E+02  0.20852022731E+01  0.86577761441E+01  0.16527140488E+02  0.51100000000E-03 0. -1.
        -11    1    4    4    0    0  0.15725306531E+02 -0.25795816634E+01  0.10400066750E+01  0.15969380740E+02  0.51100000000E-03 0.  1.
        -12    1    4    4    0    0 -0.77026405381E+01  0.76250196634E+01  0.18996043961E+02  0.21870557430E+02  0.00000000000E+00 0.  1.
</event>
<event>
 8    1  0.2472977E-006  0.9118800E+02  0.7816164E-02  0.1184000E+00
        -11   -1    0    0    0    0  0.00000000000E+00  0.00000000000E+00  0.45593999997E+02  0.45594000000E+02  0.51100000000E-03 0. -1.
         11   -1    0    0    0    0 -0.00000000000E+00 -0.00000000000E+00 -0.45593999997E+02  0.45594000000E+02  0.51100000000E-03 0.  1.
         23    2    1    2    0    0  0.00000000000E+00  0.00000000000E+00  0.88817841970E-15  0.91188000000E+02  0.91188000000E+02 0.  0.
    9900012    2    3    3    0    0 -0.34515623370E+02 -0.11599676370E+02  0.54680169445E+01  0.54367082605E+02  0.39999996414E+02 0.  0.
        -12    1    3    3    0    0  0.34515623370E+02  0.11599676370E+02 -0.54680169445E+01  0.36820917395E+02  0.00000000000E+00 0.  1.
         11    1    4    4    0    0 -0.12325863657E+02 -0.14250166818E+02  0.10125142195E+02  0.21389545903E+02  0.51100000000E-03 0. -1.
        -11    1    4    4    0    0 -0.96839178058E+01 -0.70299406572E+01 -0.10695030058E+02  0.16049361293E+02  0.51100000000E-03 0.  1.
        -12    1    4    4    0    0 -0.12505841907E+02  0.96804311052E+01  0.60379048079E+01  0.16928175408E+02  0.00000000000E+00 0.  1.
</event>
<event>
 8    1  0.2472977E-006  0.9118800E+02  0.7816164E-02  0.1184000E+00
        -11   -1    0    0    0    0  0.00000000000E+00  0.00000000000E+00  0.45593999997E+02  0.45594000000E+02  0.51100000000E-03 0. -1.
         11   -1    0    0    0    0 -0.00000000000E+00 -0.00000000000E+00 -0.45593999997E+02  0.45594000000E+02  0.51100000000E-03 0.  1.
         23    2    1    2    0    0  0.00000000000E+00  0.00000000000E+00  0.15543122345E-14  0.91188000000E+02  0.91188000000E+02 0.  0.
    9900012    2    3    3    0    0 -0.86350413061E+01 -0.35741166117E+02 -0.19455390875E+01  0.54367081813E+02  0.39999994610E+02 0.  0.
         12    1    3    3    0    0  0.86350413061E+01  0.35741166117E+02  0.19455390875E+01  0.36820918187E+02  0.00000000000E+00 0. -1.
         11    1    4    4    0    0  0.66011626448E+01 -0.58528663185E+01  0.65178830385E+01  0.10968782611E+02  0.51100000000E-03 0. -1.
        -11    1    4    4    0    0 -0.25074057571E+01 -0.14711495120E+02  0.86259013775E+01  0.17237208217E+02  0.51100000000E-03 0.  1.
        -12    1    4    4    0    0 -0.12728798194E+02 -0.15176804678E+02 -0.17089323504E+02  0.26161090985E+02  0.00000000000E+00 0.  1.
</event>
<event>
 8    1  0.2472977E-006  0.9118800E+02  0.7816164E-02  0.1184000E+00
        -11   -1    0    0    0    0  0.00000000000E+00  0.00000000000E+00  0.45593999997E+02  0.45594000000E+02  0.51100000000E-03 0. -1.
         11   -1    0    0    0    0 -0.00000000000E+00 -0.00000000000E+00 -0.45593999997E+02  0.45594000000E+02  0.51100000000E-03 0.  1.
         23    2    1    2    0    0  0.35527136788E-14  0.35527136788E-14 -0.44408920985E-15  0.91188000000E+02  0.91188000000E+02 0.  0.
    9900012    2    3    3    0    0 -0.29041323404E+02  0.22290348853E+02  0.39398204171E+01  0.54367077932E+02  0.39999985761E+02 0.  0.
         12    1    3    3    0    0  0.29041323404E+02 -0.22290348853E+02 -0.39398204171E+01  0.36820922068E+02  0.00000000000E+00 0. -1.
         11    1    4    4    0    0 -0.30768963198E+01  0.13873092427E+02 -0.18704349789E+01  0.14332777530E+02  0.51100000000E-03 0.  1.
        -11    1    4    4    0    0 -0.11358267828E+02  0.48944511395E+01  0.17196596532E+02  0.21182276378E+02  0.51100000000E-03 0. -1.
        -12    1    4    4    0    0 -0.14606159257E+02  0.35228052861E+01 -0.11386341136E+02  0.18852024024E+02  0.00000000000E+00 0.  1.
</event>
<event>
 8    1  0.2472977E-006  0.9118800E+02  0.7816164E-02  0.1184000E+00
        -11   -1    0    0    0    0  0.00000000000E+00  0.00000000000E+00  0.45593999997E+02  0.45594000000E+02  0.51100000000E-03 0. -1.
         11   -1    0    0    0    0 -0.00000000000E+00 -0.00000000000E+00 -0.45593999997E+02  0.45594000000E+02  0.51100000000E-03 0.  1.
         23    2    1    2    0    0  0.00000000000E+00  0.17763568394E-14  0.00000000000E+00  0.91188000000E+02  0.91188000000E+02 0.  0.
    9900012    2    3    3    0    0  0.16405464739E+02 -0.14825298417E+02 -0.29442367824E+02  0.54367058003E+02  0.39999940329E+02 0.  0.
         12    1    3    3    0    0 -0.16405464739E+02  0.14825298417E+02  0.29442367824E+02  0.36820941997E+02  0.00000000000E+00 0. -1.
         11    1    4    4    0    0  0.60751716413E+01  0.62929260579E+01  0.93767799146E+00  0.87970375194E+01  0.51100000000E-03 0. -1.
        -11    1    4    4    0    0 -0.16046682668E+01 -0.26558761388E+01 -0.21721853866E+02  0.21942369379E+02  0.51100000000E-03 0.  1.
        -12    1    4    4    0    0  0.11934961364E+02 -0.18462348337E+02 -0.86581919494E+01  0.23627651104E+02  0.00000000000E+00 0.  1.
</event>
<event>
 8    1  0.2472977E-006  0.9118800E+02  0.7816164E-02  0.1184000E+00
        -11   -1    0    0    0    0  0.00000000000E+00  0.00000000000E+00  0.45593999997E+02  0.45594000000E+02  0.51100000000E-03 0.  1.
         11   -1    0    0    0    0 -0.00000000000E+00 -0.00000000000E+00 -0.45593999997E+02  0.45594000000E+02  0.51100000000E-03 0. -1.
         23    2    1    2    0    0 -0.35527136788E-14  0.00000000000E+00  0.17763568394E-14  0.91188000000E+02  0.91188000000E+02 0.  0.
    9900012    2    3    3    0    0  0.28093584699E+02 -0.21918793437E+02 -0.92788159138E+01  0.54367089749E+02  0.40000012700E+02 0.  0.
        -12    1    3    3    0    0 -0.28093584699E+02  0.21918793437E+02  0.92788159138E+01  0.36820910251E+02  0.00000000000E+00 0.  1.
         11    1    4    4    0    0  0.23714578750E+02 -0.22012655133E+02 -0.26488518042E+01  0.32464667678E+02  0.51100000000E-03 0. -1.
        -11    1    4    4    0    0 -0.11430494697E+01 -0.45223620761E+01  0.58583227904E+01  0.74885423825E+01  0.51100000000E-03 0.  1.
         12    1    4    4    0    0  0.55220554189E+01  0.46162237726E+01 -0.12488286900E+02  0.14413879688E+02  0.00000000000E+00 0. -1.
</event>
<event>
 8    1  0.2472977E-006  0.9118800E+02  0.7816164E-02  0.1184000E+00
        -11   -1    0    0    0    0  0.00000000000E+00  0.00000000000E+00  0.45593999997E+02  0.45594000000E+02  0.51100000000E-03 0.  1.
         11   -1    0    0    0    0 -0.00000000000E+00 -0.00000000000E+00 -0.45593999997E+02  0.45594000000E+02  0.51100000000E-03 0. -1.
         23    2    1    2    0    0  0.33306690739E-15  0.00000000000E+00 -0.35527136788E-14  0.91188000000E+02  0.91188000000E+02 0.  0.
    9900012    2    3    3    0    0 -0.33763703671E+00 -0.31338800855E+02  0.19327431373E+02  0.54367027154E+02  0.39999870004E+02 0.  0.
         12    1    3    3    0    0  0.33763703671E+00  0.31338800855E+02 -0.19327431373E+02  0.36820972846E+02  0.00000000000E+00 0. -1.
         11    1    4    4    0    0 -0.11038583567E+02 -0.18647173980E+01 -0.39274665998E+01  0.11863915555E+02  0.51100000000E-03 0. -1.
        -11    1    4    4    0    0  0.94210301916E+01 -0.25405422078E+02  0.10509046888E+02  0.29062542002E+02  0.51100000000E-03 0.  1.
         12    1    4    4    0    0  0.12799163385E+01 -0.40686613793E+01  0.12745851084E+02  0.13440569598E+02  0.00000000000E+00 0. -1.
</event>
<event>
 8    1  0.2472977E-006  0.9118800E+02  0.7816164E-02  0.1184000E+00
        -11   -1    0    0    0    0  0.00000000000E+00  0.00000000000E+00  0.45593999997E+02  0.45594000000E+02  0.51100000000E-03 0.  1.
         11   -1    0    0    0    0 -0.00000000000E+00 -0.00000000000E+00 -0.45593999997E+02  0.45594000000E+02  0.51100000000E-03 0. -1.
         23    2    1    2    0    0 -0.17763568394E-14  0.71054273576E-14 -0.55511151231E-15  0.91188000000E+02  0.91188000000E+02 0.  0.
    9900012    2    3    3    0    0  0.13216625704E+02 -0.34355246878E+02  0.90315507176E+00  0.54367110926E+02  0.40000060979E+02 0.  0.
         12    1    3    3    0    0 -0.13216625704E+02  0.34355246878E+02 -0.90315507176E+00  0.36820889074E+02  0.00000000000E+00 0. -1.
         11    1    4    4    0    0  0.38036427160E+01 -0.87640673774E+01 -0.10899187628E+02  0.14493752659E+02  0.51100000000E-03 0. -1.
        -11    1    4    4    0    0 -0.11296577767E+01 -0.24994506299E+02  0.14131499791E+01  0.25059897545E+02  0.51100000000E-03 0.  1.
        -12    1    4    4    0    0  0.10542640765E+02 -0.59667320200E+00  0.10389192721E+02  0.14813460723E+02  0.00000000000E+00 0.  1.
</event>
<event>
 8    1  0.2472977E-006  0.9118800E+02  0.7816164E-02  0.1184000E+00
        -11   -1    0    0    0    0  0.00000000000E+00  0.00000000000E+00  0.45593999997E+02  0.45594000000E+02  0.51100000000E-03 0. -1.
         11   -1    0    0    0    0 -0.00000000000E+00 -0.00000000000E+00 -0.45593999997E+02  0.45594000000E+02  0.51100000000E-03 0.  1.
         23    2    1    2    0    0  0.00000000000E+00 -0.17763568394E-14 -0.88817841970E-15  0.91188000000E+02  0.91188000000E+02 0.  0.
    9900012    2    3    3    0    0  0.34547534821E+02  0.12550449294E+02  0.21760680908E+01  0.54367065574E+02  0.39999957589E+02 0.  0.
        -12    1    3    3    0    0 -0.34547534821E+02 -0.12550449294E+02 -0.21760680908E+01  0.36820934426E+02  0.00000000000E+00 0.  1.
         11    1    4    4    0    0  0.35975408644E+01 -0.92692129977E+01  0.53835819161E+01  0.11306792842E+02  0.51100000000E-03 0. -1.
        -11    1    4    4    0    0  0.65916261571E+01  0.16405297249E+01 -0.86144117371E+01  0.10970367497E+02  0.51100000000E-03 0.  1.
        -12    1    4    4    0    0  0.24358367799E+02  0.20179132567E+02  0.54068979118E+01  0.32089905235E+02  0.00000000000E+00 0.  1.
</event>
<event>
 8    1  0.2472977E-006  0.9118800E+02  0.7816164E-02  0.1184000E+00
        -11   -1    0    0    0    0  0.00000000000E+00  0.00000000000E+00  0.45593999997E+02  0.45594000000E+02  0.51100000000E-03 0.  1.
         11   -1    0    0    0    0 -0.00000000000E+00 -0.00000000000E+00 -0.45593999997E+02  0.45594000000E+02  0.51100000000E-03 0. -1.
         23    2    1    2    0    0 -0.17763568394E-14  0.00000000000E+00  0.00000000000E+00  0.91188000000E+02  0.91188000000E+02 0.  0.
    9900012    2    3    3    0    0 -0.87047549717E+01  0.33627256068E+02  0.12215213984E+02  0.54367128711E+02  0.40000101522E+02 0.  0.
         12    1    3    3    0    0  0.87047549717E+01 -0.33627256068E+02 -0.12215213984E+02  0.36820871289E+02  0.00000000000E+00 0. -1.
         11    1    4    4    0    0  0.47930990245E+01 -0.29393504212E+01  0.65860395804E+01  0.86596476125E+01  0.51100000000E-03 0. -1.
        -11    1    4    4    0    0  0.15889882498E+01  0.20895614144E+02 -0.49286465816E+01  0.21527729363E+02  0.51100000000E-03 0.  1.
        -12    1    4    4    0    0 -0.15086842246E+02  0.15670992345E+02  0.10557820985E+02  0.24179751736E+02  0.00000000000E+00 0.  1.
</event>
<event>
 8    1  0.2472977E-006  0.9118800E+02  0.7816164E-02  0.1184000E+00
        -11   -1    0    0    0    0  0.00000000000E+00  0.00000000000E+00  0.45593999997E+02  0.45594000000E+02  0.51100000000E-03 0.  1.
         11   -1    0    0    0    0 -0.00000000000E+00 -0.00000000000E+00 -0.45593999997E+02  0.45594000000E+02  0.51100000000E-03 0. -1.
         23    2    1    2    0    0 -0.88817841970E-15  0.00000000000E+00  0.00000000000E+00  0.91188000000E+02  0.91188000000E+02 0.  0.
    9900012    2    3    3    0    0 -0.60612853282E+01  0.11322299937E+02  0.34508630544E+02  0.54367092383E+02  0.40000018706E+02 0.  0.
         12    1    3    3    0    0  0.60612853282E+01 -0.11322299937E+02 -0.34508630544E+02  0.36820907617E+02  0.00000000000E+00 0. -1.
         11    1    4    4    0    0 -0.12059664767E+02 -0.39224449736E+01  0.43277358457E+01  0.13399641289E+02  0.51100000000E-03 0. -1.
        -11    1    4    4    0    0 -0.45261255894E+01 -0.13975142086E+01  0.16040495408E+02  0.16725320685E+02  0.51100000000E-03 0.  1.
        -12    1    4    4    0    0  0.10524505028E+02  0.16642259119E+02  0.14140399290E+02  0.24242130409E+02  0.00000000000E+00 0.  1.
</event>
<event>
 8    1  0.2472977E-006  0.9118800E+02  0.7816164E-02  0.1184000E+00
        -11   -1    0    0    0    0  0.00000000000E+00  0.00000000000E+00  0.45593999997E+02  0.45594000000E+02  0.51100000000E-03 0.  1.
         11   -1    0    0    0    0 -0.00000000000E+00 -0.00000000000E+00 -0.45593999997E+02  0.45594000000E+02  0.51100000000E-03 0. -1.
         23    2    1    2    0    0 -0.88817841970E-15  0.00000000000E+00  0.00000000000E+00  0.91188000000E+02  0.91188000000E+02 0.  0.
    9900012    2    3    3    0    0  0.49830593157E+01 -0.24992122167E+02  0.26577201476E+02  0.54367018362E+02  0.39999849958E+02 0.  0.
         12    1    3    3    0    0 -0.49830593157E+01  0.24992122167E+02 -0.26577201476E+02  0.36820981638E+02  0.00000000000E+00 0. -1.
         11    1    4    4    0    0 -0.63366158708E+01  0.62226632702E+01  0.89689499852E+00  0.89262903699E+01  0.51100000000E-03 0. -1.
        -11    1    4    4    0    0  0.80710342357E+01 -0.31280423587E+01  0.95502057225E+01  0.12889246380E+02  0.51100000000E-03 0.  1.
        -12    1    4    4    0    0  0.32486409508E+01 -0.28086743078E+02  0.16130100755E+02  0.32551481612E+02  0.00000000000E+00 0.  1.
</event>
<event>
 8    1  0.2472977E-006  0.9118800E+02  0.7816164E-02  0.1184000E+00
        -11   -1    0    0    0    0  0.00000000000E+00  0.00000000000E+00  0.45593999997E+02  0.45594000000E+02  0.51100000000E-03 0.  1.
         11   -1    0    0    0    0 -0.00000000000E+00 -0.00000000000E+00 -0.45593999997E+02  0.45594000000E+02  0.51100000000E-03 0. -1.
         23    2    1    2    0    0 -0.17763568394E-14  0.88817841970E-15 -0.71054273576E-14  0.91188000000E+02  0.91188000000E+02 0.  0.
    9900012    2    3    3    0    0  0.13228019857E+02 -0.12577013586E+01  0.34339747343E+02  0.54367074297E+02  0.39999977474E+02 0.  0.
         12    1    3    3    0    0 -0.13228019857E+02  0.12577013586E+01 -0.34339747343E+02  0.36820925703E+02  0.00000000000E+00 0. -1.
         11    1    4    4    0    0 -0.10511289698E+02  0.24863524639E+01  0.14065411283E+02  0.17734287539E+02  0.51100000000E-03 0. -1.
        -11    1    4    4    0    0 -0.12401838221E+00  0.38959779999E+01  0.76269030905E+01  0.85652598412E+01  0.51100000000E-03 0.  1.
        -12    1    4    4    0    0  0.23863327937E+02 -0.76400318224E+01  0.12647432970E+02  0.28067526917E+02  0.00000000000E+00 0.  1.
</event>
<event>
 8    1  0.2472977E-006  0.9118800E+02  0.7816164E-02  0.1184000E+00
        -11   -1    0    0    0    0  0.00000000000E+00  0.00000000000E+00  0.45593999997E+02  0.45594000000E+02  0.51100000000E-03 0. -1.
         11   -1    0    0    0    0 -0.00000000000E+00 -0.00000000000E+00 -0.45593999997E+02  0.45594000000E+02  0.51100000000E-03 0.  1.
         23    2    1    2    0    0  0.88817841970E-15  0.44408920985E-15  0.00000000000E+00  0.91188000000E+02  0.91188000000E+02 0.  0.
    9900012    2    3    3    0    0 -0.61365913479E+01  0.14254576622E+01  0.36277943167E+02  0.54367097738E+02  0.40000030914E+02 0.  0.
        -12    1    3    3    0    0  0.61365913479E+01 -0.14254576622E+01 -0.36277943167E+02  0.36820902262E+02  0.00000000000E+00 0.  1.
         11    1    4    4    0    0  0.43971756007E+01 -0.69229588602E+01  0.15552581982E+02  0.17582528806E+02  0.51100000000E-03 0. -1.
        -11    1    4    4    0    0  0.69675237249E+01 -0.48220045924E+01  0.52934850592E+01  0.99909508797E+01  0.51100000000E-03 0.  1.
        -12    1    4    4    0    0 -0.17501290674E+02  0.13170421115E+02  0.15431876126E+02  0.26793618052E+02  0.00000000000E+00 0.  1.
</event>
<event>
 8    1  0.2472977E-006  0.9118800E+02  0.7816164E-02  0.1184000E+00
        -11   -1    0    0    0    0  0.00000000000E+00  0.00000000000E+00  0.45593999997E+02  0.45594000000E+02  0.51100000000E-03 0.  1.
         11   -1    0    0    0    0 -0.00000000000E+00 -0.00000000000E+00 -0.45593999997E+02  0.45594000000E+02  0.51100000000E-03 0. -1.
         23    2    1    2    0    0 -0.35527136788E-14  0.17763568394E-14  0.00000000000E+00  0.91188000000E+02  0.91188000000E+02 0.  0.
    9900012    2    3    3    0    0  0.16436153894E+02  0.15374145064E+02 -0.29142196341E+02  0.54367094269E+02  0.40000023004E+02 0.  0.
        -12    1    3    3    0    0 -0.16436153894E+02 -0.15374145064E+02  0.29142196341E+02  0.36820905731E+02  0.00000000000E+00 0.  1.
         11    1    4    4    0    0 -0.31980490580E+01  0.20845095687E+01 -0.46963483910E+01  0.60521389930E+01  0.51100000000E-03 0. -1.
        -11    1    4    4    0    0 -0.66460235461E+01  0.59662669664E+01 -0.18280298882E+02  0.20345399921E+02  0.51100000000E-03 0.  1.
         12    1    4    4    0    0  0.26280226498E+02  0.73233685290E+01 -0.61655490684E+01  0.27969555354E+02  0.00000000000E+00 0. -1.
</event>
<event>
 8    1  0.2472977E-006  0.9118800E+02  0.7816164E-02  0.1184000E+00
        -11   -1    0    0    0    0  0.00000000000E+00  0.00000000000E+00  0.45593999997E+02  0.45594000000E+02  0.51100000000E-03 0. -1.
         11   -1    0    0    0    0 -0.00000000000E+00 -0.00000000000E+00 -0.45593999997E+02  0.45594000000E+02  0.51100000000E-03 0.  1.
         23    2    1    2    0    0 -0.35527136788E-14  0.00000000000E+00  0.00000000000E+00  0.91188000000E+02  0.91188000000E+02 0.  0.
    9900012    2    3    3    0    0 -0.31409343860E+02  0.18825563175E+02  0.38511833918E+01  0.54367077631E+02  0.39999985075E+02 0.  0.
        -12    1    3    3    0    0  0.31409343860E+02 -0.18825563175E+02 -0.38511833918E+01  0.36820922369E+02  0.00000000000E+00 0.  1.
         11    1    4    4    0    0 -0.95413641250E+01  0.60034108576E+01  0.26852008660E+01  0.11588307695E+02  0.51100000000E-03 0. -1.
        -11    1    4    4    0    0 -0.16338005357E+02  0.18697153748E+02 -0.11812887941E+02  0.27496514309E+02  0.51100000000E-03 0.  1.
        -12    1    4    4    0    0 -0.55299743782E+01 -0.58750014309E+01  0.12978870467E+02  0.15282255627E+02  0.00000000000E+00 0.  1.
</event>
<event>
 8    1  0.2472977E-006  0.9118800E+02  0.7816164E-02  0.1184000E+00
        -11   -1    0    0    0    0  0.00000000000E+00  0.00000000000E+00  0.45593999997E+02  0.45594000000E+02  0.51100000000E-03 0.  1.
         11   -1    0    0    0    0 -0.00000000000E+00 -0.00000000000E+00 -0.45593999997E+02  0.45594000000E+02  0.51100000000E-03 0. -1.
         23    2    1    2    0    0  0.71054273576E-14 -0.35527136788E-14  0.00000000000E+00  0.91188000000E+02  0.91188000000E+02 0.  0.
    9900012    2    3    3    0    0 -0.20632362182E+02  0.19542164439E+02  0.23413443020E+02  0.54367083740E+02  0.39999999003E+02 0.  0.
         12    1    3    3    0    0  0.20632362182E+02 -0.19542164439E+02 -0.23413443020E+02  0.36820916260E+02  0.00000000000E+00 0. -1.
         11    1    4    4    0    0  0.42082911071E+01 -0.48663646081E+01  0.46852571615E+01  0.79588223671E+01  0.51100000000E-03 0. -1.
        -11    1    4    4    0    0 -0.26382695196E+01  0.18025775004E+02  0.30059781821E+01  0.18464152720E+02  0.51100000000E-03 0.  1.
         12    1    4    4    0    0 -0.22202383770E+02  0.63827540426E+01  0.15722207676E+02  0.27944108654E+02  0.00000000000E+00 0. -1.
</event>
<event>
 8    1  0.2472977E-006  0.9118800E+02  0.7816164E-02  0.1184000E+00
        -11   -1    0    0    0    0  0.00000000000E+00  0.00000000000E+00  0.45593999997E+02  0.45594000000E+02  0.51100000000E-03 0.  1.
         11   -1    0    0    0    0 -0.00000000000E+00 -0.00000000000E+00 -0.45593999997E+02  0.45594000000E+02  0.51100000000E-03 0. -1.
         23    2    1    2    0    0  0.00000000000E+00 -0.35527136788E-14 -0.88817841970E-15  0.91188000000E+02  0.91188000000E+02 0.  0.
    9900012    2    3    3    0    0 -0.33951899373E+02 -0.13999903139E+02 -0.26557138603E+01  0.54367060644E+02  0.39999946351E+02 0.  0.
         12    1    3    3    0    0  0.33951899373E+02  0.13999903139E+02  0.26557138603E+01  0.36820939356E+02  0.00000000000E+00 0. -1.
         11    1    4    4    0    0  0.23787132280E+01  0.77989934919E+01 -0.64377967179E+00  0.81790603761E+01  0.51100000000E-03 0. -1.
        -11    1    4    4    0    0 -0.22798682560E+02 -0.42322865243E+01  0.32040491891E+01  0.23408505017E+02  0.51100000000E-03 0.  1.
         12    1    4    4    0    0 -0.13531930041E+02 -0.17566610107E+02 -0.52159833777E+01  0.22779495251E+02  0.00000000000E+00 0. -1.
</event>
<event>
 8    1  0.2472977E-006  0.9118800E+02  0.7816164E-02  0.1184000E+00
        -11   -1    0    0    0    0  0.00000000000E+00  0.00000000000E+00  0.45593999997E+02  0.45594000000E+02  0.51100000000E-03 0.  1.
         11   -1    0    0    0    0 -0.00000000000E+00 -0.00000000000E+00 -0.45593999997E+02  0.45594000000E+02  0.51100000000E-03 0. -1.
         23    2    1    2    0    0 -0.88817841970E-15 -0.35527136788E-14  0.35527136788E-14  0.91188000000E+02  0.91188000000E+02 0.  0.
    9900012    2    3    3    0    0 -0.33920848504E+01  0.20147499529E+02 -0.30632536056E+02  0.54367078745E+02  0.39999987614E+02 0.  0.
        -12    1    3    3    0    0  0.33920848504E+01 -0.20147499529E+02  0.30632536056E+02  0.36820921255E+02  0.00000000000E+00 0.  1.
         11    1    4    4    0    0 -0.83781569606E+01  0.44408857006E+01 -0.17516913733E+02  0.19918766198E+02  0.51100000000E-03 0. -1.
        -11    1    4    4    0    0  0.61336110358E+01  0.23267393681E+02 -0.11324813497E+02  0.26594063135E+02  0.51100000000E-03 0.  1.
        -12    1    4    4    0    0 -0.11475389256E+01 -0.75607798527E+01 -0.17908088259E+01  0.78542494115E+01  0.00000000000E+00 0.  1.
</event>
<event>
 8    1  0.2472977E-006  0.9118800E+02  0.7816164E-02  0.1184000E+00
        -11   -1    0    0    0    0  0.00000000000E+00  0.00000000000E+00  0.45593999997E+02  0.45594000000E+02  0.51100000000E-03 0.  1.
         11   -1    0    0    0    0 -0.00000000000E+00 -0.00000000000E+00 -0.45593999997E+02  0.45594000000E+02  0.51100000000E-03 0. -1.
         23    2    1    2    0    0  0.00000000000E+00  0.00000000000E+00  0.13322676296E-14  0.91188000000E+02  0.91188000000E+02 0.  0.
    9900012    2    3    3    0    0 -0.69711173791E+01 -0.36110151316E+02  0.18000015253E+01  0.54367088672E+02  0.40000010245E+02 0.  0.
        -12    1    3    3    0    0  0.69711173791E+01  0.36110151316E+02 -0.18000015253E+01  0.36820911328E+02  0.00000000000E+00 0.  1.
         11    1    4    4    0    0 -0.24562455649E+01 -0.35422017086E+01 -0.65121549812E+01  0.78095132998E+01  0.51100000000E-03 0. -1.
        -11    1    4    4    0    0  0.44424741013E+01 -0.20357307603E+02  0.18858479467E+02  0.28103341386E+02  0.51100000000E-03 0.  1.
        -12    1    4    4    0    0 -0.89573459155E+01 -0.12210642004E+02 -0.10546322961E+02  0.18454233986E+02  0.00000000000E+00 0.  1.
</event>
<event>
 8    1  0.2472977E-006  0.9118800E+02  0.7816164E-02  0.1184000E+00
        -11   -1    0    0    0    0  0.00000000000E+00  0.00000000000E+00  0.45593999997E+02  0.45594000000E+02  0.51100000000E-03 0. -1.
         11   -1    0    0    0    0 -0.00000000000E+00 -0.00000000000E+00 -0.45593999997E+02  0.45594000000E+02  0.51100000000E-03 0.  1.
         23    2    1    2    0    0  0.00000000000E+00  0.35527136788E-14  0.00000000000E+00  0.91188000000E+02  0.91188000000E+02 0.  0.
    9900012    2    3    3    0    0 -0.90164854197E+01  0.29166726020E+02  0.20586031224E+02  0.54367087496E+02  0.40000007565E+02 0.  0.
        -12    1    3    3    0    0  0.90164854197E+01 -0.29166726020E+02 -0.20586031224E+02  0.36820912504E+02  0.00000000000E+00 0.  1.
         11    1    4    4    0    0 -0.62337088221E+00  0.32118969372E+01 -0.16308589847E+01  0.36557590841E+01  0.51100000000E-03 0. -1.
        -11    1    4    4    0    0  0.18627767697E+01  0.12631914950E+02 -0.87469463526E+01  0.15477218205E+02  0.51100000000E-03 0.  1.
         12    1    4    4    0    0 -0.10255891307E+02  0.13322914133E+02  0.30963836562E+02  0.35234110207E+02  0.00000000000E+00 0. -1.
</event>
<event>
 8    1  0.2472977E-006  0.9118800E+02  0.7816164E-02  0.1184000E+00
        -11   -1    0    0    0    0  0.00000000000E+00  0.00000000000E+00  0.45593999997E+02  0.45594000000E+02  0.51100000000E-03 0.  1.
         11   -1    0    0    0    0 -0.00000000000E+00 -0.00000000000E+00 -0.45593999997E+02  0.45594000000E+02  0.51100000000E-03 0. -1.
         23    2    1    2    0    0  0.00000000000E+00  0.00000000000E+00 -0.10658141036E-13  0.91188000000E+02  0.91188000000E+02 0.  0.
    9900012    2    3    3    0    0 -0.21239713652E+02 -0.16157082546E+02 -0.25369350402E+02  0.54367072632E+02  0.39999973679E+02 0.  0.
        -12    1    3    3    0    0  0.21239713652E+02  0.16157082546E+02  0.25369350402E+02  0.36820927368E+02  0.00000000000E+00 0.  1.
         11    1    4    4    0    0 -0.55720934523E+01  0.19853620058E-01  0.70115738605E+01  0.89560475585E+01  0.51100000000E-03 0. -1.
        -11    1    4    4    0    0 -0.21349116391E+02 -0.14481907558E+02 -0.24777278233E+02  0.35769035968E+02  0.51100000000E-03 0.  1.
         12    1    4    4    0    0  0.56814961919E+01 -0.16950286085E+01 -0.76036460303E+01  0.96419891057E+01  0.00000000000E+00 0. -1.
</event>
<event>
 8    1  0.2472977E-006  0.9118800E+02  0.7816164E-02  0.1184000E+00
        -11   -1    0    0    0    0  0.00000000000E+00  0.00000000000E+00  0.45593999997E+02  0.45594000000E+02  0.51100000000E-03 0. -1.
         11   -1    0    0    0    0 -0.00000000000E+00 -0.00000000000E+00 -0.45593999997E+02  0.45594000000E+02  0.51100000000E-03 0.  1.
         23    2    1    2    0    0 -0.88817841970E-15  0.00000000000E+00  0.00000000000E+00  0.91188000000E+02  0.91188000000E+02 0.  0.
    9900012    2    3    3    0    0  0.77922545419E+01  0.30803236780E+02 -0.18607011913E+02  0.54367088559E+02  0.40000009989E+02 0.  0.
         12    1    3    3    0    0 -0.77922545419E+01 -0.30803236780E+02  0.18607011913E+02  0.36820911441E+02  0.00000000000E+00 0. -1.
         11    1    4    4    0    0 -0.30789646600E+01  0.11996127812E+02  0.98559966857E+01  0.15828069269E+02  0.51100000000E-03 0. -1.
        -11    1    4    4    0    0  0.63193299421E+01  0.11604209976E+02 -0.59952029851E+01  0.14509792527E+02  0.51100000000E-03 0.  1.
         12    1    4    4    0    0  0.45518892598E+01  0.72028989916E+01 -0.22467805614E+02  0.24029226763E+02  0.00000000000E+00 0. -1.
</event>
<event>
 8    1  0.2472977E-006  0.9118800E+02  0.7816164E-02  0.1184000E+00
        -11   -1    0    0    0    0  0.00000000000E+00  0.00000000000E+00  0.45593999997E+02  0.45594000000E+02  0.51100000000E-03 0.  1.
         11   -1    0    0    0    0 -0.00000000000E+00 -0.00000000000E+00 -0.45593999997E+02  0.45594000000E+02  0.51100000000E-03 0. -1.
         23    2    1    2    0    0  0.00000000000E+00  0.44408920985E-15  0.88817841970E-15  0.91188000000E+02  0.91188000000E+02 0.  0.
    9900012    2    3    3    0    0 -0.35874694784E+02  0.28473375854E+01 -0.77896668168E+01  0.54367082490E+02  0.39999996152E+02 0.  0.
         12    1    3    3    0    0  0.35874694784E+02 -0.28473375854E+01  0.77896668168E+01  0.36820917510E+02  0.00000000000E+00 0. -1.
         11    1    4    4    0    0  0.52118006739E+01  0.81320191254E+01  0.30379975368E+01  0.10125316322E+02  0.51100000000E-03 0.  1.
        -11    1    4    4    0    0 -0.19086204616E+02 -0.73389606054E-01 -0.10161717617E+02  0.21622883662E+02  0.51100000000E-03 0. -1.
        -12    1    4    4    0    0 -0.22000290842E+02 -0.52112919339E+01 -0.66594673642E+00  0.22618882506E+02  0.00000000000E+00 0.  1.
</event>
<event>
 8    1  0.2472977E-006  0.9118800E+02  0.7816164E-02  0.1184000E+00
        -11   -1    0    0    0    0  0.00000000000E+00  0.00000000000E+00  0.45593999997E+02  0.45594000000E+02  0.51100000000E-03 0.  1.
         11   -1    0    0    0    0 -0.00000000000E+00 -0.00000000000E+00 -0.45593999997E+02  0.45594000000E+02  0.51100000000E-03 0. -1.
         23    2    1    2    0    0  0.88817841970E-15 -0.17763568394E-14  0.00000000000E+00  0.91188000000E+02  0.91188000000E+02 0.  0.
    9900012    2    3    3    0    0 -0.31702492635E+01  0.11537391418E+02 -0.34822644917E+02  0.54367102671E+02  0.40000042159E+02 0.  0.
        -12    1    3    3    0    0  0.31702492635E+01 -0.11537391418E+02  0.34822644917E+02  0.36820897329E+02  0.00000000000E+00 0.  1.
         11    1    4    4    0    0  0.69756443592E+01  0.10769095386E+00  0.10817575189E+01  0.70598449812E+01  0.51100000000E-03 0. -1.
        -11    1    4    4    0    0 -0.14873981347E+02 -0.32790140777E+01 -0.19931115007E+02  0.25084588896E+02  0.51100000000E-03 0.  1.
        -12    1    4    4    0    0  0.47280877245E+01  0.14708714542E+02 -0.15973287429E+02  0.22222668793E+02  0.00000000000E+00 0.  1.
</event>
<event>
 8    1  0.2472977E-006  0.9118800E+02  0.7816164E-02  0.1184000E+00
        -11   -1    0    0    0    0  0.00000000000E+00  0.00000000000E+00  0.45593999997E+02  0.45594000000E+02  0.51100000000E-03 0.  1.
         11   -1    0    0    0    0 -0.00000000000E+00 -0.00000000000E+00 -0.45593999997E+02  0.45594000000E+02  0.51100000000E-03 0. -1.
         23    2    1    2    0    0  0.00000000000E+00 -0.35527136788E-14  0.35527136788E-14  0.91188000000E+02  0.91188000000E+02 0.  0.
    9900012    2    3    3    0    0 -0.11409746700E+02  0.19847802937E+02 -0.28838559507E+02  0.54367080462E+02  0.39999991528E+02 0.  0.
        -12    1    3    3    0    0  0.11409746700E+02 -0.19847802937E+02  0.28838559507E+02  0.36820919538E+02  0.00000000000E+00 0.  1.
         11    1    4    4    0    0 -0.43126971263E+00  0.26632265700E+02 -0.13441800861E+02  0.29835307616E+02  0.51100000000E-03 0. -1.
        -11    1    4    4    0    0 -0.29454076498E+01  0.27149464691E+00  0.23738397433E+01  0.37926575056E+01  0.51100000000E-03 0.  1.
         12    1    4    4    0    0 -0.80330693377E+01 -0.70559574100E+01 -0.17770598390E+02  0.20739115340E+02  0.00000000000E+00 0. -1.
</event>
<event>
 8    1  0.2472977E-006  0.9118800E+02  0.7816164E-02  0.1184000E+00
        -11   -1    0    0    0    0  0.00000000000E+00  0.00000000000E+00  0.45593999997E+02  0.45594000000E+02  0.51100000000E-03 0. -1.
         11   -1    0    0    0    0 -0.00000000000E+00 -0.00000000000E+00 -0.45593999997E+02  0.45594000000E+02  0.51100000000E-03 0.  1.
         23    2    1    2    0    0  0.00000000000E+00  0.00000000000E+00  0.00000000000E+00  0.91188000000E+02  0.91188000000E+02 0.  0.
    9900012    2    3    3    0    0 -0.94611815939E+01  0.20572173468E+02  0.29035333670E+02  0.54367097245E+02  0.40000029789E+02 0.  0.
        -12    1    3    3    0    0  0.94611815939E+01 -0.20572173468E+02 -0.29035333670E+02  0.36820902755E+02  0.00000000000E+00 0.  1.
         11    1    4    4    0    0 -0.52358034892E+01  0.13142963921E+00  0.26792247177E+02  0.27299366677E+02  0.51100000000E-03 0. -1.
        -11    1    4    4    0    0 -0.71283346283E+01  0.10830983305E+02 -0.58000319952E+01  0.14204355858E+02  0.51100000000E-03 0.  1.
        -12    1    4    4    0    0  0.29029565236E+01  0.96097605244E+01  0.80431184886E+01  0.12863374710E+02  0.00000000000E+00 0.  1.
</event>
<event>
 8    1  0.2472977E-006  0.9118800E+02  0.7816164E-02  0.1184000E+00
        -11   -1    0    0    0    0  0.00000000000E+00  0.00000000000E+00  0.45593999997E+02  0.45594000000E+02  0.51100000000E-03 0. -1.
         11   -1    0    0    0    0 -0.00000000000E+00 -0.00000000000E+00 -0.45593999997E+02  0.45594000000E+02  0.51100000000E-03 0.  1.
         23    2    1    2    0    0  0.00000000000E+00  0.00000000000E+00 -0.35527136788E-14  0.91188000000E+02  0.91188000000E+02 0.  0.
    9900012    2    3    3    0    0  0.21915127555E+02 -0.15579341701E+02  0.25155403576E+02  0.54367040852E+02  0.39999901229E+02 0.  0.
        -12    1    3    3    0    0 -0.21915127555E+02  0.15579341701E+02 -0.25155403576E+02  0.36820959148E+02  0.00000000000E+00 0.  1.
         11    1    4    4    0    0  0.15235428754E+01  0.84914988623E+00 -0.12385903107E+01  0.21392392670E+01  0.51100000000E-03 0. -1.
        -11    1    4    4    0    0 -0.62060585006E+01 -0.12804215786E+02 -0.48915631910E+00  0.14237358539E+02  0.51100000000E-03 0.  1.
        -12    1    4    4    0    0  0.26597643180E+02 -0.36242758005E+01  0.26883150205E+02  0.37990443045E+02  0.00000000000E+00 0.  1.
</event>
<event>
 8    1  0.2472977E-006  0.9118800E+02  0.7816164E-02  0.1184000E+00
        -11   -1    0    0    0    0  0.00000000000E+00  0.00000000000E+00  0.45593999997E+02  0.45594000000E+02  0.51100000000E-03 0.  1.
         11   -1    0    0    0    0 -0.00000000000E+00 -0.00000000000E+00 -0.45593999997E+02  0.45594000000E+02  0.51100000000E-03 0. -1.
         23    2    1    2    0    0  0.00000000000E+00  0.00000000000E+00  0.00000000000E+00  0.91188000000E+02  0.91188000000E+02 0.  0.
    9900012    2    3    3    0    0 -0.15780959434E+02 -0.10565701077E+01 -0.33250952506E+02  0.54367070305E+02  0.39999968373E+02 0.  0.
        -12    1    3    3    0    0  0.15780959434E+02  0.10565701077E+01  0.33250952506E+02  0.36820929695E+02  0.00000000000E+00 0.  1.
         11    1    4    4    0    0 -0.10276452920E+02  0.23559072072E+01 -0.30662346345E+02  0.32424300564E+02  0.51100000000E-03 0. -1.
        -11    1    4    4    0    0  0.46939866147E+01  0.47200069994E+01  0.35302458186E+01  0.75348929796E+01  0.51100000000E-03 0.  1.
         12    1    4    4    0    0 -0.10198493129E+02 -0.81324843143E+01 -0.61188519796E+01  0.14407876761E+02  0.00000000000E+00 0. -1.
</event>
<event>
 8    1  0.2472977E-006  0.9118800E+02  0.7816164E-02  0.1184000E+00
        -11   -1    0    0    0    0  0.00000000000E+00  0.00000000000E+00  0.45593999997E+02  0.45594000000E+02  0.51100000000E-03 0. -1.
         11   -1    0    0    0    0 -0.00000000000E+00 -0.00000000000E+00 -0.45593999997E+02  0.45594000000E+02  0.51100000000E-03 0.  1.
         23    2    1    2    0    0  0.00000000000E+00  0.00000000000E+00  0.35527136788E-14  0.91188000000E+02  0.91188000000E+02 0.  0.
    9900012    2    3    3    0    0  0.16532031479E+02 -0.25268361153E+02 -0.21070892744E+02  0.54367073053E+02  0.39999974640E+02 0.  0.
        -12    1    3    3    0    0 -0.16532031479E+02  0.25268361153E+02  0.21070892744E+02  0.36820926947E+02  0.00000000000E+00 0.  1.
         11    1    4    4    0    0  0.91764881151E+01  0.61570013228E+01 -0.33182745214E+01  0.11538091067E+02  0.51100000000E-03 0. -1.
        -11    1    4    4    0    0 -0.73968137885E+01 -0.12111708870E+02 -0.33614782268E+01  0.14584439725E+02  0.51100000000E-03 0.  1.
         12    1    4    4    0    0  0.14752357152E+02 -0.19313653606E+02 -0.14391139996E+02  0.28244542261E+02  0.00000000000E+00 0. -1.
</event>
<event>
 8    1  0.2472977E-006  0.9118800E+02  0.7816164E-02  0.1184000E+00
        -11   -1    0    0    0    0  0.00000000000E+00  0.00000000000E+00  0.45593999997E+02  0.45594000000E+02  0.51100000000E-03 0. -1.
         11   -1    0    0    0    0 -0.00000000000E+00 -0.00000000000E+00 -0.45593999997E+02  0.45594000000E+02  0.51100000000E-03 0.  1.
         23    2    1    2    0    0 -0.88817841970E-15 -0.14210854715E-13 -0.88817841970E-15  0.91188000000E+02  0.91188000000E+02 0.  0.
    9900012    2    3    3    0    0  0.56042023871E+01 -0.35961429114E+02  0.55810084182E+01  0.54367093938E+02  0.40000022249E+02 0.  0.
        -12    1    3    3    0    0 -0.56042023871E+01  0.35961429114E+02 -0.55810084182E+01  0.36820906062E+02  0.00000000000E+00 0.  1.
         11    1    4    4    0    0  0.41128787601E+01  0.66524939936E+01  0.96125178813E+00  0.78800668330E+01  0.51100000000E-03 0.  1.
        -11    1    4    4    0    0  0.89568049929E+01 -0.18029389259E+02 -0.11122527858E+01  0.20162349547E+02  0.51100000000E-03 0. -1.
         12    1    4    4    0    0 -0.74654813660E+01 -0.24584533848E+02  0.57320094159E+01  0.26324677558E+02  0.00000000000E+00 0. -1.
</event>
<event>
 8    1  0.2472977E-006  0.9118800E+02  0.7816164E-02  0.1184000E+00
        -11   -1    0    0    0    0  0.00000000000E+00  0.00000000000E+00  0.45593999997E+02  0.45594000000E+02  0.51100000000E-03 0.  1.
         11   -1    0    0    0    0 -0.00000000000E+00 -0.00000000000E+00 -0.45593999997E+02  0.45594000000E+02  0.51100000000E-03 0. -1.
         23    2    1    2    0    0  0.00000000000E+00  0.00000000000E+00  0.00000000000E+00  0.91188000000E+02  0.91188000000E+02 0.  0.
    9900012    2    3    3    0    0 -0.40795949916E+01  0.32709442723E+02  0.16408196446E+02  0.54367086796E+02  0.40000005969E+02 0.  0.
        -12    1    3    3    0    0  0.40795949916E+01 -0.32709442723E+02 -0.16408196446E+02  0.36820913204E+02  0.00000000000E+00 0.  1.
         11    1    4    4    0    0  0.93648708194E+01  0.30014073342E+02  0.35773712169E+01  0.31644004000E+02  0.51100000000E-03 0. -1.
        -11    1    4    4    0    0 -0.12358866437E+02 -0.20392552960E+01  0.12737636071E+02  0.17864700241E+02  0.51100000000E-03 0.  1.
        -12    1    4    4    0    0 -0.10855993741E+01  0.47346246774E+01  0.93189158299E-01  0.48583825556E+01  0.00000000000E+00 0.  1.
</event>
<event>
 8    1  0.2472977E-006  0.9118800E+02  0.7816164E-02  0.1184000E+00
        -11   -1    0    0    0    0  0.00000000000E+00  0.00000000000E+00  0.45593999997E+02  0.45594000000E+02  0.51100000000E-03 0.  1.
         11   -1    0    0    0    0 -0.00000000000E+00 -0.00000000000E+00 -0.45593999997E+02  0.45594000000E+02  0.51100000000E-03 0. -1.
         23    2    1    2    0    0  0.71054273576E-14  0.00000000000E+00  0.00000000000E+00  0.91188000000E+02  0.91188000000E+02 0.  0.
    9900012    2    3    3    0    0  0.19481574792E+02 -0.23021732354E+02 -0.21124574147E+02  0.54367088145E+02  0.40000009044E+02 0.  0.
         12    1    3    3    0    0 -0.19481574792E+02  0.23021732354E+02  0.21124574147E+02  0.36820911855E+02  0.00000000000E+00 0. -1.
         11    1    4    4    0    0  0.46108973617E+01 -0.89220020161E+01 -0.16891497016E+02  0.19651594494E+02  0.51100000000E-03 0. -1.
        -11    1    4    4    0    0 -0.66266307428E+01 -0.66770202677E+01  0.44051859968E+01  0.10387516478E+02  0.51100000000E-03 0.  1.
        -12    1    4    4    0    0  0.21497308173E+02 -0.74227100700E+01 -0.86382631281E+01  0.24327977173E+02  0.00000000000E+00 0.  1.
</event>
<event>
 8    1  0.2472977E-006  0.9118800E+02  0.7816164E-02  0.1184000E+00
        -11   -1    0    0    0    0  0.00000000000E+00  0.00000000000E+00  0.45593999997E+02  0.45594000000E+02  0.51100000000E-03 0. -1.
         11   -1    0    0    0    0 -0.00000000000E+00 -0.00000000000E+00 -0.45593999997E+02  0.45594000000E+02  0.51100000000E-03 0.  1.
         23    2    1    2    0    0  0.00000000000E+00  0.00000000000E+00  0.00000000000E+00  0.91188000000E+02  0.91188000000E+02 0.  0.
    9900012    2    3    3    0    0  0.95621090878E+01  0.30082208309E+01  0.35430168065E+02  0.54367080241E+02  0.39999991025E+02 0.  0.
        -12    1    3    3    0    0 -0.95621090878E+01 -0.30082208309E+01 -0.35430168065E+02  0.36820919759E+02  0.00000000000E+00 0.  1.
         11    1    4    4    0    0  0.88408159774E+01  0.59195585353E+01  0.22982139344E+02  0.25325479847E+02  0.51100000000E-03 0. -1.
        -11    1    4    4    0    0  0.77270095027E+01  0.38381634075E+01  0.16408249359E+02  0.18538306867E+02  0.51100000000E-03 0.  1.
        -12    1    4    4    0    0 -0.70057163922E+01 -0.67495011119E+01 -0.39602206375E+01  0.10503293528E+02  0.00000000000E+00 0.  1.
</event>
<event>
 8    1  0.2472977E-006  0.9118800E+02  0.7816164E-02  0.1184000E+00
        -11   -1    0    0    0    0  0.00000000000E+00  0.00000000000E+00  0.45593999997E+02  0.45594000000E+02  0.51100000000E-03 0.  1.
         11   -1    0    0    0    0 -0.00000000000E+00 -0.00000000000E+00 -0.45593999997E+02  0.45594000000E+02  0.51100000000E-03 0. -1.
         23    2    1    2    0    0  0.00000000000E+00 -0.17763568394E-14  0.00000000000E+00  0.91188000000E+02  0.91188000000E+02 0.  0.
    9900012    2    3    3    0    0  0.21791633723E+02 -0.57306912493E+01 -0.29121535573E+02  0.54367082621E+02  0.39999996452E+02 0.  0.
        -12    1    3    3    0    0 -0.21791633723E+02  0.57306912493E+01  0.29121535573E+02  0.36820917379E+02  0.00000000000E+00 0.  1.
         11    1    4    4    0    0  0.69647762186E+01  0.13394389995E+02 -0.65480538118E+01  0.16455843950E+02  0.51100000000E-03 0.  1.
        -11    1    4    4    0    0  0.18599213450E+02 -0.18169893378E+02 -0.21828060509E+02  0.33949079401E+02  0.51100000000E-03 0. -1.
         12    1    4    4    0    0 -0.37723559461E+01 -0.95518786631E+00 -0.74542125216E+00  0.39621592708E+01  0.00000000000E+00 0. -1.
</event>
<event>
 8    1  0.2472977E-006  0.9118800E+02  0.7816164E-02  0.1184000E+00
        -11   -1    0    0    0    0  0.00000000000E+00  0.00000000000E+00  0.45593999997E+02  0.45594000000E+02  0.51100000000E-03 0.  1.
         11   -1    0    0    0    0 -0.00000000000E+00 -0.00000000000E+00 -0.45593999997E+02  0.45594000000E+02  0.51100000000E-03 0. -1.
         23    2    1    2    0    0  0.35527136788E-14  0.00000000000E+00 -0.88817841970E-15  0.91188000000E+02  0.91188000000E+02 0.  0.
    9900012    2    3    3    0    0  0.31143443506E+02 -0.19126937951E+02 -0.44750027435E+01  0.54367089116E+02  0.40000011257E+02 0.  0.
        -12    1    3    3    0    0 -0.31143443506E+02  0.19126937951E+02  0.44750027435E+01  0.36820910884E+02  0.00000000000E+00 0.  1.
         11    1    4    4    0    0  0.52790007543E+01  0.24414826369E+01 -0.12818929168E+02  0.14076705286E+02  0.51100000000E-03 0. -1.
        -11    1    4    4    0    0  0.96166744612E+01 -0.15757082252E+02  0.12806217056E+02  0.22466981647E+02  0.51100000000E-03 0.  1.
         12    1    4    4    0    0  0.16247768291E+02 -0.58113383363E+01 -0.44622906306E+01  0.17823402182E+02  0.00000000000E+00 0. -1.
</event>
<event>
 8    1  0.2472977E-006  0.9118800E+02  0.7816164E-02  0.1184000E+00
        -11   -1    0    0    0    0  0.00000000000E+00  0.00000000000E+00  0.45593999997E+02  0.45594000000E+02  0.51100000000E-03 0.  1.
         11   -1    0    0    0    0 -0.00000000000E+00 -0.00000000000E+00 -0.45593999997E+02  0.45594000000E+02  0.51100000000E-03 0. -1.
         23    2    1    2    0    0  0.88817841970E-15  0.35527136788E-14 -0.71054273576E-14  0.91188000000E+02  0.91188000000E+02 0.  0.
    9900012    2    3    3    0    0  0.24518543398E+01 -0.17173798396E+02  0.32478126624E+02  0.54367086784E+02  0.40000005941E+02 0.  0.
         12    1    3    3    0    0 -0.24518543398E+01  0.17173798396E+02 -0.32478126624E+02  0.36820913216E+02  0.00000000000E+00 0. -1.
         11    1    4    4    0    0 -0.15257479804E+02 -0.35751116262E+01  0.37354662769E+01  0.16109805141E+02  0.51100000000E-03 0. -1.
        -11    1    4    4    0    0  0.11665411507E+01 -0.16380196557E+01  0.11086044971E+02  0.11266956999E+02  0.51100000000E-03 0.  1.
         12    1    4    4    0    0  0.16542792993E+02 -0.11960667114E+02  0.17656615376E+02  0.26990324644E+02  0.00000000000E+00 0. -1.
</event>
<event>
 8    1  0.2472977E-006  0.9118800E+02  0.7816164E-02  0.1184000E+00
        -11   -1    0    0    0    0  0.00000000000E+00  0.00000000000E+00  0.45593999997E+02  0.45594000000E+02  0.51100000000E-03 0.  1.
         11   -1    0    0    0    0 -0.00000000000E+00 -0.00000000000E+00 -0.45593999997E+02  0.45594000000E+02  0.51100000000E-03 0. -1.
         23    2    1    2    0    0 -0.17763568394E-14  0.00000000000E+00  0.00000000000E+00  0.91188000000E+02  0.91188000000E+02 0.  0.
    9900012    2    3    3    0    0  0.10508292042E+02  0.19540204469E+02 -0.29385994528E+02  0.54367075694E+02  0.39999980661E+02 0.  0.
        -12    1    3    3    0    0 -0.10508292042E+02 -0.19540204469E+02  0.29385994528E+02  0.36820924306E+02  0.00000000000E+00 0.  1.
         11    1    4    4    0    0 -0.88184970097E+00  0.11898536801E+02 -0.22922054659E+02  0.25841312408E+02  0.51100000000E-03 0. -1.
        -11    1    4    4    0    0  0.17387022025E+02  0.28014115012E-01 -0.10368181677E+01  0.17417930757E+02  0.51100000000E-03 0.  1.
         12    1    4    4    0    0 -0.59968802823E+01  0.76136535529E+01 -0.54271217011E+01  0.11107832529E+02  0.00000000000E+00 0. -1.
</event>
<event>
 8    1  0.2472977E-006  0.9118800E+02  0.7816164E-02  0.1184000E+00
        -11   -1    0    0    0    0  0.00000000000E+00  0.00000000000E+00  0.45593999997E+02  0.45594000000E+02  0.51100000000E-03 0. -1.
         11   -1    0    0    0    0 -0.00000000000E+00 -0.00000000000E+00 -0.45593999997E+02  0.45594000000E+02  0.51100000000E-03 0.  1.
         23    2    1    2    0    0  0.35527136788E-14  0.35527136788E-14  0.44408920985E-15  0.91188000000E+02  0.91188000000E+02 0.  0.
    9900012    2    3    3    0    0  0.25949495203E+02  0.25965352354E+02  0.28643539131E+01  0.54367077314E+02  0.39999984352E+02 0.  0.
        -12    1    3    3    0    0 -0.25949495203E+02 -0.25965352354E+02 -0.28643539131E+01  0.36820922686E+02  0.00000000000E+00 0.  1.
         11    1    4    4    0    0  0.20622072362E+01  0.55905900657E+01  0.71657735318E+01  0.93196409018E+01  0.51100000000E-03 0. -1.
        -11    1    4    4    0    0 -0.16967728698E+00  0.14880084310E+02 -0.12087553988E+02  0.19171715133E+02  0.51100000000E-03 0.  1.
        -12    1    4    4    0    0  0.24056965254E+02  0.54946779786E+01  0.77861343696E+01  0.25875721279E+02  0.00000000000E+00 0.  1.
</event>
<event>
 8    1  0.2472977E-006  0.9118800E+02  0.7816164E-02  0.1184000E+00
        -11   -1    0    0    0    0  0.00000000000E+00  0.00000000000E+00  0.45593999997E+02  0.45594000000E+02  0.51100000000E-03 0.  1.
         11   -1    0    0    0    0 -0.00000000000E+00 -0.00000000000E+00 -0.45593999997E+02  0.45594000000E+02  0.51100000000E-03 0. -1.
         23    2    1    2    0    0 -0.33306690739E-15  0.35527136788E-14 -0.35527136788E-14  0.91188000000E+02  0.91188000000E+02 0.  0.
    9900012    2    3    3    0    0  0.83802747901E+00 -0.26299316391E+02  0.25756990634E+02  0.54367096980E+02  0.40000029186E+02 0.  0.
         12    1    3    3    0    0 -0.83802747901E+00  0.26299316391E+02 -0.25756990634E+02  0.36820903020E+02  0.00000000000E+00 0. -1.
         11    1    4    4    0    0  0.66735913072E+01 -0.73256500716E+01  0.14491832580E+02  0.17556058262E+02  0.51100000000E-03 0. -1.
        -11    1    4    4    0    0 -0.12004839547E+02 -0.23665958676E+02  0.11799377421E+02  0.29041678333E+02  0.51100000000E-03 0.  1.
        -12    1    4    4    0    0  0.61692757186E+01  0.46922923574E+01 -0.53421936781E+00  0.77693603851E+01  0.00000000000E+00 0.  1.
</event>
<event>
 8    1  0.2472977E-006  0.9118800E+02  0.7816164E-02  0.1184000E+00
        -11   -1    0    0    0    0  0.00000000000E+00  0.00000000000E+00  0.45593999997E+02  0.45594000000E+02  0.51100000000E-03 0. -1.
         11   -1    0    0    0    0 -0.00000000000E+00 -0.00000000000E+00 -0.45593999997E+02  0.45594000000E+02  0.51100000000E-03 0.  1.
         23    2    1    2    0    0  0.35527136788E-14  0.17763568394E-14  0.00000000000E+00  0.91188000000E+02  0.91188000000E+02 0.  0.
    9900012    2    3    3    0    0  0.22865513285E+02  0.94625443945E+01  0.27265522841E+02  0.54367079588E+02  0.39999989537E+02 0.  0.
        -12    1    3    3    0    0 -0.22865513285E+02 -0.94625443945E+01 -0.27265522841E+02  0.36820920412E+02  0.00000000000E+00 0.  1.
         11    1    4    4    0    0  0.12931372428E+02  0.88564083104E+01  0.26797468589E+02  0.31044495230E+02  0.51100000000E-03 0. -1.
        -11    1    4    4    0    0  0.75382929214E+00  0.24748266518E+01  0.97782111303E+01  0.10114664539E+02  0.51100000000E-03 0.  1.
        -12    1    4    4    0    0  0.91803115646E+01 -0.18686905676E+01 -0.93101568786E+01  0.13207919820E+02  0.00000000000E+00 0.  1.
</event>
<event>
 8    1  0.2472977E-006  0.9118800E+02  0.7816164E-02  0.1184000E+00
        -11   -1    0    0    0    0  0.00000000000E+00  0.00000000000E+00  0.45593999997E+02  0.45594000000E+02  0.51100000000E-03 0.  1.
         11   -1    0    0    0    0 -0.00000000000E+00 -0.00000000000E+00 -0.45593999997E+02  0.45594000000E+02  0.51100000000E-03 0. -1.
         23    2    1    2    0    0  0.35527136788E-14  0.00000000000E+00  0.00000000000E+00  0.91188000000E+02  0.91188000000E+02 0.  0.
    9900012    2    3    3    0    0  0.17362685382E+02 -0.20736524855E+02  0.24986254843E+02  0.54367092382E+02  0.40000018704E+02 0.  0.
         12    1    3    3    0    0 -0.17362685382E+02  0.20736524855E+02 -0.24986254843E+02  0.36820907618E+02  0.00000000000E+00 0. -1.
         11    1    4    4    0    0 -0.45852746390E+00 -0.13516966717E+02  0.11218396773E+02  0.17571882742E+02  0.51100000000E-03 0. -1.
        -11    1    4    4    0    0  0.80163584958E+01 -0.15626582881E+02 -0.47385465865E+00  0.17569195615E+02  0.51100000000E-03 0.  1.
         12    1    4    4    0    0  0.98048543501E+01  0.84070247432E+01  0.14241712728E+02  0.19226014025E+02  0.00000000000E+00 0. -1.
</event>
<event>
 8    1  0.2472977E-006  0.9118800E+02  0.7816164E-02  0.1184000E+00
        -11   -1    0    0    0    0  0.00000000000E+00  0.00000000000E+00  0.45593999997E+02  0.45594000000E+02  0.51100000000E-03 0. -1.
         11   -1    0    0    0    0 -0.00000000000E+00 -0.00000000000E+00 -0.45593999997E+02  0.45594000000E+02  0.51100000000E-03 0.  1.
         23    2    1    2    0    0  0.17763568394E-14  0.00000000000E+00  0.00000000000E+00  0.91188000000E+02  0.91188000000E+02 0.  0.
    9900012    2    3    3    0    0  0.99081374995E+01 -0.24085454391E+02  0.26028813837E+02  0.54367089478E+02  0.40000012083E+02 0.  0.
        -12    1    3    3    0    0 -0.99081374995E+01  0.24085454391E+02 -0.26028813837E+02  0.36820910522E+02  0.00000000000E+00 0.  1.
         11    1    4    4    0    0 -0.36864665558E+01  0.46682631108E+01  0.13313539570E+02  0.14581942678E+02  0.51100000000E-03 0. -1.
        -11    1    4    4    0    0  0.39872790484E+01  0.16852557365E-02 -0.35860544872E+01  0.53626657640E+01  0.51100000000E-03 0.  1.
         12    1    4    4    0    0  0.96073250070E+01 -0.28755402757E+02  0.16301328754E+02  0.34422481036E+02  0.00000000000E+00 0. -1.
</event>
<event>
 8    1  0.2472977E-006  0.9118800E+02  0.7816164E-02  0.1184000E+00
        -11   -1    0    0    0    0  0.00000000000E+00  0.00000000000E+00  0.45593999997E+02  0.45594000000E+02  0.51100000000E-03 0.  1.
         11   -1    0    0    0    0 -0.00000000000E+00 -0.00000000000E+00 -0.45593999997E+02  0.45594000000E+02  0.51100000000E-03 0. -1.
         23    2    1    2    0    0  0.88817841970E-15 -0.88817841970E-15  0.71054273576E-14  0.91188000000E+02  0.91188000000E+02 0.  0.
    9900012    2    3    3    0    0 -0.36278619041E+01  0.33679434426E+01 -0.36486646129E+02  0.54367085145E+02  0.40000002205E+02 0.  0.
        -12    1    3    3    0    0  0.36278619041E+01 -0.33679434426E+01  0.36486646129E+02  0.36820914855E+02  0.00000000000E+00 0.  1.
         11    1    4    4    0    0  0.61917239226E+01  0.36736246277E+00 -0.23035246098E+02  0.23855711337E+02  0.51100000000E-03 0. -1.
        -11    1    4    4    0    0  0.73717226384E+01  0.14977659313E+01  0.15093771707E+01  0.76722758780E+01  0.51100000000E-03 0.  1.
        -12    1    4    4    0    0 -0.17191308465E+02  0.15028150484E+01 -0.14960777201E+02  0.22839097930E+02  0.00000000000E+00 0.  1.
</event>
<event>
 8    1  0.2472977E-006  0.9118800E+02  0.7816164E-02  0.1184000E+00
        -11   -1    0    0    0    0  0.00000000000E+00  0.00000000000E+00  0.45593999997E+02  0.45594000000E+02  0.51100000000E-03 0.  1.
         11   -1    0    0    0    0 -0.00000000000E+00 -0.00000000000E+00 -0.45593999997E+02  0.45594000000E+02  0.51100000000E-03 0. -1.
         23    2    1    2    0    0  0.00000000000E+00  0.66613381478E-15  0.00000000000E+00  0.91188000000E+02  0.91188000000E+02 0.  0.
    9900012    2    3    3    0    0 -0.12345376358E+02 -0.11889377800E+01  0.34669270343E+02  0.54367079363E+02  0.39999989024E+02 0.  0.
         12    1    3    3    0    0  0.12345376358E+02  0.11889377800E+01 -0.34669270343E+02  0.36820920637E+02  0.00000000000E+00 0. -1.
         11    1    4    4    0    0 -0.59682658834E+00 -0.59079920983E+01 -0.46427794853E+01  0.75376371776E+01  0.51100000000E-03 0. -1.
        -11    1    4    4    0    0 -0.31052587820E+01 -0.87850962832E+01  0.12527639957E+02  0.15612889289E+02  0.51100000000E-03 0.  1.
         12    1    4    4    0    0 -0.86432909876E+01  0.13504150602E+02  0.26784409872E+02  0.31216552896E+02  0.00000000000E+00 0. -1.
</event>
<event>
 8    1  0.2472977E-006  0.9118800E+02  0.7816164E-02  0.1184000E+00
        -11   -1    0    0    0    0  0.00000000000E+00  0.00000000000E+00  0.45593999997E+02  0.45594000000E+02  0.51100000000E-03 0.  1.
         11   -1    0    0    0    0 -0.00000000000E+00 -0.00000000000E+00 -0.45593999997E+02  0.45594000000E+02  0.51100000000E-03 0. -1.
         23    2    1    2    0    0 -0.35527136788E-14  0.00000000000E+00 -0.35527136788E-14  0.91188000000E+02  0.91188000000E+02 0.  0.
    9900012    2    3    3    0    0 -0.16526992382E+02  0.23077239849E+02 -0.23453820768E+02  0.54367052363E+02  0.39999927473E+02 0.  0.
        -12    1    3    3    0    0  0.16526992382E+02 -0.23077239849E+02  0.23453820768E+02  0.36820947637E+02  0.00000000000E+00 0.  1.
         11    1    4    4    0    0 -0.12432074791E+02  0.45463923975E+01 -0.17118129398E+01  0.13347526784E+02  0.51100000000E-03 0. -1.
        -11    1    4    4    0    0  0.32039763749E+01 -0.28969492072E+01  0.45846596956E+01  0.62989589700E+01  0.51100000000E-03 0.  1.
         12    1    4    4    0    0 -0.72988939660E+01  0.21427796659E+02 -0.26326667524E+02  0.34720566609E+02  0.00000000000E+00 0. -1.
</event>
<event>
 8    1  0.2472977E-006  0.9118800E+02  0.7816164E-02  0.1184000E+00
        -11   -1    0    0    0    0  0.00000000000E+00  0.00000000000E+00  0.45593999997E+02  0.45594000000E+02  0.51100000000E-03 0.  1.
         11   -1    0    0    0    0 -0.00000000000E+00 -0.00000000000E+00 -0.45593999997E+02  0.45594000000E+02  0.51100000000E-03 0. -1.
         23    2    1    2    0    0  0.22204460493E-15  0.00000000000E+00  0.00000000000E+00  0.91188000000E+02  0.91188000000E+02 0.  0.
    9900012    2    3    3    0    0  0.92049630583E+00 -0.39964706888E+01 -0.36591791242E+02  0.54367105419E+02  0.40000048424E+02 0.  0.
        -12    1    3    3    0    0 -0.92049630583E+00  0.39964706888E+01  0.36591791242E+02  0.36820894581E+02  0.00000000000E+00 0.  1.
         11    1    4    4    0    0  0.20824421163E-01 -0.51969934828E+01 -0.18465929820E+02  0.19183319298E+02  0.51100000000E-03 0. -1.
        -11    1    4    4    0    0  0.37356362684E+01 -0.11907502947E+02  0.19200338732E+00  0.12481204682E+02  0.51100000000E-03 0.  1.
         12    1    4    4    0    0 -0.28359643837E+01  0.13108025740E+02 -0.18317864810E+02  0.22702581439E+02  0.00000000000E+00 0. -1.
</event>
<event>
 8    1  0.2472977E-006  0.9118800E+02  0.7816164E-02  0.1184000E+00
        -11   -1    0    0    0    0  0.00000000000E+00  0.00000000000E+00  0.45593999997E+02  0.45594000000E+02  0.51100000000E-03 0.  1.
         11   -1    0    0    0    0 -0.00000000000E+00 -0.00000000000E+00 -0.45593999997E+02  0.45594000000E+02  0.51100000000E-03 0. -1.
         23    2    1    2    0    0 -0.17763568394E-14 -0.35527136788E-14 -0.35527136788E-14  0.91188000000E+02  0.91188000000E+02 0.  0.
    9900012    2    3    3    0    0 -0.91448868416E+01 -0.29853158265E+02  0.19517661704E+02  0.54367093817E+02  0.40000021975E+02 0.  0.
         12    1    3    3    0    0  0.91448868416E+01  0.29853158265E+02 -0.19517661704E+02  0.36820906183E+02  0.00000000000E+00 0. -1.
         11    1    4    4    0    0 -0.13748445843E+02 -0.28479526655E+02  0.29148890424E+01  0.31758459975E+02  0.51100000000E-03 0. -1.
        -11    1    4    4    0    0  0.35810486646E+01 -0.57863379640E+01  0.16746997923E+02  0.18076713093E+02  0.51100000000E-03 0.  1.
         12    1    4    4    0    0  0.10225103372E+01  0.44127063534E+01 -0.14422526151E+00  0.45319207492E+01  0.00000000000E+00 0. -1.
</event>
<event>
 8    1  0.2472977E-006  0.9118800E+02  0.7816164E-02  0.1184000E+00
        -11   -1    0    0    0    0  0.00000000000E+00  0.00000000000E+00  0.45593999997E+02  0.45594000000E+02  0.51100000000E-03 0.  1.
         11   -1    0    0    0    0 -0.00000000000E+00 -0.00000000000E+00 -0.45593999997E+02  0.45594000000E+02  0.51100000000E-03 0. -1.
         23    2    1    2    0    0 -0.17763568394E-14  0.00000000000E+00  0.00000000000E+00  0.91188000000E+02  0.91188000000E+02 0.  0.
    9900012    2    3    3    0    0  0.13689712077E+02 -0.18051525748E+01  0.34133744750E+02  0.54367091222E+02  0.40000016058E+02 0.  0.
         12    1    3    3    0    0 -0.13689712077E+02  0.18051525748E+01 -0.34133744750E+02  0.36820908778E+02  0.00000000000E+00 0. -1.
         11    1    4    4    0    0 -0.56025359780E+01  0.91888197332E+01  0.70617502346E+01  0.12872106825E+02  0.51100000000E-03 0.  1.
        -11    1    4    4    0    0 -0.40955359598E+01  0.20710387004E+01  0.30322739089E+01  0.55006637251E+01  0.51100000000E-03 0. -1.
        -12    1    4    4    0    0  0.23387784015E+02 -0.13065011008E+02  0.24039720607E+02  0.35994320672E+02  0.00000000000E+00 0.  1.
</event>
<event>
 8    1  0.2472977E-006  0.9118800E+02  0.7816164E-02  0.1184000E+00
        -11   -1    0    0    0    0  0.00000000000E+00  0.00000000000E+00  0.45593999997E+02  0.45594000000E+02  0.51100000000E-03 0.  1.
         11   -1    0    0    0    0 -0.00000000000E+00 -0.00000000000E+00 -0.45593999997E+02  0.45594000000E+02  0.51100000000E-03 0. -1.
         23    2    1    2    0    0  0.17763568394E-14  0.00000000000E+00 -0.17763568394E-14  0.91188000000E+02  0.91188000000E+02 0.  0.
    9900012    2    3    3    0    0 -0.10348430439E+02  0.32873682813E+02  0.12962056268E+02  0.54367028571E+02  0.39999873233E+02 0.  0.
        -12    1    3    3    0    0  0.10348430439E+02 -0.32873682813E+02 -0.12962056268E+02  0.36820971429E+02  0.00000000000E+00 0.  1.
         11    1    4    4    0    0 -0.13639180156E+01  0.12554485400E+02 -0.77514567082E+01  0.14817572587E+02  0.51100000000E-03 0.  1.
        -11    1    4    4    0    0 -0.17883977427E+02  0.14342943270E+02  0.13135652238E+02  0.26421620507E+02  0.51100000000E-03 0. -1.
         12    1    4    4    0    0  0.88994650033E+01  0.59762541432E+01  0.75778607386E+01  0.13127835477E+02  0.00000000000E+00 0. -1.
</event>
<event>
 8    1  0.2472977E-006  0.9118800E+02  0.7816164E-02  0.1184000E+00
        -11   -1    0    0    0    0  0.00000000000E+00  0.00000000000E+00  0.45593999997E+02  0.45594000000E+02  0.51100000000E-03 0. -1.
         11   -1    0    0    0    0 -0.00000000000E+00 -0.00000000000E+00 -0.45593999997E+02  0.45594000000E+02  0.51100000000E-03 0.  1.
         23    2    1    2    0    0 -0.71054273576E-14  0.13322676296E-14 -0.17763568394E-14  0.91188000000E+02  0.91188000000E+02 0.  0.
    9900012    2    3    3    0    0 -0.33185146432E+02  0.35916719693E+01 -0.15544278298E+02  0.54367100512E+02  0.40000037238E+02 0.  0.
        -12    1    3    3    0    0  0.33185146432E+02 -0.35916719693E+01  0.15544278298E+02  0.36820899488E+02  0.00000000000E+00 0.  1.
         11    1    4    4    0    0 -0.18365871248E+02  0.30080617407E+01 -0.17323766981E+02  0.25425706771E+02  0.51100000000E-03 0. -1.
        -11    1    4    4    0    0 -0.11051588458E+01  0.11249227091E+02  0.24066696102E+01  0.11556753224E+02  0.51100000000E-03 0.  1.
         12    1    4    4    0    0 -0.13714116338E+02 -0.10665616862E+02 -0.62718092718E+00  0.17384640517E+02  0.00000000000E+00 0. -1.
</event>
<event>
 8    1  0.2472977E-006  0.9118800E+02  0.7816164E-02  0.1184000E+00
        -11   -1    0    0    0    0  0.00000000000E+00  0.00000000000E+00  0.45593999997E+02  0.45594000000E+02  0.51100000000E-03 0.  1.
         11   -1    0    0    0    0 -0.00000000000E+00 -0.00000000000E+00 -0.45593999997E+02  0.45594000000E+02  0.51100000000E-03 0. -1.
         23    2    1    2    0    0 -0.88817841970E-15  0.00000000000E+00  0.00000000000E+00  0.91188000000E+02  0.91188000000E+02 0.  0.
    9900012    2    3    3    0    0 -0.25225390462E+01  0.17730580112E+02  0.32172086447E+02  0.54367084467E+02  0.40000000659E+02 0.  0.
         12    1    3    3    0    0  0.25225390462E+01 -0.17730580112E+02 -0.32172086447E+02  0.36820915533E+02  0.00000000000E+00 0. -1.
         11    1    4    4    0    0  0.54956509234E+01 -0.71119006541E+01  0.19625928772E+02  0.21586069360E+02  0.51100000000E-03 0. -1.
        -11    1    4    4    0    0  0.12636184027E+01  0.18252153041E+02  0.45004641647E+01  0.18841231384E+02  0.51100000000E-03 0.  1.
         12    1    4    4    0    0 -0.92818083724E+01  0.65903277246E+01  0.80456935110E+01  0.13939783723E+02  0.00000000000E+00 0. -1.
</event>
<event>
 8    1  0.2472977E-006  0.9118800E+02  0.7816164E-02  0.1184000E+00
        -11   -1    0    0    0    0  0.00000000000E+00  0.00000000000E+00  0.45593999997E+02  0.45594000000E+02  0.51100000000E-03 0. -1.
         11   -1    0    0    0    0 -0.00000000000E+00 -0.00000000000E+00 -0.45593999997E+02  0.45594000000E+02  0.51100000000E-03 0.  1.
         23    2    1    2    0    0  0.44408920985E-15  0.35527136788E-14  0.35527136788E-14  0.91188000000E+02  0.91188000000E+02 0.  0.
    9900012    2    3    3    0    0 -0.30225914651E+01  0.29510270720E+02  0.21812551397E+02  0.54367088339E+02  0.40000009486E+02 0.  0.
         12    1    3    3    0    0  0.30225914651E+01 -0.29510270720E+02 -0.21812551397E+02  0.36820911661E+02  0.00000000000E+00 0. -1.
         11    1    4    4    0    0 -0.43809728772E+01  0.23225958326E+02  0.12859929488E+02  0.26907542627E+02  0.51100000000E-03 0. -1.
        -11    1    4    4    0    0 -0.10131708333E+02  0.81080861363E+01  0.90577330860E+01  0.15825141499E+02  0.51100000000E-03 0.  1.
         12    1    4    4    0    0  0.11490089746E+02 -0.18237737421E+01 -0.10511117735E+00  0.11634404213E+02  0.00000000000E+00 0. -1.
</event>
<event>
 8    1  0.2472977E-006  0.9118800E+02  0.7816164E-02  0.1184000E+00
        -11   -1    0    0    0    0  0.00000000000E+00  0.00000000000E+00  0.45593999997E+02  0.45594000000E+02  0.51100000000E-03 0.  1.
         11   -1    0    0    0    0 -0.00000000000E+00 -0.00000000000E+00 -0.45593999997E+02  0.45594000000E+02  0.51100000000E-03 0. -1.
         23    2    1    2    0    0  0.17763568394E-14 -0.13322676296E-14  0.00000000000E+00  0.91188000000E+02  0.91188000000E+02 0.  0.
    9900012    2    3    3    0    0  0.13354182971E+02 -0.34356586647E+01  0.34141547848E+02  0.54367037998E+02  0.39999894724E+02 0.  0.
         12    1    3    3    0    0 -0.13354182971E+02  0.34356586647E+01 -0.34141547848E+02  0.36820962002E+02  0.00000000000E+00 0. -1.
         11    1    4    4    0    0  0.11761034137E+02 -0.96053488851E+01  0.25185155799E+02  0.29408786511E+02  0.51100000000E-03 0.  1.
        -11    1    4    4    0    0  0.37230477768E+01 -0.58917750576E+01  0.10511205840E+02  0.12611881166E+02  0.51100000000E-03 0. -1.
         12    1    4    4    0    0 -0.21298989427E+01  0.12061465278E+02 -0.15548137914E+01  0.12346370320E+02  0.00000000000E+00 0. -1.
</event>
<event>
 8    1  0.2472977E-006  0.9118800E+02  0.7816164E-02  0.1184000E+00
        -11   -1    0    0    0    0  0.00000000000E+00  0.00000000000E+00  0.45593999997E+02  0.45594000000E+02  0.51100000000E-03 0.  1.
         11   -1    0    0    0    0 -0.00000000000E+00 -0.00000000000E+00 -0.45593999997E+02  0.45594000000E+02  0.51100000000E-03 0. -1.
         23    2    1    2    0    0  0.00000000000E+00  0.00000000000E+00  0.00000000000E+00  0.91188000000E+02  0.91188000000E+02 0.  0.
    9900012    2    3    3    0    0  0.21192247565E+02 -0.11553253687E+02  0.27806294662E+02  0.54367094926E+02  0.40000024502E+02 0.  0.
         12    1    3    3    0    0 -0.21192247565E+02  0.11553253687E+02 -0.27806294662E+02  0.36820905074E+02  0.00000000000E+00 0. -1.
         11    1    4    4    0    0  0.13572880695E+02  0.88339358452E+01  0.85780578064E+01  0.18326063104E+02  0.51100000000E-03 0. -1.
        -11    1    4    4    0    0  0.57136130260E+01 -0.17541753450E+02  0.20932727899E+01  0.18567182854E+02  0.51100000000E-03 0.  1.
        -12    1    4    4    0    0  0.19057538440E+01 -0.28454360826E+01  0.17134964066E+02  0.17473848968E+02  0.00000000000E+00 0.  1.
</event>
<event>
 8    1  0.2472977E-006  0.9118800E+02  0.7816164E-02  0.1184000E+00
        -11   -1    0    0    0    0  0.00000000000E+00  0.00000000000E+00  0.45593999997E+02  0.45594000000E+02  0.51100000000E-03 0. -1.
         11   -1    0    0    0    0 -0.00000000000E+00 -0.00000000000E+00 -0.45593999997E+02  0.45594000000E+02  0.51100000000E-03 0.  1.
         23    2    1    2    0    0  0.00000000000E+00  0.00000000000E+00  0.00000000000E+00  0.91188000000E+02  0.91188000000E+02 0.  0.
    9900012    2    3    3    0    0 -0.29410855853E+01 -0.35165628812E+02 -0.10512288866E+02  0.54367086766E+02  0.40000005901E+02 0.  0.
        -12    1    3    3    0    0  0.29410855853E+01  0.35165628812E+02  0.10512288866E+02  0.36820913234E+02  0.00000000000E+00 0.  1.
         11    1    4    4    0    0 -0.35341723818E+01  0.50670263695E+01  0.48457140961E+00  0.61967685423E+01  0.51100000000E-03 0. -1.
        -11    1    4    4    0    0 -0.11595686883E+01  0.29931377950E+01  0.84169995483E+00  0.33184231915E+01  0.51100000000E-03 0.  1.
        -12    1    4    4    0    0  0.17526554848E+01 -0.43225792976E+02 -0.11838560231E+02  0.44851895033E+02  0.00000000000E+00 0.  1.
</event>
<event>
 8    1  0.2472977E-006  0.9118800E+02  0.7816164E-02  0.1184000E+00
        -11   -1    0    0    0    0  0.00000000000E+00  0.00000000000E+00  0.45593999997E+02  0.45594000000E+02  0.51100000000E-03 0. -1.
         11   -1    0    0    0    0 -0.00000000000E+00 -0.00000000000E+00 -0.45593999997E+02  0.45594000000E+02  0.51100000000E-03 0.  1.
         23    2    1    2    0    0  0.00000000000E+00  0.00000000000E+00  0.35527136788E-14  0.91188000000E+02  0.91188000000E+02 0.  0.
    9900012    2    3    3    0    0 -0.25681940838E+02 -0.84306916214E+01 -0.25002779612E+02  0.54367114150E+02  0.40000068329E+02 0.  0.
         12    1    3    3    0    0  0.25681940838E+02  0.84306916214E+01  0.25002779612E+02  0.36820885850E+02  0.00000000000E+00 0. -1.
         11    1    4    4    0    0 -0.87031328966E+00  0.12049501746E+02 -0.63609459074E+01  0.13653189028E+02  0.51100000000E-03 0. -1.
        -11    1    4    4    0    0 -0.13060938415E+02 -0.12760864828E+02 -0.19390090462E+02  0.26634627684E+02  0.51100000000E-03 0.  1.
         12    1    4    4    0    0 -0.11750689133E+02 -0.77193285391E+01  0.74825675781E+00  0.14079297439E+02  0.00000000000E+00 0. -1.
</event>
<event>
 8    1  0.2472977E-006  0.9118800E+02  0.7816164E-02  0.1184000E+00
        -11   -1    0    0    0    0  0.00000000000E+00  0.00000000000E+00  0.45593999997E+02  0.45594000000E+02  0.51100000000E-03 0.  1.
         11   -1    0    0    0    0 -0.00000000000E+00 -0.00000000000E+00 -0.45593999997E+02  0.45594000000E+02  0.51100000000E-03 0. -1.
         23    2    1    2    0    0  0.00000000000E+00  0.35527136788E-14 -0.13322676296E-14  0.91188000000E+02  0.91188000000E+02 0.  0.
    9900012    2    3    3    0    0 -0.22321760111E+02 -0.29128471652E+02  0.30093639144E+01  0.54367012691E+02  0.39999837032E+02 0.  0.
        -12    1    3    3    0    0  0.22321760111E+02  0.29128471652E+02 -0.30093639144E+01  0.36820987309E+02  0.00000000000E+00 0.  1.
         11    1    4    4    0    0 -0.57358817533E+01 -0.23613825694E+02 -0.50155565719E+01  0.24812676425E+02  0.51100000000E-03 0. -1.
        -11    1    4    4    0    0 -0.13646034265E+02 -0.13528063299E+02  0.84873885395E+01  0.21006154152E+02  0.51100000000E-03 0.  1.
         12    1    4    4    0    0 -0.29398440931E+01  0.80134173405E+01 -0.46246805309E+00  0.85481821146E+01  0.00000000000E+00 0. -1.
</event>
<event>
 8    1  0.2472977E-006  0.9118800E+02  0.7816164E-02  0.1184000E+00
        -11   -1    0    0    0    0  0.00000000000E+00  0.00000000000E+00  0.45593999997E+02  0.45594000000E+02  0.51100000000E-03 0. -1.
         11   -1    0    0    0    0 -0.00000000000E+00 -0.00000000000E+00 -0.45593999997E+02  0.45594000000E+02  0.51100000000E-03 0.  1.
         23    2    1    2    0    0  0.00000000000E+00  0.00000000000E+00 -0.35527136788E-14  0.91188000000E+02  0.91188000000E+02 0.  0.
    9900012    2    3    3    0    0  0.18007628638E+02  0.98740236946E+01 -0.30561552635E+02  0.54367088380E+02  0.40000009580E+02 0.  0.
         12    1    3    3    0    0 -0.18007628638E+02 -0.98740236946E+01  0.30561552635E+02  0.36820911620E+02  0.00000000000E+00 0. -1.
         11    1    4    4    0    0  0.10307357139E+02 -0.86878462547E+01 -0.51869092560E-01  0.13480466401E+02  0.51100000000E-03 0. -1.
        -11    1    4    4    0    0  0.69516091077E+01  0.16404708679E+02 -0.33003346441E+02  0.37505469102E+02  0.51100000000E-03 0.  1.
        -12    1    4    4    0    0  0.74866239173E+00  0.21571612706E+01  0.24936628988E+01  0.33811528769E+01  0.00000000000E+00 0.  1.
</event>
<event>
 8    1  0.2472977E-006  0.9118800E+02  0.7816164E-02  0.1184000E+00
        -11   -1    0    0    0    0  0.00000000000E+00  0.00000000000E+00  0.45593999997E+02  0.45594000000E+02  0.51100000000E-03 0.  1.
         11   -1    0    0    0    0 -0.00000000000E+00 -0.00000000000E+00 -0.45593999997E+02  0.45594000000E+02  0.51100000000E-03 0. -1.
         23    2    1    2    0    0  0.00000000000E+00  0.88817841970E-15  0.00000000000E+00  0.91188000000E+02  0.91188000000E+02 0.  0.
    9900012    2    3    3    0    0 -0.16770314217E+02  0.28438479832E+01  0.32656546355E+02  0.54367069402E+02  0.39999966316E+02 0.  0.
         12    1    3    3    0    0  0.16770314217E+02 -0.28438479832E+01 -0.32656546355E+02  0.36820930598E+02  0.00000000000E+00 0. -1.
         11    1    4    4    0    0  0.10982394489E+02 -0.27038955819E+01  0.12670340886E+02  0.16984156690E+02  0.51100000000E-03 0. -1.
        -11    1    4    4    0    0 -0.73825625221E+01 -0.47372908707E+01  0.56433873979E+01  0.10430339197E+02  0.51100000000E-03 0.  1.
        -12    1    4    4    0    0 -0.20370146184E+02  0.10285034436E+02  0.14342818070E+02  0.26952573515E+02  0.00000000000E+00 0.  1.
</event>
<event>
 8    1  0.2472977E-006  0.9118800E+02  0.7816164E-02  0.1184000E+00
        -11   -1    0    0    0    0  0.00000000000E+00  0.00000000000E+00  0.45593999997E+02  0.45594000000E+02  0.51100000000E-03 0.  1.
         11   -1    0    0    0    0 -0.00000000000E+00 -0.00000000000E+00 -0.45593999997E+02  0.45594000000E+02  0.51100000000E-03 0. -1.
         23    2    1    2    0    0  0.00000000000E+00 -0.35527136788E-14 -0.44408920985E-15  0.91188000000E+02  0.91188000000E+02 0.  0.
    9900012    2    3    3    0    0 -0.20183633365E+02  0.30557589485E+02 -0.38254860728E+01  0.54367086450E+02  0.40000005180E+02 0.  0.
        -12    1    3    3    0    0  0.20183633365E+02 -0.30557589485E+02  0.38254860728E+01  0.36820913550E+02  0.00000000000E+00 0.  1.
         11    1    4    4    0    0 -0.21826250558E+02  0.16999482055E+02 -0.15669597411E+02  0.31794714763E+02  0.51100000000E-03 0. -1.
        -11    1    4    4    0    0 -0.28881116839E+01  0.37284947883E+01  0.10694142711E+02  0.11687923300E+02  0.51100000000E-03 0.  1.
         12    1    4    4    0    0  0.45307288770E+01  0.98296126416E+01  0.11499686278E+01  0.10884448387E+02  0.00000000000E+00 0. -1.
</event>
<event>
 8    1  0.2472977E-006  0.9118800E+02  0.7816164E-02  0.1184000E+00
        -11   -1    0    0    0    0  0.00000000000E+00  0.00000000000E+00  0.45593999997E+02  0.45594000000E+02  0.51100000000E-03 0. -1.
         11   -1    0    0    0    0 -0.00000000000E+00 -0.00000000000E+00 -0.45593999997E+02  0.45594000000E+02  0.51100000000E-03 0.  1.
         23    2    1    2    0    0  0.13322676296E-14  0.00000000000E+00  0.00000000000E+00  0.91188000000E+02  0.91188000000E+02 0.  0.
    9900012    2    3    3    0    0 -0.21514104777E+01 -0.17466810880E+02  0.32342867521E+02  0.54367093862E+02  0.40000022077E+02 0.  0.
        -12    1    3    3    0    0  0.21514104777E+01  0.17466810880E+02 -0.32342867521E+02  0.36820906138E+02  0.00000000000E+00 0.  1.
         11    1    4    4    0    0 -0.47107679938E+00 -0.60124020674E+00 -0.17421192689E+01  0.19022047590E+01  0.51100000000E-03 0. -1.
        -11    1    4    4    0    0  0.12640081661E+02 -0.12663846247E+02  0.32184639687E+01  0.18179746334E+02  0.51100000000E-03 0.  1.
         12    1    4    4    0    0 -0.14320415340E+02 -0.42017244259E+01  0.30866522821E+02  0.34285142769E+02  0.00000000000E+00 0. -1.
</event>
<event>
 8    1  0.2472977E-006  0.9118800E+02  0.7816164E-02  0.1184000E+00
        -11   -1    0    0    0    0  0.00000000000E+00  0.00000000000E+00  0.45593999997E+02  0.45594000000E+02  0.51100000000E-03 0. -1.
         11   -1    0    0    0    0 -0.00000000000E+00 -0.00000000000E+00 -0.45593999997E+02  0.45594000000E+02  0.51100000000E-03 0.  1.
         23    2    1    2    0    0 -0.17763568394E-14  0.71054273576E-14  0.00000000000E+00  0.91188000000E+02  0.91188000000E+02 0.  0.
    9900012    2    3    3    0    0  0.15563444798E+02 -0.23268198457E+02 -0.23919682562E+02  0.54367067267E+02  0.39999961449E+02 0.  0.
         12    1    3    3    0    0 -0.15563444798E+02  0.23268198457E+02  0.23919682562E+02  0.36820932733E+02  0.00000000000E+00 0. -1.
         11    1    4    4    0    0 -0.41703682372E+01  0.97835016106E+00 -0.10636628017E+02  0.11466777930E+02  0.51100000000E-03 0. -1.
        -11    1    4    4    0    0 -0.41561105068E+01  0.11385992864E+01  0.21052776717E+01  0.47960251476E+01  0.51100000000E-03 0.  1.
        -12    1    4    4    0    0  0.23889923542E+02 -0.25385147905E+02 -0.15388332217E+02  0.38104264189E+02  0.00000000000E+00 0.  1.
</event>
<event>
 8    1  0.2472977E-006  0.9118800E+02  0.7816164E-02  0.1184000E+00
        -11   -1    0    0    0    0  0.00000000000E+00  0.00000000000E+00  0.45593999997E+02  0.45594000000E+02  0.51100000000E-03 0.  1.
         11   -1    0    0    0    0 -0.00000000000E+00 -0.00000000000E+00 -0.45593999997E+02  0.45594000000E+02  0.51100000000E-03 0. -1.
         23    2    1    2    0    0  0.00000000000E+00 -0.88817841970E-15  0.00000000000E+00  0.91188000000E+02  0.91188000000E+02 0.  0.
    9900012    2    3    3    0    0 -0.69441351755E+01  0.56843103074E+01  0.35710573853E+02  0.54367116226E+02  0.40000073060E+02 0.  0.
         12    1    3    3    0    0  0.69441351755E+01 -0.56843103074E+01 -0.35710573853E+02  0.36820883774E+02  0.00000000000E+00 0. -1.
         11    1    4    4    0    0 -0.11672798966E+01  0.22035668232E+02  0.21159736269E+02  0.30572334815E+02  0.51100000000E-03 0. -1.
        -11    1    4    4    0    0 -0.44738224610E+01 -0.77714140122E+01  0.32318179622E+01  0.95317685014E+01  0.51100000000E-03 0.  1.
         12    1    4    4    0    0 -0.13030328179E+01 -0.85799439123E+01  0.11319019622E+02  0.14263012910E+02  0.00000000000E+00 0. -1.
</event>
<event>
 8    1  0.2472977E-006  0.9118800E+02  0.7816164E-02  0.1184000E+00
        -11   -1    0    0    0    0  0.00000000000E+00  0.00000000000E+00  0.45593999997E+02  0.45594000000E+02  0.51100000000E-03 0. -1.
         11   -1    0    0    0    0 -0.00000000000E+00 -0.00000000000E+00 -0.45593999997E+02  0.45594000000E+02  0.51100000000E-03 0.  1.
         23    2    1    2    0    0 -0.35527136788E-14  0.00000000000E+00 -0.71054273576E-14  0.91188000000E+02  0.91188000000E+02 0.  0.
    9900012    2    3    3    0    0  0.26470944174E+02  0.58853584461E+01  0.24908461148E+02  0.54367085206E+02  0.40000002344E+02 0.  0.
        -12    1    3    3    0    0 -0.26470944174E+02 -0.58853584461E+01 -0.24908461148E+02  0.36820914794E+02  0.00000000000E+00 0.  1.
         11    1    4    4    0    0  0.13424693860E+02  0.11587290311E+02  0.64469434249E+01  0.18869307930E+02  0.51100000000E-03 0. -1.
        -11    1    4    4    0    0  0.24373291764E+01 -0.82001762743E+01 -0.48000885969E+01  0.98093993315E+01  0.51100000000E-03 0.  1.
         12    1    4    4    0    0  0.10608921138E+02  0.24982444094E+01  0.23261606320E+02  0.25688377944E+02  0.00000000000E+00 0. -1.
</event>
<event>
 8    1  0.2472977E-006  0.9118800E+02  0.7816164E-02  0.1184000E+00
        -11   -1    0    0    0    0  0.00000000000E+00  0.00000000000E+00  0.45593999997E+02  0.45594000000E+02  0.51100000000E-03 0.  1.
         11   -1    0    0    0    0 -0.00000000000E+00 -0.00000000000E+00 -0.45593999997E+02  0.45594000000E+02  0.51100000000E-03 0. -1.
         23    2    1    2    0    0  0.00000000000E+00  0.00000000000E+00  0.35527136788E-14  0.91188000000E+02  0.91188000000E+02 0.  0.
    9900012    2    3    3    0    0  0.56480056039E+00  0.34181147777E+02 -0.13678805155E+02  0.54367087823E+02  0.40000008311E+02 0.  0.
        -12    1    3    3    0    0 -0.56480056039E+00 -0.34181147777E+02  0.13678805155E+02  0.36820912177E+02  0.00000000000E+00 0.  1.
         11    1    4    4    0    0 -0.89279954449E+01  0.21836660171E+02 -0.82367691212E+01  0.24987860971E+02  0.51100000000E-03 0. -1.
        -11    1    4    4    0    0  0.56840112374E+01 -0.26726876324E+01 -0.11208334250E+02  0.12848268360E+02  0.51100000000E-03 0.  1.
        -12    1    4    4    0    0  0.38087847679E+01  0.15017175238E+02  0.57662982160E+01  0.16530958492E+02  0.00000000000E+00 0.  1.
</event>
<event>
 8    1  0.2472977E-006  0.9118800E+02  0.7816164E-02  0.1184000E+00
        -11   -1    0    0    0    0  0.00000000000E+00  0.00000000000E+00  0.45593999997E+02  0.45594000000E+02  0.51100000000E-03 0. -1.
         11   -1    0    0    0    0 -0.00000000000E+00 -0.00000000000E+00 -0.45593999997E+02  0.45594000000E+02  0.51100000000E-03 0.  1.
         23    2    1    2    0    0  0.35527136788E-14 -0.22204460493E-15  0.00000000000E+00  0.91188000000E+02  0.91188000000E+02 0.  0.
    9900012    2    3    3    0    0 -0.30009446783E+02 -0.29128103959E+00 -0.21333808083E+02  0.54367039825E+02  0.39999898888E+02 0.  0.
         12    1    3    3    0    0  0.30009446783E+02  0.29128103959E+00  0.21333808083E+02  0.36820960175E+02  0.00000000000E+00 0. -1.
         11    1    4    4    0    0  0.60707071995E+01 -0.10349903725E+01 -0.10973890642E+02  0.12583758066E+02  0.51100000000E-03 0. -1.
        -11    1    4    4    0    0 -0.27705454241E+02 -0.16224864926E+01 -0.15387089174E+02  0.31733061160E+02  0.51100000000E-03 0.  1.
         12    1    4    4    0    0 -0.83746997422E+01  0.23661958256E+01  0.50271717323E+01  0.10050220599E+02  0.00000000000E+00 0. -1.
</event>
<event>
 8    1  0.2472977E-006  0.9118800E+02  0.7816164E-02  0.1184000E+00
        -11   -1    0    0    0    0  0.00000000000E+00  0.00000000000E+00  0.45593999997E+02  0.45594000000E+02  0.51100000000E-03 0.  1.
         11   -1    0    0    0    0 -0.00000000000E+00 -0.00000000000E+00 -0.45593999997E+02  0.45594000000E+02  0.51100000000E-03 0. -1.
         23    2    1    2    0    0  0.00000000000E+00  0.00000000000E+00 -0.35527136788E-14  0.91188000000E+02  0.91188000000E+02 0.  0.
    9900012    2    3    3    0    0  0.13720933405E+02 -0.30841573166E+02  0.14707585355E+02  0.54367085891E+02  0.40000003906E+02 0.  0.
         12    1    3    3    0    0 -0.13720933405E+02  0.30841573166E+02 -0.14707585355E+02  0.36820914109E+02  0.00000000000E+00 0. -1.
         11    1    4    4    0    0  0.87048457540E+00 -0.90142187269E+01 -0.44056996344E+01  0.10070951901E+02  0.51100000000E-03 0. -1.
        -11    1    4    4    0    0  0.22836778017E+02 -0.11548164186E+02  0.13177842265E+02  0.28784267462E+02  0.51100000000E-03 0.  1.
         12    1    4    4    0    0 -0.99863291873E+01 -0.10279190252E+02  0.59354427242E+01  0.15511866529E+02  0.00000000000E+00 0. -1.
</event>
<event>
 8    1  0.2472977E-006  0.9118800E+02  0.7816164E-02  0.1184000E+00
        -11   -1    0    0    0    0  0.00000000000E+00  0.00000000000E+00  0.45593999997E+02  0.45594000000E+02  0.51100000000E-03 0. -1.
         11   -1    0    0    0    0 -0.00000000000E+00 -0.00000000000E+00 -0.45593999997E+02  0.45594000000E+02  0.51100000000E-03 0.  1.
         23    2    1    2    0    0  0.35527136788E-14  0.00000000000E+00  0.35527136788E-14  0.91188000000E+02  0.91188000000E+02 0.  0.
    9900012    2    3    3    0    0  0.96306089428E+01  0.19653263297E+02 -0.29610476124E+02  0.54367086335E+02  0.40000004917E+02 0.  0.
         12    1    3    3    0    0 -0.96306089428E+01 -0.19653263297E+02  0.29610476124E+02  0.36820913665E+02  0.00000000000E+00 0. -1.
         11    1    4    4    0    0 -0.23106388808E+01  0.15795618219E+02 -0.10647852779E+02  0.19188991011E+02  0.51100000000E-03 0. -1.
        -11    1    4    4    0    0  0.95716269351E+01  0.12860628000E+02 -0.20197832246E+02  0.25786900210E+02  0.51100000000E-03 0.  1.
         12    1    4    4    0    0  0.23696208885E+01 -0.90029829216E+01  0.12352089004E+01  0.93911951140E+01  0.00000000000E+00 0. -1.
</event>
<event>
 8    1  0.2472977E-006  0.9118800E+02  0.7816164E-02  0.1184000E+00
        -11   -1    0    0    0    0  0.00000000000E+00  0.00000000000E+00  0.45593999997E+02  0.45594000000E+02  0.51100000000E-03 0.  1.
         11   -1    0    0    0    0 -0.00000000000E+00 -0.00000000000E+00 -0.45593999997E+02  0.45594000000E+02  0.51100000000E-03 0. -1.
         23    2    1    2    0    0 -0.35527136788E-14  0.00000000000E+00  0.00000000000E+00  0.91188000000E+02  0.91188000000E+02 0.  0.
    9900012    2    3    3    0    0  0.26544264115E+02 -0.16335494816E+02 -0.19604396642E+02  0.54367099468E+02  0.40000034857E+02 0.  0.
        -12    1    3    3    0    0 -0.26544264115E+02  0.16335494816E+02  0.19604396642E+02  0.36820900532E+02  0.00000000000E+00 0.  1.
         11    1    4    4    0    0  0.15415857528E+02  0.42964693936E+01 -0.17035945649E+02  0.23373740757E+02  0.51100000000E-03 0. -1.
        -11    1    4    4    0    0  0.11935506747E+02 -0.64737999439E+01  0.55318704889E+01  0.14661787012E+02  0.51100000000E-03 0.  1.
         12    1    4    4    0    0 -0.80710015985E+00 -0.14158164266E+02 -0.81003214819E+01  0.16331571699E+02  0.00000000000E+00 0. -1.
</event>
<event>
 8    1  0.2472977E-006  0.9118800E+02  0.7816164E-02  0.1184000E+00
        -11   -1    0    0    0    0  0.00000000000E+00  0.00000000000E+00  0.45593999997E+02  0.45594000000E+02  0.51100000000E-03 0.  1.
         11   -1    0    0    0    0 -0.00000000000E+00 -0.00000000000E+00 -0.45593999997E+02  0.45594000000E+02  0.51100000000E-03 0. -1.
         23    2    1    2    0    0  0.35527136788E-14  0.00000000000E+00  0.00000000000E+00  0.91188000000E+02  0.91188000000E+02 0.  0.
    9900012    2    3    3    0    0  0.24179159386E+02 -0.27645940652E+02  0.26176242733E+01  0.54367058404E+02  0.39999941244E+02 0.  0.
         12    1    3    3    0    0 -0.24179159386E+02  0.27645940652E+02 -0.26176242733E+01  0.36820941596E+02  0.00000000000E+00 0. -1.
         11    1    4    4    0    0  0.13318570466E+02 -0.12179341320E+02 -0.96974512242E+01  0.20488075428E+02  0.51100000000E-03 0. -1.
        -11    1    4    4    0    0  0.10345509702E+01 -0.18561253646E+02  0.14216705146E+02  0.23403101036E+02  0.51100000000E-03 0.  1.
         12    1    4    4    0    0  0.98260379496E+01  0.30946543130E+01 -0.19016296485E+01  0.10475881940E+02  0.00000000000E+00 0. -1.
</event>
<event>
 8    1  0.2472977E-006  0.9118800E+02  0.7816164E-02  0.1184000E+00
        -11   -1    0    0    0    0  0.00000000000E+00  0.00000000000E+00  0.45593999997E+02  0.45594000000E+02  0.51100000000E-03 0.  1.
         11   -1    0    0    0    0 -0.00000000000E+00 -0.00000000000E+00 -0.45593999997E+02  0.45594000000E+02  0.51100000000E-03 0. -1.
         23    2    1    2    0    0  0.35527136788E-14 -0.17763568394E-14  0.00000000000E+00  0.91188000000E+02  0.91188000000E+02 0.  0.
    9900012    2    3    3    0    0 -0.28098340575E+02  0.14857157207E+02  0.18588378824E+02  0.54367086233E+02  0.40000004684E+02 0.  0.
         12    1    3    3    0    0  0.28098340575E+02 -0.14857157207E+02 -0.18588378824E+02  0.36820913767E+02  0.00000000000E+00 0. -1.
         11    1    4    4    0    0 -0.90193552684E+01  0.18728451916E+02  0.79814519560E+00  0.20802420932E+02  0.51100000000E-03 0. -1.
        -11    1    4    4    0    0  0.40258365120E+01  0.72644483407E-01 -0.17868782589E+00  0.40304548679E+01  0.51100000000E-03 0.  1.
        -12    1    4    4    0    0 -0.23104821819E+02 -0.39439391925E+01  0.17968921455E+02  0.29534210433E+02  0.00000000000E+00 0.  1.
</event>
<event>
 8    1  0.2472977E-006  0.9118800E+02  0.7816164E-02  0.1184000E+00
        -11   -1    0    0    0    0  0.00000000000E+00  0.00000000000E+00  0.45593999997E+02  0.45594000000E+02  0.51100000000E-03 0.  1.
         11   -1    0    0    0    0 -0.00000000000E+00 -0.00000000000E+00 -0.45593999997E+02  0.45594000000E+02  0.51100000000E-03 0. -1.
         23    2    1    2    0    0  0.00000000000E+00  0.00000000000E+00  0.35527136788E-14  0.91188000000E+02  0.91188000000E+02 0.  0.
    9900012    2    3    3    0    0  0.28780708148E+02  0.13982034522E+02  0.18219596186E+02  0.54367080185E+02  0.39999990897E+02 0.  0.
         12    1    3    3    0    0 -0.28780708148E+02 -0.13982034522E+02 -0.18219596186E+02  0.36820919815E+02  0.00000000000E+00 0. -1.
         11    1    4    4    0    0  0.27418362582E+02 -0.53879274684E+00 -0.23313593409E+01  0.27522575115E+02  0.51100000000E-03 0. -1.
        -11    1    4    4    0    0 -0.35707820557E+01  0.89400102838E+01  0.95583236583E+01  0.13565980237E+02  0.51100000000E-03 0.  1.
         12    1    4    4    0    0  0.49331276208E+01  0.55808169846E+01  0.10992631869E+02  0.13278524833E+02  0.00000000000E+00 0. -1.
</event>
<event>
 8    1  0.2472977E-006  0.9118800E+02  0.7816164E-02  0.1184000E+00
        -11   -1    0    0    0    0  0.00000000000E+00  0.00000000000E+00  0.45593999997E+02  0.45594000000E+02  0.51100000000E-03 0. -1.
         11   -1    0    0    0    0 -0.00000000000E+00 -0.00000000000E+00 -0.45593999997E+02  0.45594000000E+02  0.51100000000E-03 0.  1.
         23    2    1    2    0    0  0.00000000000E+00  0.22204460493E-15 -0.35527136788E-14  0.91188000000E+02  0.91188000000E+02 0.  0.
    9900012    2    3    3    0    0  0.20604093834E+02  0.13811268331E+01 -0.30485141798E+02  0.54367081157E+02  0.39999993113E+02 0.  0.
         12    1    3    3    0    0 -0.20604093834E+02 -0.13811268331E+01  0.30485141798E+02  0.36820918843E+02  0.00000000000E+00 0. -1.
         11    1    4    4    0    0 -0.23830415171E+01 -0.95941849335E+01 -0.16292065805E+02  0.19056722695E+02  0.51100000000E-03 0. -1.
        -11    1    4    4    0    0  0.13257569551E+02 -0.41815664138E+01 -0.33929978698E+01  0.14309475283E+02  0.51100000000E-03 0.  1.
        -12    1    4    4    0    0  0.97295658000E+01  0.15156878180E+02 -0.10800078123E+02  0.21000883179E+02  0.00000000000E+00 0.  1.
</event>
<event>
 8    1  0.2472977E-006  0.9118800E+02  0.7816164E-02  0.1184000E+00
        -11   -1    0    0    0    0  0.00000000000E+00  0.00000000000E+00  0.45593999997E+02  0.45594000000E+02  0.51100000000E-03 0. -1.
         11   -1    0    0    0    0 -0.00000000000E+00 -0.00000000000E+00 -0.45593999997E+02  0.45594000000E+02  0.51100000000E-03 0.  1.
         23    2    1    2    0    0  0.00000000000E+00  0.35527136788E-14  0.17763568394E-14  0.91188000000E+02  0.91188000000E+02 0.  0.
    9900012    2    3    3    0    0 -0.26284489883E+02  0.25051342973E+02 -0.61102407054E+01  0.54367092426E+02  0.40000018803E+02 0.  0.
         12    1    3    3    0    0  0.26284489883E+02 -0.25051342973E+02  0.61102407054E+01  0.36820907574E+02  0.00000000000E+00 0. -1.
         11    1    4    4    0    0  0.14323132448E+01  0.12693467252E+02  0.11708525610E+02  0.17328162174E+02  0.51100000000E-03 0. -1.
        -11    1    4    4    0    0  0.88099524856E+00 -0.54743712587E+00 -0.99850201397E+00  0.14397383678E+01  0.51100000000E-03 0.  1.
        -12    1    4    4    0    0 -0.28597798376E+02  0.12905312846E+02 -0.16820264301E+02  0.35599191884E+02  0.00000000000E+00 0.  1.
</event>
<event>
 8    1  0.2472977E-006  0.9118800E+02  0.7816164E-02  0.1184000E+00
        -11   -1    0    0    0    0  0.00000000000E+00  0.00000000000E+00  0.45593999997E+02  0.45594000000E+02  0.51100000000E-03 0.  1.
         11   -1    0    0    0    0 -0.00000000000E+00 -0.00000000000E+00 -0.45593999997E+02  0.45594000000E+02  0.51100000000E-03 0. -1.
         23    2    1    2    0    0 -0.35527136788E-14  0.00000000000E+00  0.00000000000E+00  0.91188000000E+02  0.91188000000E+02 0.  0.
    9900012    2    3    3    0    0  0.26283404276E+02 -0.50841681640E+01 -0.25280686203E+02  0.54367092880E+02  0.40000019838E+02 0.  0.
        -12    1    3    3    0    0 -0.26283404276E+02  0.50841681640E+01  0.25280686203E+02  0.36820907120E+02  0.00000000000E+00 0.  1.
         11    1    4    4    0    0  0.20633382904E+02  0.74738787833E+01 -0.11107786230E+02  0.24596306010E+02  0.51100000000E-03 0. -1.
        -11    1    4    4    0    0  0.10432981363E+02 -0.41089250804E+01  0.15218094113E+01  0.11315753160E+02  0.51100000000E-03 0.  1.
        -12    1    4    4    0    0 -0.47829599908E+01 -0.84491218669E+01 -0.15694709384E+02  0.18455033710E+02  0.00000000000E+00 0.  1.
</event>
<event>
 8    1  0.2472977E-006  0.9118800E+02  0.7816164E-02  0.1184000E+00
        -11   -1    0    0    0    0  0.00000000000E+00  0.00000000000E+00  0.45593999997E+02  0.45594000000E+02  0.51100000000E-03 0.  1.
         11   -1    0    0    0    0 -0.00000000000E+00 -0.00000000000E+00 -0.45593999997E+02  0.45594000000E+02  0.51100000000E-03 0. -1.
         23    2    1    2    0    0  0.00000000000E+00  0.00000000000E+00  0.00000000000E+00  0.91188000000E+02  0.91188000000E+02 0.  0.
    9900012    2    3    3    0    0 -0.20039905471E+02  0.29519623681E+02  0.90979963968E+01  0.54367088387E+02  0.40000009595E+02 0.  0.
         12    1    3    3    0    0  0.20039905471E+02 -0.29519623681E+02 -0.90979963968E+01  0.36820911613E+02  0.00000000000E+00 0. -1.
         11    1    4    4    0    0 -0.42083888108E+01  0.13461848527E+02  0.34581712345E+01  0.14522081487E+02  0.51100000000E-03 0. -1.
        -11    1    4    4    0    0  0.36598860501E+01  0.13901513836E+02 -0.75249181088E+01  0.16225635446E+02  0.51100000000E-03 0.  1.
        -12    1    4    4    0    0 -0.19491402711E+02  0.21562613186E+01  0.13164743271E+02  0.23619371454E+02  0.00000000000E+00 0.  1.
</event>
<event>
 8    1  0.2472977E-006  0.9118800E+02  0.7816164E-02  0.1184000E+00
        -11   -1    0    0    0    0  0.00000000000E+00  0.00000000000E+00  0.45593999997E+02  0.45594000000E+02  0.51100000000E-03 0. -1.
         11   -1    0    0    0    0 -0.00000000000E+00 -0.00000000000E+00 -0.45593999997E+02  0.45594000000E+02  0.51100000000E-03 0.  1.
         23    2    1    2    0    0  0.00000000000E+00 -0.22204460493E-15  0.00000000000E+00  0.91188000000E+02  0.91188000000E+02 0.  0.
    9900012    2    3    3    0    0 -0.35829616510E+02  0.73835524833E+00 -0.84540575187E+01  0.54367113586E+02  0.40000067043E+02 0.  0.
        -12    1    3    3    0    0  0.35829616510E+02 -0.73835524833E+00  0.84540575187E+01  0.36820886414E+02  0.00000000000E+00 0.  1.
         11    1    4    4    0    0 -0.17984565884E+02 -0.49347433738E+00  0.14139482603E+02  0.22882593723E+02  0.51100000000E-03 0. -1.
        -11    1    4    4    0    0 -0.32007826247E+01  0.52651527667E+01 -0.10034618343E+02  0.11775415433E+02  0.51100000000E-03 0.  1.
         12    1    4    4    0    0 -0.14644268002E+02 -0.40333231810E+01 -0.12558921779E+02  0.19709104431E+02  0.00000000000E+00 0. -1.
</event>
<event>
 8    1  0.2472977E-006  0.9118800E+02  0.7816164E-02  0.1184000E+00
        -11   -1    0    0    0    0  0.00000000000E+00  0.00000000000E+00  0.45593999997E+02  0.45594000000E+02  0.51100000000E-03 0.  1.
         11   -1    0    0    0    0 -0.00000000000E+00 -0.00000000000E+00 -0.45593999997E+02  0.45594000000E+02  0.51100000000E-03 0. -1.
         23    2    1    2    0    0  0.88817841970E-15 -0.88817841970E-15  0.00000000000E+00  0.91188000000E+02  0.91188000000E+02 0.  0.
    9900012    2    3    3    0    0 -0.26756724664E+01 -0.70696717783E+01  0.36036683331E+02  0.54367054497E+02  0.39999932338E+02 0.  0.
         12    1    3    3    0    0  0.26756724664E+01  0.70696717783E+01 -0.36036683331E+02  0.36820945503E+02  0.00000000000E+00 0. -1.
         11    1    4    4    0    0  0.11200961065E+02 -0.43626657321E+01  0.11891528744E+02  0.16908661603E+02  0.51100000000E-03 0. -1.
        -11    1    4    4    0    0  0.25486620025E+01  0.40639251953E+01  0.18048785829E+02  0.18675380482E+02  0.51100000000E-03 0.  1.
        -12    1    4    4    0    0 -0.16425295534E+02 -0.67709312415E+01  0.60963687588E+01  0.18783012413E+02  0.00000000000E+00 0.  1.
</event>
<event>
 8    1  0.2472977E-006  0.9118800E+02  0.7816164E-02  0.1184000E+00
        -11   -1    0    0    0    0  0.00000000000E+00  0.00000000000E+00  0.45593999997E+02  0.45594000000E+02  0.51100000000E-03 0.  1.
         11   -1    0    0    0    0 -0.00000000000E+00 -0.00000000000E+00 -0.45593999997E+02  0.45594000000E+02  0.51100000000E-03 0. -1.
         23    2    1    2    0    0  0.00000000000E+00  0.35527136788E-14 -0.35527136788E-14  0.91188000000E+02  0.91188000000E+02 0.  0.
    9900012    2    3    3    0    0 -0.15199045084E+02 -0.28153422865E+02 -0.18225323296E+02  0.54366965254E+02  0.39999728889E+02 0.  0.
        -12    1    3    3    0    0  0.15199045084E+02  0.28153422865E+02  0.18225323296E+02  0.36821034746E+02  0.00000000000E+00 0.  1.
         11    1    4    4    0    0 -0.15485250799E+01 -0.91303236251E+01  0.54957694099E+01  0.10768668492E+02  0.51100000000E-03 0. -1.
        -11    1    4    4    0    0 -0.92319417061E+01  0.11109246237E+01 -0.20793983238E+02  0.22778337085E+02  0.51100000000E-03 0.  1.
         12    1    4    4    0    0 -0.44185782984E+01 -0.20134023864E+02 -0.29271094682E+01  0.20819959677E+02  0.00000000000E+00 0. -1.
</event>
<event>
 8    1  0.2472977E-006  0.9118800E+02  0.7816164E-02  0.1184000E+00
        -11   -1    0    0    0    0  0.00000000000E+00  0.00000000000E+00  0.45593999997E+02  0.45594000000E+02  0.51100000000E-03 0.  1.
         11   -1    0    0    0    0 -0.00000000000E+00 -0.00000000000E+00 -0.45593999997E+02  0.45594000000E+02  0.51100000000E-03 0. -1.
         23    2    1    2    0    0  0.00000000000E+00  0.00000000000E+00  0.00000000000E+00  0.91188000000E+02  0.91188000000E+02 0.  0.
    9900012    2    3    3    0    0  0.13663731463E+02  0.20628329958E+02 -0.27268371179E+02  0.54366951385E+02  0.39999697271E+02 0.  0.
         12    1    3    3    0    0 -0.13663731463E+02 -0.20628329958E+02  0.27268371179E+02  0.36821048615E+02  0.00000000000E+00 0. -1.
         11    1    4    4    0    0 -0.21656503451E+01  0.11579533524E+02 -0.12002878927E+02  0.16817988609E+02  0.51100000000E-03 0. -1.
        -11    1    4    4    0    0  0.11312093211E+02 -0.71733080079E+01 -0.15784137185E+02  0.20701661468E+02  0.51100000000E-03 0.  1.
         12    1    4    4    0    0  0.45172885975E+01  0.16222104442E+02  0.51864493353E+00  0.16847301308E+02  0.00000000000E+00 0. -1.
</event>
<event>
 8    1  0.2472977E-006  0.9118800E+02  0.7816164E-02  0.1184000E+00
        -11   -1    0    0    0    0  0.00000000000E+00  0.00000000000E+00  0.45593999997E+02  0.45594000000E+02  0.51100000000E-03 0. -1.
         11   -1    0    0    0    0 -0.00000000000E+00 -0.00000000000E+00 -0.45593999997E+02  0.45594000000E+02  0.51100000000E-03 0.  1.
         23    2    1    2    0    0  0.00000000000E+00  0.00000000000E+00  0.00000000000E+00  0.91188000000E+02  0.91188000000E+02 0.  0.
    9900012    2    3    3    0    0  0.26160950105E+02 -0.24367070663E+02 -0.88108071538E+01  0.54367085213E+02  0.40000002360E+02 0.  0.
        -12    1    3    3    0    0 -0.26160950105E+02  0.24367070663E+02  0.88108071538E+01  0.36820914787E+02  0.00000000000E+00 0.  1.
         11    1    4    4    0    0 -0.66441993843E+00  0.34849720669E+01 -0.46057181338E+01  0.58137013985E+01  0.51100000000E-03 0. -1.
        -11    1    4    4    0    0  0.23363647006E+02 -0.30787119528E+02  0.43263154834E+01  0.38889892468E+02  0.51100000000E-03 0.  1.
        -12    1    4    4    0    0  0.34617230369E+01  0.29350767985E+01 -0.85314045034E+01  0.96634913462E+01  0.00000000000E+00 0.  1.
</event>
<event>
 8    1  0.2472977E-006  0.9118800E+02  0.7816164E-02  0.1184000E+00
        -11   -1    0    0    0    0  0.00000000000E+00  0.00000000000E+00  0.45593999997E+02  0.45594000000E+02  0.51100000000E-03 0. -1.
         11   -1    0    0    0    0 -0.00000000000E+00 -0.00000000000E+00 -0.45593999997E+02  0.45594000000E+02  0.51100000000E-03 0.  1.
         23    2    1    2    0    0  0.00000000000E+00  0.44408920985E-15  0.00000000000E+00  0.91188000000E+02  0.91188000000E+02 0.  0.
    9900012    2    3    3    0    0 -0.28071102818E+02 -0.18923138482E+01  0.23753140366E+02  0.54367090962E+02  0.40000015467E+02 0.  0.
        -12    1    3    3    0    0  0.28071102818E+02  0.18923138482E+01 -0.23753140366E+02  0.36820909038E+02  0.00000000000E+00 0.  1.
         11    1    4    4    0    0 -0.23470864978E+02  0.13865737827E+02  0.17064788194E+02  0.32161268393E+02  0.51100000000E-03 0. -1.
        -11    1    4    4    0    0  0.10023743712E+01 -0.12114230512E+02 -0.78379079247E+00  0.12180872857E+02  0.51100000000E-03 0.  1.
         12    1    4    4    0    0 -0.56026122115E+01 -0.36438211635E+01  0.74721429641E+01  0.10024949713E+02  0.00000000000E+00 0. -1.
</event>
<event>
 8    1  0.2472977E-006  0.9118800E+02  0.7816164E-02  0.1184000E+00
        -11   -1    0    0    0    0  0.00000000000E+00  0.00000000000E+00  0.45593999997E+02  0.45594000000E+02  0.51100000000E-03 0. -1.
         11   -1    0    0    0    0 -0.00000000000E+00 -0.00000000000E+00 -0.45593999997E+02  0.45594000000E+02  0.51100000000E-03 0.  1.
         23    2    1    2    0    0  0.35527136788E-14 -0.17763568394E-14  0.00000000000E+00  0.91188000000E+02  0.91188000000E+02 0.  0.
    9900012    2    3    3    0    0 -0.29031532050E+02 -0.13177014084E+02  0.18420601102E+02  0.54367053539E+02  0.39999930153E+02 0.  0.
        -12    1    3    3    0    0  0.29031532050E+02  0.13177014084E+02 -0.18420601102E+02  0.36820946461E+02  0.00000000000E+00 0.  1.
         11    1    4    4    0    0 -0.14241111577E+02 -0.88283497303E+01  0.85824034108E+01  0.18825691660E+02  0.51100000000E-03 0. -1.
        -11    1    4    4    0    0  0.37249269803E+01  0.95023675469E+01  0.66938355536E+01  0.12205634137E+02  0.51100000000E-03 0.  1.
        -12    1    4    4    0    0 -0.18515347453E+02 -0.13851031900E+02  0.31443621375E+01  0.23335727742E+02  0.00000000000E+00 0.  1.
</event>
<event>
 8    1  0.2472977E-006  0.9118800E+02  0.7816164E-02  0.1184000E+00
        -11   -1    0    0    0    0  0.00000000000E+00  0.00000000000E+00  0.45593999997E+02  0.45594000000E+02  0.51100000000E-03 0.  1.
         11   -1    0    0    0    0 -0.00000000000E+00 -0.00000000000E+00 -0.45593999997E+02  0.45594000000E+02  0.51100000000E-03 0. -1.
         23    2    1    2    0    0  0.00000000000E+00  0.00000000000E+00  0.71054273576E-14  0.91188000000E+02  0.91188000000E+02 0.  0.
    9900012    2    3    3    0    0 -0.20600161385E+02 -0.70377236227E+01 -0.29696524643E+02  0.54367085036E+02  0.40000001957E+02 0.  0.
        -12    1    3    3    0    0  0.20600161385E+02  0.70377236227E+01  0.29696524643E+02  0.36820914964E+02  0.00000000000E+00 0.  1.
         11    1    4    4    0    0 -0.15252167399E+02  0.20797063056E+01 -0.20602634027E+02  0.25718132082E+02  0.51100000000E-03 0. -1.
        -11    1    4    4    0    0 -0.12397355513E+02  0.22370364690E+01 -0.86413566993E+01  0.15276511439E+02  0.51100000000E-03 0.  1.
        -12    1    4    4    0    0  0.70493615273E+01 -0.11354466397E+02 -0.45253391685E+00  0.13372441514E+02  0.00000000000E+00 0.  1.
</event>
<event>
 8    1  0.2472977E-006  0.9118800E+02  0.7816164E-02  0.1184000E+00
        -11   -1    0    0    0    0  0.00000000000E+00  0.00000000000E+00  0.45593999997E+02  0.45594000000E+02  0.51100000000E-03 0.  1.
         11   -1    0    0    0    0 -0.00000000000E+00 -0.00000000000E+00 -0.45593999997E+02  0.45594000000E+02  0.51100000000E-03 0. -1.
         23    2    1    2    0    0  0.13322676296E-14  0.22204460493E-15  0.00000000000E+00  0.91188000000E+02  0.91188000000E+02 0.  0.
    9900012    2    3    3    0    0 -0.25286481485E+01 -0.18510917653E+01 -0.36687317841E+02  0.54367083491E+02  0.39999998435E+02 0.  0.
        -12    1    3    3    0    0  0.25286481485E+01  0.18510917653E+01  0.36687317841E+02  0.36820916509E+02  0.00000000000E+00 0.  1.
         11    1    4    4    0    0 -0.12834395285E+02 -0.11079711788E+02 -0.12224725006E+02  0.20902765783E+02  0.51100000000E-03 0. -1.
        -11    1    4    4    0    0  0.66583889989E+01 -0.29814606717E+01 -0.17462199825E+02  0.18924895635E+02  0.51100000000E-03 0.  1.
        -12    1    4    4    0    0  0.36473581374E+01  0.12210080694E+02 -0.70003930092E+01  0.14539422073E+02  0.00000000000E+00 0.  1.
</event>
<event>
 8    1  0.2472977E-006  0.9118800E+02  0.7816164E-02  0.1184000E+00
        -11   -1    0    0    0    0  0.00000000000E+00  0.00000000000E+00  0.45593999997E+02  0.45594000000E+02  0.51100000000E-03 0.  1.
         11   -1    0    0    0    0 -0.00000000000E+00 -0.00000000000E+00 -0.45593999997E+02  0.45594000000E+02  0.51100000000E-03 0. -1.
         23    2    1    2    0    0  0.44408920985E-15  0.00000000000E+00  0.71054273576E-14  0.91188000000E+02  0.91188000000E+02 0.  0.
    9900012    2    3    3    0    0 -0.31699008551E+01  0.25467615802E+02 -0.26403552873E+02  0.54366873858E+02  0.39999520531E+02 0.  0.
        -12    1    3    3    0    0  0.31699008551E+01 -0.25467615802E+02  0.26403552873E+02  0.36821126142E+02  0.00000000000E+00 0.  1.
         11    1    4    4    0    0 -0.15887653516E+01  0.26859250071E+02 -0.53747786336E+01  0.27437779344E+02  0.51100000000E-03 0. -1.
        -11    1    4    4    0    0 -0.52429585456E+01 -0.77404513402E+01 -0.10023834976E+02  0.13706949666E+02  0.51100000000E-03 0.  1.
        -12    1    4    4    0    0  0.36618230422E+01  0.63488170708E+01 -0.11004939263E+02  0.13222144848E+02  0.00000000000E+00 0.  1.
</event>
<event>
 8    1  0.2472977E-006  0.9118800E+02  0.7816164E-02  0.1184000E+00
        -11   -1    0    0    0    0  0.00000000000E+00  0.00000000000E+00  0.45593999997E+02  0.45594000000E+02  0.51100000000E-03 0. -1.
         11   -1    0    0    0    0 -0.00000000000E+00 -0.00000000000E+00 -0.45593999997E+02  0.45594000000E+02  0.51100000000E-03 0.  1.
         23    2    1    2    0    0 -0.35527136788E-14  0.00000000000E+00  0.00000000000E+00  0.91188000000E+02  0.91188000000E+02 0.  0.
    9900012    2    3    3    0    0  0.24404930858E+02  0.15557536967E+02 -0.22762753689E+02  0.54367074399E+02  0.39999977707E+02 0.  0.
         12    1    3    3    0    0 -0.24404930858E+02 -0.15557536967E+02  0.22762753689E+02  0.36820925601E+02  0.00000000000E+00 0. -1.
         11    1    4    4    0    0  0.44558093108E+01  0.17699087054E+02 -0.26205101082E+02  0.31934608846E+02  0.51100000000E-03 0. -1.
        -11    1    4    4    0    0  0.48913441379E+01  0.39953477214E+00 -0.31157196473E+01  0.58131389706E+01  0.51100000000E-03 0.  1.
         12    1    4    4    0    0  0.15057777409E+02 -0.25410848591E+01  0.65580670402E+01  0.16619326583E+02  0.00000000000E+00 0. -1.
</event>
<event>
 8    1  0.2472977E-006  0.9118800E+02  0.7816164E-02  0.1184000E+00
        -11   -1    0    0    0    0  0.00000000000E+00  0.00000000000E+00  0.45593999997E+02  0.45594000000E+02  0.51100000000E-03 0.  1.
         11   -1    0    0    0    0 -0.00000000000E+00 -0.00000000000E+00 -0.45593999997E+02  0.45594000000E+02  0.51100000000E-03 0. -1.
         23    2    1    2    0    0  0.00000000000E+00 -0.22204460493E-14  0.00000000000E+00  0.91188000000E+02  0.91188000000E+02 0.  0.
    9900012    2    3    3    0    0 -0.28081186662E+02  0.35565403580E+01 -0.23549474799E+02  0.54367084925E+02  0.40000001703E+02 0.  0.
        -12    1    3    3    0    0  0.28081186662E+02 -0.35565403580E+01  0.23549474799E+02  0.36820915075E+02  0.00000000000E+00 0.  1.
         11    1    4    4    0    0 -0.37211492577E+01 -0.10496814130E+02 -0.12046847294E+02  0.16405992462E+02  0.51100000000E-03 0. -1.
        -11    1    4    4    0    0 -0.12563530460E+02 -0.51995466933E+01 -0.43129417970E+01  0.14264608324E+02  0.51100000000E-03 0.  1.
         12    1    4    4    0    0 -0.11796506944E+02  0.19252901181E+02 -0.71896857086E+01  0.23696484139E+02  0.00000000000E+00 0. -1.
</event>
<event>
 8    1  0.2472977E-006  0.9118800E+02  0.7816164E-02  0.1184000E+00
        -11   -1    0    0    0    0  0.00000000000E+00  0.00000000000E+00  0.45593999997E+02  0.45594000000E+02  0.51100000000E-03 0. -1.
         11   -1    0    0    0    0 -0.00000000000E+00 -0.00000000000E+00 -0.45593999997E+02  0.45594000000E+02  0.51100000000E-03 0.  1.
         23    2    1    2    0    0 -0.53290705182E-14  0.88817841970E-15 -0.71054273576E-14  0.91188000000E+02  0.91188000000E+02 0.  0.
    9900012    2    3    3    0    0 -0.99657868326E+01  0.76474377084E+01 -0.34611713257E+02  0.54367205532E+02  0.40000276650E+02 0.  0.
         12    1    3    3    0    0  0.99657868326E+01 -0.76474377084E+01  0.34611713257E+02  0.36820794468E+02  0.00000000000E+00 0. -1.
         11    1    4    4    0    0  0.50627214159E+01  0.20871764076E+01 -0.62983610331E+01  0.83460652678E+01  0.51100000000E-03 0. -1.
        -11    1    4    4    0    0  0.80998570313E+01 -0.63252175389E+01 -0.81044609905E+01  0.13088099520E+02  0.51100000000E-03 0.  1.
        -12    1    4    4    0    0 -0.23128365280E+02  0.11885478840E+02 -0.20208891233E+02  0.32933040744E+02  0.00000000000E+00 0.  1.
</event>
<event>
 8    1  0.2472977E-006  0.9118800E+02  0.7816164E-02  0.1184000E+00
        -11   -1    0    0    0    0  0.00000000000E+00  0.00000000000E+00  0.45593999997E+02  0.45594000000E+02  0.51100000000E-03 0.  1.
         11   -1    0    0    0    0 -0.00000000000E+00 -0.00000000000E+00 -0.45593999997E+02  0.45594000000E+02  0.51100000000E-03 0. -1.
         23    2    1    2    0    0  0.71054273576E-14 -0.17763568394E-14  0.35527136788E-14  0.91188000000E+02  0.91188000000E+02 0.  0.
    9900012    2    3    3    0    0 -0.26763147959E+02  0.82667722966E+01 -0.23899251715E+02  0.54367084131E+02  0.39999999895E+02 0.  0.
        -12    1    3    3    0    0  0.26763147959E+02 -0.82667722966E+01  0.23899251715E+02  0.36820915869E+02  0.00000000000E+00 0.  1.
         11    1    4    4    0    0 -0.13959306514E+02  0.28918003302E-02 -0.72761350338E+01  0.15741803836E+02  0.51100000000E-03 0. -1.
        -11    1    4    4    0    0  0.73156011148E+01 -0.53886178854E+01  0.14931564207E+00  0.90872172752E+01  0.51100000000E-03 0.  1.
        -12    1    4    4    0    0 -0.20119442560E+02  0.13652498382E+02 -0.16772432323E+02  0.29538063021E+02  0.00000000000E+00 0.  1.
</event>
<event>
 8    1  0.2472977E-006  0.9118800E+02  0.7816164E-02  0.1184000E+00
        -11   -1    0    0    0    0  0.00000000000E+00  0.00000000000E+00  0.45593999997E+02  0.45594000000E+02  0.51100000000E-03 0.  1.
         11   -1    0    0    0    0 -0.00000000000E+00 -0.00000000000E+00 -0.45593999997E+02  0.45594000000E+02  0.51100000000E-03 0. -1.
         23    2    1    2    0    0  0.00000000000E+00  0.00000000000E+00  0.22204460493E-15  0.91188000000E+02  0.91188000000E+02 0.  0.
    9900012    2    3    3    0    0 -0.22555731464E+02 -0.29076089597E+02 -0.12648451589E+01  0.54367084186E+02  0.40000000018E+02 0.  0.
         12    1    3    3    0    0  0.22555731464E+02  0.29076089597E+02  0.12648451589E+01  0.36820915814E+02  0.00000000000E+00 0. -1.
         11    1    4    4    0    0 -0.31804509507E+01  0.60918607583E+01 -0.95955474266E+01  0.11802566095E+02  0.51100000000E-03 0. -1.
        -11    1    4    4    0    0  0.49629694784E+00 -0.39146994238E+01  0.33870136183E+01  0.52002926601E+01  0.51100000000E-03 0.  1.
         12    1    4    4    0    0 -0.19871577461E+02 -0.31253250931E+02  0.49436886494E+01  0.37364225431E+02  0.00000000000E+00 0. -1.
</event>
<event>
 8    1  0.2472977E-006  0.9118800E+02  0.7816164E-02  0.1184000E+00
        -11   -1    0    0    0    0  0.00000000000E+00  0.00000000000E+00  0.45593999997E+02  0.45594000000E+02  0.51100000000E-03 0. -1.
         11   -1    0    0    0    0 -0.00000000000E+00 -0.00000000000E+00 -0.45593999997E+02  0.45594000000E+02  0.51100000000E-03 0.  1.
         23    2    1    2    0    0 -0.53290705182E-14  0.00000000000E+00  0.71054273576E-14  0.91188000000E+02  0.91188000000E+02 0.  0.
    9900012    2    3    3    0    0 -0.14040244659E+02 -0.44686703627E+01  0.33744356425E+02  0.54367094587E+02  0.40000023730E+02 0.  0.
        -12    1    3    3    0    0  0.14040244659E+02  0.44686703627E+01 -0.33744356425E+02  0.36820905413E+02  0.00000000000E+00 0.  1.
         11    1    4    4    0    0 -0.22266675070E+02 -0.36449862362E+01  0.35939409742E+02  0.42435031709E+02  0.51100000000E-03 0. -1.
        -11    1    4    4    0    0  0.73849393244E+01 -0.70491727013E+00 -0.50362472455E+01  0.89664945080E+01  0.51100000000E-03 0.  1.
        -12    1    4    4    0    0  0.84149108681E+00 -0.11876685632E+00  0.28411939286E+01  0.29655683697E+01  0.00000000000E+00 0.  1.
</event>
<event>
 8    1  0.2472977E-006  0.9118800E+02  0.7816164E-02  0.1184000E+00
        -11   -1    0    0    0    0  0.00000000000E+00  0.00000000000E+00  0.45593999997E+02  0.45594000000E+02  0.51100000000E-03 0.  1.
         11   -1    0    0    0    0 -0.00000000000E+00 -0.00000000000E+00 -0.45593999997E+02  0.45594000000E+02  0.51100000000E-03 0. -1.
         23    2    1    2    0    0  0.00000000000E+00  0.00000000000E+00  0.00000000000E+00  0.91188000000E+02  0.91188000000E+02 0.  0.
    9900012    2    3    3    0    0  0.14094970024E+02  0.26691720447E+02  0.21087050935E+02  0.54367084238E+02  0.40000000138E+02 0.  0.
         12    1    3    3    0    0 -0.14094970024E+02 -0.26691720447E+02 -0.21087050935E+02  0.36820915762E+02  0.00000000000E+00 0. -1.
         11    1    4    4    0    0 -0.42860582000E+00  0.24066144144E+02 -0.19974395370E+01  0.24152696783E+02  0.51100000000E-03 0. -1.
        -11    1    4    4    0    0  0.14834804923E+02  0.12074120405E+01  0.12232218036E+02  0.19265420818E+02  0.51100000000E-03 0.  1.
         12    1    4    4    0    0 -0.31122907980E+00  0.14181642625E+01  0.10852272435E+02  0.10948966637E+02  0.00000000000E+00 0. -1.
</event>
<event>
 8    1  0.2472977E-006  0.9118800E+02  0.7816164E-02  0.1184000E+00
        -11   -1    0    0    0    0  0.00000000000E+00  0.00000000000E+00  0.45593999997E+02  0.45594000000E+02  0.51100000000E-03 0.  1.
         11   -1    0    0    0    0 -0.00000000000E+00 -0.00000000000E+00 -0.45593999997E+02  0.45594000000E+02  0.51100000000E-03 0. -1.
         23    2    1    2    0    0  0.00000000000E+00  0.44408920985E-15 -0.35527136788E-14  0.91188000000E+02  0.91188000000E+02 0.  0.
    9900012    2    3    3    0    0 -0.30928987651E+02 -0.29783919540E+01 -0.19756080614E+02  0.54367138834E+02  0.40000124600E+02 0.  0.
        -12    1    3    3    0    0  0.30928987651E+02  0.29783919540E+01  0.19756080614E+02  0.36820861166E+02  0.00000000000E+00 0.  1.
         11    1    4    4    0    0 -0.16023537336E+02 -0.11562512094E+02 -0.25975351599E+02  0.32636855327E+02  0.51100000000E-03 0. -1.
        -11    1    4    4    0    0 -0.10737167692E+02  0.63685209883E+01  0.97461766064E+01  0.15837701485E+02  0.51100000000E-03 0.  1.
         12    1    4    4    0    0 -0.41682826226E+01  0.22155991517E+01 -0.35269056217E+01  0.58925820221E+01  0.00000000000E+00 0. -1.
</event>
<event>
 8    1  0.2472977E-006  0.9118800E+02  0.7816164E-02  0.1184000E+00
        -11   -1    0    0    0    0  0.00000000000E+00  0.00000000000E+00  0.45593999997E+02  0.45594000000E+02  0.51100000000E-03 0.  1.
         11   -1    0    0    0    0 -0.00000000000E+00 -0.00000000000E+00 -0.45593999997E+02  0.45594000000E+02  0.51100000000E-03 0. -1.
         23    2    1    2    0    0 -0.13322676296E-14  0.00000000000E+00  0.00000000000E+00  0.91188000000E+02  0.91188000000E+02 0.  0.
    9900012    2    3    3    0    0 -0.36393320170E+01  0.15471445211E+00  0.36640302900E+02  0.54367075640E+02  0.39999980536E+02 0.  0.
         12    1    3    3    0    0  0.36393320170E+01 -0.15471445211E+00 -0.36640302900E+02  0.36820924360E+02  0.00000000000E+00 0. -1.
         11    1    4    4    0    0  0.26161300516E+01  0.87742735154E+00 -0.33964926270E+01  0.43760915930E+01  0.51100000000E-03 0. -1.
        -11    1    4    4    0    0  0.39684442809E+01  0.12431632142E+02  0.14579866794E+02  0.19566975845E+02  0.51100000000E-03 0.  1.
        -12    1    4    4    0    0 -0.10223906349E+02 -0.13154345042E+02  0.25456928734E+02  0.30424008202E+02  0.00000000000E+00 0.  1.
</event>
<event>
 8    1  0.2472977E-006  0.9118800E+02  0.7816164E-02  0.1184000E+00
        -11   -1    0    0    0    0  0.00000000000E+00  0.00000000000E+00  0.45593999997E+02  0.45594000000E+02  0.51100000000E-03 0.  1.
         11   -1    0    0    0    0 -0.00000000000E+00 -0.00000000000E+00 -0.45593999997E+02  0.45594000000E+02  0.51100000000E-03 0. -1.
         23    2    1    2    0    0  0.26645352591E-14  0.35527136788E-14  0.35527136788E-14  0.91188000000E+02  0.91188000000E+02 0.  0.
    9900012    2    3    3    0    0 -0.12976729348E+01  0.29334621671E+02  0.22216574220E+02  0.54367079945E+02  0.39999990350E+02 0.  0.
         12    1    3    3    0    0  0.12976729348E+01 -0.29334621671E+02 -0.22216574220E+02  0.36820920055E+02  0.00000000000E+00 0. -1.
         11    1    4    4    0    0 -0.12957074333E+02  0.10151054925E+02  0.15737327717E+02  0.22772640938E+02  0.51100000000E-03 0. -1.
        -11    1    4    4    0    0  0.13796812036E+02  0.65965617721E+01  0.10096135166E+02  0.18324808188E+02  0.51100000000E-03 0.  1.
         12    1    4    4    0    0 -0.21374106372E+01  0.12587004974E+02 -0.36168886633E+01  0.13269630818E+02  0.00000000000E+00 0. -1.
</event>
<event>
 8    1  0.2472977E-006  0.9118800E+02  0.7816164E-02  0.1184000E+00
        -11   -1    0    0    0    0  0.00000000000E+00  0.00000000000E+00  0.45593999997E+02  0.45594000000E+02  0.51100000000E-03 0. -1.
         11   -1    0    0    0    0 -0.00000000000E+00 -0.00000000000E+00 -0.45593999997E+02  0.45594000000E+02  0.51100000000E-03 0.  1.
         23    2    1    2    0    0 -0.26645352591E-14  0.00000000000E+00  0.00000000000E+00  0.91188000000E+02  0.91188000000E+02 0.  0.
    9900012    2    3    3    0    0  0.76031380213E+01  0.22180048867E+02  0.28390462517E+02  0.54367073376E+02  0.39999975376E+02 0.  0.
        -12    1    3    3    0    0 -0.76031380213E+01 -0.22180048867E+02 -0.28390462517E+02  0.36820926624E+02  0.00000000000E+00 0.  1.
         11    1    4    4    0    0  0.13311775958E+02  0.20752192966E+01  0.11241114826E+02  0.17546298102E+02  0.51100000000E-03 0. -1.
        -11    1    4    4    0    0 -0.14352745770E+02  0.54447796577E+01  0.60361516916E+01  0.16494910250E+02  0.51100000000E-03 0.  1.
         12    1    4    4    0    0  0.86441078331E+01  0.14660049913E+02  0.11113195999E+02  0.20325865025E+02  0.00000000000E+00 0. -1.
</event>
<event>
 8    1  0.2472977E-006  0.9118800E+02  0.7816164E-02  0.1184000E+00
        -11   -1    0    0    0    0  0.00000000000E+00  0.00000000000E+00  0.45593999997E+02  0.45594000000E+02  0.51100000000E-03 0. -1.
         11   -1    0    0    0    0 -0.00000000000E+00 -0.00000000000E+00 -0.45593999997E+02  0.45594000000E+02  0.51100000000E-03 0.  1.
         23    2    1    2    0    0  0.00000000000E+00  0.17763568394E-14  0.00000000000E+00  0.91188000000E+02  0.91188000000E+02 0.  0.
    9900012    2    3    3    0    0 -0.31995759263E+02 -0.14505404640E+02  0.11029217834E+02  0.54367095331E+02  0.40000025426E+02 0.  0.
         12    1    3    3    0    0  0.31995759263E+02  0.14505404640E+02 -0.11029217834E+02  0.36820904669E+02  0.00000000000E+00 0. -1.
         11    1    4    4    0    0 -0.12542465902E+02  0.40283147480E+01  0.14751289891E+02  0.19777293150E+02  0.51100000000E-03 0. -1.
        -11    1    4    4    0    0 -0.12465471014E+02  0.16472545135E+01  0.13296034476E+01  0.12643941657E+02  0.51100000000E-03 0.  1.
         12    1    4    4    0    0 -0.69878223472E+01 -0.20180973902E+02 -0.50516755047E+01  0.21945860525E+02  0.00000000000E+00 0. -1.
</event>
<event>
 8    1  0.2472977E-006  0.9118800E+02  0.7816164E-02  0.1184000E+00
        -11   -1    0    0    0    0  0.00000000000E+00  0.00000000000E+00  0.45593999997E+02  0.45594000000E+02  0.51100000000E-03 0. -1.
         11   -1    0    0    0    0 -0.00000000000E+00 -0.00000000000E+00 -0.45593999997E+02  0.45594000000E+02  0.51100000000E-03 0.  1.
         23    2    1    2    0    0 -0.35527136788E-14  0.00000000000E+00  0.00000000000E+00  0.91188000000E+02  0.91188000000E+02 0.  0.
    9900012    2    3    3    0    0 -0.25283946832E+02 -0.16062340659E+02  0.21412698490E+02  0.54367076445E+02  0.39999982371E+02 0.  0.
        -12    1    3    3    0    0  0.25283946832E+02  0.16062340659E+02 -0.21412698490E+02  0.36820923555E+02  0.00000000000E+00 0.  1.
         11    1    4    4    0    0 -0.20455709978E+02  0.41805058749E+01 -0.16856394507E+01  0.20946457474E+02  0.51100000000E-03 0.  1.
        -11    1    4    4    0    0 -0.58932353341E+01 -0.20944227310E+02  0.18221502465E+02  0.28379817347E+02  0.51100000000E-03 0. -1.
         12    1    4    4    0    0  0.10649984800E+01  0.70138077593E+00  0.48768354752E+01  0.50408016235E+01  0.00000000000E+00 0. -1.
</event>
<event>
 8    1  0.2472977E-006  0.9118800E+02  0.7816164E-02  0.1184000E+00
        -11   -1    0    0    0    0  0.00000000000E+00  0.00000000000E+00  0.45593999997E+02  0.45594000000E+02  0.51100000000E-03 0.  1.
         11   -1    0    0    0    0 -0.00000000000E+00 -0.00000000000E+00 -0.45593999997E+02  0.45594000000E+02  0.51100000000E-03 0. -1.
         23    2    1    2    0    0 -0.17763568394E-14 -0.71054273576E-14  0.00000000000E+00  0.91188000000E+02  0.91188000000E+02 0.  0.
    9900012    2    3    3    0    0  0.14320140481E+02  0.33687764263E+02 -0.39810430614E+01  0.54367074043E+02  0.39999976896E+02 0.  0.
        -12    1    3    3    0    0 -0.14320140481E+02 -0.33687764263E+02  0.39810430614E+01  0.36820925957E+02  0.00000000000E+00 0.  1.
         11    1    4    4    0    0 -0.33398740684E+01  0.16470863009E+02  0.17315172272E+01  0.16895035934E+02  0.51100000000E-03 0.  1.
        -11    1    4    4    0    0 -0.33473699859E+00 -0.49724964560E+01 -0.73227905546E+01  0.88578231881E+01  0.51100000000E-03 0. -1.
         12    1    4    4    0    0  0.17994751548E+02  0.22189397711E+02  0.16102302661E+01  0.28614214921E+02  0.00000000000E+00 0. -1.
</event>
<event>
 8    1  0.2472977E-006  0.9118800E+02  0.7816164E-02  0.1184000E+00
        -11   -1    0    0    0    0  0.00000000000E+00  0.00000000000E+00  0.45593999997E+02  0.45594000000E+02  0.51100000000E-03 0.  1.
         11   -1    0    0    0    0 -0.00000000000E+00 -0.00000000000E+00 -0.45593999997E+02  0.45594000000E+02  0.51100000000E-03 0. -1.
         23    2    1    2    0    0  0.00000000000E+00  0.00000000000E+00  0.00000000000E+00  0.91188000000E+02  0.91188000000E+02 0.  0.
    9900012    2    3    3    0    0 -0.21575981836E+02  0.26321491416E+02 -0.14051159964E+02  0.54367095627E+02  0.40000026100E+02 0.  0.
        -12    1    3    3    0    0  0.21575981836E+02 -0.26321491416E+02  0.14051159964E+02  0.36820904373E+02  0.00000000000E+00 0.  1.
         11    1    4    4    0    0  0.67751627181E+01  0.30763981899E+01  0.48557528363E+00  0.74567311401E+01  0.51100000000E-03 0. -1.
        -11    1    4    4    0    0  0.21590772763E+01  0.11765466970E+02 -0.47982588246E+01  0.12888410131E+02  0.51100000000E-03 0.  1.
         12    1    4    4    0    0 -0.30510221830E+02  0.11479626257E+02 -0.97384764227E+01  0.34021954355E+02  0.00000000000E+00 0. -1.
</event>
<event>
 8    1  0.2472977E-006  0.9118800E+02  0.7816164E-02  0.1184000E+00
        -11   -1    0    0    0    0  0.00000000000E+00  0.00000000000E+00  0.45593999997E+02  0.45594000000E+02  0.51100000000E-03 0.  1.
         11   -1    0    0    0    0 -0.00000000000E+00 -0.00000000000E+00 -0.45593999997E+02  0.45594000000E+02  0.51100000000E-03 0. -1.
         23    2    1    2    0    0  0.00000000000E+00  0.00000000000E+00  0.00000000000E+00  0.91188000000E+02  0.91188000000E+02 0.  0.
    9900012    2    3    3    0    0 -0.46026086967E+01  0.31601368386E+02 -0.18328773216E+02  0.54367157828E+02  0.40000167900E+02 0.  0.
        -12    1    3    3    0    0  0.46026086967E+01 -0.31601368386E+02  0.18328773216E+02  0.36820842172E+02  0.00000000000E+00 0.  1.
         11    1    4    4    0    0 -0.72224294323E+01  0.15224065860E+00 -0.10308912204E+02  0.12588102924E+02  0.51100000000E-03 0. -1.
        -11    1    4    4    0    0  0.32643565470E+01  0.37545184045E+01 -0.12740640437E+02  0.13677585720E+02  0.51100000000E-03 0.  1.
         12    1    4    4    0    0 -0.64453581143E+00  0.27694609322E+02  0.47207794256E+01  0.28101469184E+02  0.00000000000E+00 0. -1.
</event>
<event>
 8    1  0.2472977E-006  0.9118800E+02  0.7816164E-02  0.1184000E+00
        -11   -1    0    0    0    0  0.00000000000E+00  0.00000000000E+00  0.45593999997E+02  0.45594000000E+02  0.51100000000E-03 0. -1.
         11   -1    0    0    0    0 -0.00000000000E+00 -0.00000000000E+00 -0.45593999997E+02  0.45594000000E+02  0.51100000000E-03 0.  1.
         23    2    1    2    0    0  0.00000000000E+00 -0.35527136788E-14  0.00000000000E+00  0.91188000000E+02  0.91188000000E+02 0.  0.
    9900012    2    3    3    0    0 -0.11216586669E+02 -0.13655268352E+02  0.32303294008E+02  0.54367068805E+02  0.39999964955E+02 0.  0.
        -12    1    3    3    0    0  0.11216586669E+02  0.13655268352E+02 -0.32303294008E+02  0.36820931195E+02  0.00000000000E+00 0.  1.
         11    1    4    4    0    0 -0.61763893561E+01 -0.19248995404E+02  0.97239940842E+01  0.22432736587E+02  0.51100000000E-03 0. -1.
        -11    1    4    4    0    0 -0.72102585946E+01  0.11069025318E+02  0.22443997560E+02  0.26043121495E+02  0.51100000000E-03 0.  1.
        -12    1    4    4    0    0  0.21700612813E+01 -0.54752982655E+01  0.13530236406E+00  0.58912107236E+01  0.00000000000E+00 0.  1.
</event>
<event>
 8    1  0.2472977E-006  0.9118800E+02  0.7816164E-02  0.1184000E+00
        -11   -1    0    0    0    0  0.00000000000E+00  0.00000000000E+00  0.45593999997E+02  0.45594000000E+02  0.51100000000E-03 0.  1.
         11   -1    0    0    0    0 -0.00000000000E+00 -0.00000000000E+00 -0.45593999997E+02  0.45594000000E+02  0.51100000000E-03 0. -1.
         23    2    1    2    0    0  0.00000000000E+00  0.00000000000E+00 -0.44408920985E-15  0.91188000000E+02  0.91188000000E+02 0.  0.
    9900012    2    3    3    0    0  0.18904108307E+02 -0.31514641699E+02  0.22902306253E+01  0.54367039819E+02  0.39999898876E+02 0.  0.
         12    1    3    3    0    0 -0.18904108307E+02  0.31514641699E+02 -0.22902306253E+01  0.36820960181E+02  0.00000000000E+00 0. -1.
         11    1    4    4    0    0 -0.43425872195E+01 -0.64018581729E+01 -0.62995178674E+01  0.99762606947E+01  0.51100000000E-03 0. -1.
        -11    1    4    4    0    0  0.12223365847E+02 -0.33882409321E+01  0.14558416132E+02  0.19309021979E+02  0.51100000000E-03 0.  1.
        -12    1    4    4    0    0  0.11023329679E+02 -0.21724542594E+02 -0.59686676388E+01  0.25081757146E+02  0.00000000000E+00 0.  1.
</event>
<event>
 8    1  0.2472977E-006  0.9118800E+02  0.7816164E-02  0.1184000E+00
        -11   -1    0    0    0    0  0.00000000000E+00  0.00000000000E+00  0.45593999997E+02  0.45594000000E+02  0.51100000000E-03 0. -1.
         11   -1    0    0    0    0 -0.00000000000E+00 -0.00000000000E+00 -0.45593999997E+02  0.45594000000E+02  0.51100000000E-03 0.  1.
         23    2    1    2    0    0 -0.35527136788E-14  0.00000000000E+00  0.22204460493E-15  0.91188000000E+02  0.91188000000E+02 0.  0.
    9900012    2    3    3    0    0  0.31593967095E+02 -0.18863829293E+02  0.13241914081E+01  0.54367132339E+02  0.40000109794E+02 0.  0.
        -12    1    3    3    0    0 -0.31593967095E+02  0.18863829293E+02 -0.13241914081E+01  0.36820867661E+02  0.00000000000E+00 0.  1.
         11    1    4    4    0    0  0.70254644232E+01 -0.22388467742E+01 -0.40106173169E+01  0.83937260358E+01  0.51100000000E-03 0. -1.
        -11    1    4    4    0    0  0.22379432795E+02  0.57173207986E+01  0.10725941189E+01  0.23123088629E+02  0.51100000000E-03 0.  1.
        -12    1    4    4    0    0  0.21890698765E+01 -0.22342303318E+02  0.42622146061E+01  0.22850317674E+02  0.00000000000E+00 0.  1.
</event>
<event>
 8    1  0.2472977E-006  0.9118800E+02  0.7816164E-02  0.1184000E+00
        -11   -1    0    0    0    0  0.00000000000E+00  0.00000000000E+00  0.45593999997E+02  0.45594000000E+02  0.51100000000E-03 0. -1.
         11   -1    0    0    0    0 -0.00000000000E+00 -0.00000000000E+00 -0.45593999997E+02  0.45594000000E+02  0.51100000000E-03 0.  1.
         23    2    1    2    0    0 -0.35527136788E-14  0.35527136788E-14  0.00000000000E+00  0.91188000000E+02  0.91188000000E+02 0.  0.
    9900012    2    3    3    0    0  0.25932992704E+02 -0.24458795151E+02 -0.92209699351E+01  0.54367094832E+02  0.40000024289E+02 0.  0.
         12    1    3    3    0    0 -0.25932992704E+02  0.24458795151E+02  0.92209699351E+01  0.36820905168E+02  0.00000000000E+00 0. -1.
         11    1    4    4    0    0  0.17527490056E+02 -0.16501901430E+02  0.66252758623E+01  0.24968378782E+02  0.51100000000E-03 0. -1.
        -11    1    4    4    0    0  0.92779844030E+01 -0.10993394163E+02 -0.12219728992E+01  0.14437067841E+02  0.51100000000E-03 0.  1.
        -12    1    4    4    0    0 -0.87248175444E+00  0.30365004430E+01 -0.14624272898E+02  0.14961648210E+02  0.00000000000E+00 0.  1.
</event>
<event>
 8    1  0.2472977E-006  0.9118800E+02  0.7816164E-02  0.1184000E+00
        -11   -1    0    0    0    0  0.00000000000E+00  0.00000000000E+00  0.45593999997E+02  0.45594000000E+02  0.51100000000E-03 0.  1.
         11   -1    0    0    0    0 -0.00000000000E+00 -0.00000000000E+00 -0.45593999997E+02  0.45594000000E+02  0.51100000000E-03 0. -1.
         23    2    1    2    0    0  0.44408920985E-15  0.00000000000E+00  0.35527136788E-14  0.91188000000E+02  0.91188000000E+02 0.  0.
    9900012    2    3    3    0    0  0.12090259291E+01 -0.27409909287E+02 -0.24556468836E+02  0.54367013694E+02  0.39999839319E+02 0.  0.
        -12    1    3    3    0    0 -0.12090259291E+01  0.27409909287E+02  0.24556468836E+02  0.36820986306E+02  0.00000000000E+00 0.  1.
         11    1    4    4    0    0 -0.39664193334E+01  0.47474926850E+01 -0.15334154352E+01  0.63735808052E+01  0.51100000000E-03 0. -1.
        -11    1    4    4    0    0 -0.45248685053E+01 -0.97147990179E+01 -0.20855977494E+02  0.23448316622E+02  0.51100000000E-03 0.  1.
         12    1    4    4    0    0  0.97003137678E+01 -0.22442602954E+02 -0.21670759071E+01  0.24545116267E+02  0.00000000000E+00 0. -1.
</event>
<event>
 8    1  0.2472977E-006  0.9118800E+02  0.7816164E-02  0.1184000E+00
        -11   -1    0    0    0    0  0.00000000000E+00  0.00000000000E+00  0.45593999997E+02  0.45594000000E+02  0.51100000000E-03 0. -1.
         11   -1    0    0    0    0 -0.00000000000E+00 -0.00000000000E+00 -0.45593999997E+02  0.45594000000E+02  0.51100000000E-03 0.  1.
         23    2    1    2    0    0  0.00000000000E+00 -0.35527136788E-14  0.00000000000E+00  0.91188000000E+02  0.91188000000E+02 0.  0.
    9900012    2    3    3    0    0 -0.20663576614E+02 -0.24123771367E+02 -0.18623605933E+02  0.54367103196E+02  0.40000043357E+02 0.  0.
         12    1    3    3    0    0  0.20663576614E+02  0.24123771367E+02  0.18623605933E+02  0.36820896804E+02  0.00000000000E+00 0. -1.
         11    1    4    4    0    0 -0.81628947521E+01  0.90139614214E+01 -0.12013853693E+02  0.17094356731E+02  0.51100000000E-03 0. -1.
        -11    1    4    4    0    0 -0.10317613584E+02 -0.20682733727E+02 -0.82074264454E+01  0.24527341349E+02  0.51100000000E-03 0.  1.
         12    1    4    4    0    0 -0.21830682782E+01 -0.12454999061E+02  0.15976742055E+01  0.12745405117E+02  0.00000000000E+00 0. -1.
</event>
<event>
 8    1  0.2472977E-006  0.9118800E+02  0.7816164E-02  0.1184000E+00
        -11   -1    0    0    0    0  0.00000000000E+00  0.00000000000E+00  0.45593999997E+02  0.45594000000E+02  0.51100000000E-03 0.  1.
         11   -1    0    0    0    0 -0.00000000000E+00 -0.00000000000E+00 -0.45593999997E+02  0.45594000000E+02  0.51100000000E-03 0. -1.
         23    2    1    2    0    0  0.00000000000E+00  0.44408920985E-15  0.17763568394E-14  0.91188000000E+02  0.91188000000E+02 0.  0.
    9900012    2    3    3    0    0 -0.35568094290E+02 -0.33296007723E+01  0.89219754005E+01  0.54367119813E+02  0.40000081237E+02 0.  0.
        -12    1    3    3    0    0  0.35568094290E+02  0.33296007723E+01 -0.89219754005E+01  0.36820880187E+02  0.00000000000E+00 0.  1.
         11    1    4    4    0    0 -0.27200658193E+02  0.99998739629E+01 -0.31809428058E+00  0.28982313048E+02  0.51100000000E-03 0.  1.
        -11    1    4    4    0    0  0.20349001045E+01 -0.49927684251E+01  0.10692757247E+02  0.11975124750E+02  0.51100000000E-03 0. -1.
        -12    1    4    4    0    0 -0.10402336202E+02 -0.83367063102E+01 -0.14526875659E+01  0.13409682014E+02  0.00000000000E+00 0.  1.
</event>
<event>
 8    1  0.2472977E-006  0.9118800E+02  0.7816164E-02  0.1184000E+00
        -11   -1    0    0    0    0  0.00000000000E+00  0.00000000000E+00  0.45593999997E+02  0.45594000000E+02  0.51100000000E-03 0.  1.
         11   -1    0    0    0    0 -0.00000000000E+00 -0.00000000000E+00 -0.45593999997E+02  0.45594000000E+02  0.51100000000E-03 0. -1.
         23    2    1    2    0    0 -0.17763568394E-14  0.00000000000E+00 -0.15543122345E-14  0.91188000000E+02  0.91188000000E+02 0.  0.
    9900012    2    3    3    0    0 -0.11662762482E+02 -0.34890855810E+02 -0.15451911072E+01  0.54367089318E+02  0.40000011719E+02 0.  0.
         12    1    3    3    0    0  0.11662762482E+02  0.34890855810E+02  0.15451911072E+01  0.36820910682E+02  0.00000000000E+00 0. -1.
         11    1    4    4    0    0  0.24218620084E+01  0.27513765518E+01 -0.29285769843E+01  0.46917003242E+01  0.51100000000E-03 0. -1.
        -11    1    4    4    0    0 -0.10820830590E+02 -0.70394536652E+01 -0.10544712482E+02  0.16668390569E+02  0.51100000000E-03 0.  1.
        -12    1    4    4    0    0 -0.32637939000E+01 -0.30602778697E+02  0.11928098359E+02  0.33006998425E+02  0.00000000000E+00 0.  1.
</event>
<event>
 8    1  0.2472977E-006  0.9118800E+02  0.7816164E-02  0.1184000E+00
        -11   -1    0    0    0    0  0.00000000000E+00  0.00000000000E+00  0.45593999997E+02  0.45594000000E+02  0.51100000000E-03 0.  1.
         11   -1    0    0    0    0 -0.00000000000E+00 -0.00000000000E+00 -0.45593999997E+02  0.45594000000E+02  0.51100000000E-03 0. -1.
         23    2    1    2    0    0  0.00000000000E+00  0.00000000000E+00  0.00000000000E+00  0.91188000000E+02  0.91188000000E+02 0.  0.
    9900012    2    3    3    0    0  0.17279497351E+02 -0.24529714288E+02 -0.21342257604E+02  0.54367083779E+02  0.39999999090E+02 0.  0.
        -12    1    3    3    0    0 -0.17279497351E+02  0.24529714288E+02  0.21342257604E+02  0.36820916221E+02  0.00000000000E+00 0.  1.
         11    1    4    4    0    0  0.18829092025E+02 -0.24331683417E+02 -0.23705863613E+02  0.38839844159E+02  0.51100000000E-03 0. -1.
        -11    1    4    4    0    0 -0.48481162705E+01  0.43365833634E+01  0.59956192370E+01  0.88463346611E+01  0.51100000000E-03 0.  1.
        -12    1    4    4    0    0  0.32985215968E+01 -0.45346142350E+01 -0.36320132273E+01  0.66809049587E+01  0.00000000000E+00 0.  1.
</event>
<event>
 8    1  0.2472977E-006  0.9118800E+02  0.7816164E-02  0.1184000E+00
        -11   -1    0    0    0    0  0.00000000000E+00  0.00000000000E+00  0.45593999997E+02  0.45594000000E+02  0.51100000000E-03 0.  1.
         11   -1    0    0    0    0 -0.00000000000E+00 -0.00000000000E+00 -0.45593999997E+02  0.45594000000E+02  0.51100000000E-03 0. -1.
         23    2    1    2    0    0  0.00000000000E+00  0.00000000000E+00  0.00000000000E+00  0.91188000000E+02  0.91188000000E+02 0.  0.
    9900012    2    3    3    0    0 -0.17372812600E+02 -0.22216935351E+02 -0.23671829118E+02  0.54367322008E+02  0.40000542177E+02 0.  0.
        -12    1    3    3    0    0  0.17372812600E+02  0.22216935351E+02  0.23671829118E+02  0.36820677992E+02  0.00000000000E+00 0.  1.
         11    1    4    4    0    0 -0.16703843467E+02 -0.23776150989E+02 -0.32046875752E+02  0.43258825552E+02  0.51100000000E-03 0. -1.
        -11    1    4    4    0    0  0.68492581818E+00 -0.19121395516E+01  0.10034618920E+00  0.20335856658E+01  0.51100000000E-03 0.  1.
        -12    1    4    4    0    0 -0.13538949515E+01  0.34713551898E+01  0.82747004449E+01  0.90749107900E+01  0.00000000000E+00 0.  1.
</event>
<event>
 8    1  0.2472977E-006  0.9118800E+02  0.7816164E-02  0.1184000E+00
        -11   -1    0    0    0    0  0.00000000000E+00  0.00000000000E+00  0.45593999997E+02  0.45594000000E+02  0.51100000000E-03 0.  1.
         11   -1    0    0    0    0 -0.00000000000E+00 -0.00000000000E+00 -0.45593999997E+02  0.45594000000E+02  0.51100000000E-03 0. -1.
         23    2    1    2    0    0  0.00000000000E+00  0.35527136788E-14  0.00000000000E+00  0.91188000000E+02  0.91188000000E+02 0.  0.
    9900012    2    3    3    0    0 -0.12120342713E+02  0.26641741927E+02 -0.22340394959E+02  0.54367104203E+02  0.40000045651E+02 0.  0.
        -12    1    3    3    0    0  0.12120342713E+02 -0.26641741927E+02  0.22340394959E+02  0.36820895797E+02  0.00000000000E+00 0.  1.
         11    1    4    4    0    0  0.79367409559E+00  0.77898177933E+01 -0.88758783175E+01  0.11836063365E+02  0.51100000000E-03 0. -1.
        -11    1    4    4    0    0 -0.46813466673E+01 -0.32231300302E+01 -0.17702630259E+02  0.18592651563E+02  0.51100000000E-03 0.  1.
        -12    1    4    4    0    0 -0.82326701409E+01  0.22075054164E+02  0.42381136171E+01  0.23938389274E+02  0.00000000000E+00 0.  1.
</event>
<event>
 8    1  0.2472977E-006  0.9118800E+02  0.7816164E-02  0.1184000E+00
        -11   -1    0    0    0    0  0.00000000000E+00  0.00000000000E+00  0.45593999997E+02  0.45594000000E+02  0.51100000000E-03 0. -1.
         11   -1    0    0    0    0 -0.00000000000E+00 -0.00000000000E+00 -0.45593999997E+02  0.45594000000E+02  0.51100000000E-03 0.  1.
         23    2    1    2    0    0  0.00000000000E+00 -0.71054273576E-14  0.88817841970E-15  0.91188000000E+02  0.91188000000E+02 0.  0.
    9900012    2    3    3    0    0  0.15283328233E+02  0.32848708034E+02 -0.65697657616E+01  0.54367087959E+02  0.40000008619E+02 0.  0.
        -12    1    3    3    0    0 -0.15283328233E+02 -0.32848708034E+02  0.65697657616E+01  0.36820912041E+02  0.00000000000E+00 0.  1.
         11    1    4    4    0    0  0.99458932849E+01 -0.26463160328E+00  0.15774553834E+01  0.10073687948E+02  0.51100000000E-03 0.  1.
        -11    1    4    4    0    0  0.42088810564E+01  0.16664383325E+02 -0.18159623712E+02  0.25003765415E+02  0.51100000000E-03 0. -1.
         12    1    4    4    0    0  0.11285538914E+01  0.16448956313E+02  0.10012402567E+02  0.19289634595E+02  0.00000000000E+00 0. -1.
</event>
<event>
 8    1  0.2472977E-006  0.9118800E+02  0.7816164E-02  0.1184000E+00
        -11   -1    0    0    0    0  0.00000000000E+00  0.00000000000E+00  0.45593999997E+02  0.45594000000E+02  0.51100000000E-03 0.  1.
         11   -1    0    0    0    0 -0.00000000000E+00 -0.00000000000E+00 -0.45593999997E+02  0.45594000000E+02  0.51100000000E-03 0. -1.
         23    2    1    2    0    0  0.00000000000E+00  0.35527136788E-14  0.17763568394E-14  0.91188000000E+02  0.91188000000E+02 0.  0.
    9900012    2    3    3    0    0 -0.24274755593E+02  0.24707683728E+02 -0.12491857676E+02  0.54367083356E+02  0.39999998126E+02 0.  0.
        -12    1    3    3    0    0  0.24274755593E+02 -0.24707683728E+02  0.12491857676E+02  0.36820916644E+02  0.00000000000E+00 0.  1.
         11    1    4    4    0    0 -0.20908089605E+02  0.27066761075E+02 -0.20772560402E+02  0.40015709814E+02  0.51100000000E-03 0. -1.
        -11    1    4    4    0    0 -0.41640245959E+01  0.10889329609E+01  0.96424363479E+01  0.10559424928E+02  0.51100000000E-03 0.  1.
         12    1    4    4    0    0  0.79735860765E+00 -0.34480103077E+01 -0.13617336217E+01  0.37919486136E+01  0.00000000000E+00 0. -1.
</event>
<event>
 8    1  0.2472977E-006  0.9118800E+02  0.7816164E-02  0.1184000E+00
        -11   -1    0    0    0    0  0.00000000000E+00  0.00000000000E+00  0.45593999997E+02  0.45594000000E+02  0.51100000000E-03 0.  1.
         11   -1    0    0    0    0 -0.00000000000E+00 -0.00000000000E+00 -0.45593999997E+02  0.45594000000E+02  0.51100000000E-03 0. -1.
         23    2    1    2    0    0 -0.35527136788E-14  0.00000000000E+00 -0.35527136788E-14  0.91188000000E+02  0.91188000000E+02 0.  0.
    9900012    2    3    3    0    0  0.24588092983E+02 -0.18788889817E+02  0.19954531219E+02  0.54367081852E+02  0.39999994697E+02 0.  0.
         12    1    3    3    0    0 -0.24588092983E+02  0.18788889817E+02 -0.19954531219E+02  0.36820918148E+02  0.00000000000E+00 0. -1.
         11    1    4    4    0    0 -0.48666688178E+01 -0.81416245615E+01 -0.20346181775E+01  0.97010405252E+01  0.51100000000E-03 0. -1.
        -11    1    4    4    0    0 -0.15520199516E+01 -0.46991679938E+01 -0.16589160377E+01  0.52194777943E+01  0.51100000000E-03 0.  1.
        -12    1    4    4    0    0  0.31006781753E+02 -0.59480972620E+01  0.23648065434E+02  0.39446563532E+02  0.00000000000E+00 0.  1.
</event>
<event>
 8    1  0.2472977E-006  0.9118800E+02  0.7816164E-02  0.1184000E+00
        -11   -1    0    0    0    0  0.00000000000E+00  0.00000000000E+00  0.45593999997E+02  0.45594000000E+02  0.51100000000E-03 0.  1.
         11   -1    0    0    0    0 -0.00000000000E+00 -0.00000000000E+00 -0.45593999997E+02  0.45594000000E+02  0.51100000000E-03 0. -1.
         23    2    1    2    0    0 -0.17763568394E-14 -0.35527136788E-14 -0.35527136788E-14  0.91188000000E+02  0.91188000000E+02 0.  0.
    9900012    2    3    3    0    0 -0.82028884138E+01 -0.20916592409E+02 -0.29171716079E+02  0.54367078836E+02  0.39999987823E+02 0.  0.
        -12    1    3    3    0    0  0.82028884138E+01  0.20916592409E+02  0.29171716079E+02  0.36820921164E+02  0.00000000000E+00 0.  1.
         11    1    4    4    0    0 -0.45818041088E-01  0.41038379120E+01 -0.84422541004E+00  0.41900240697E+01  0.51100000000E-03 0. -1.
        -11    1    4    4    0    0 -0.19339073770E+02 -0.78567454020E+01 -0.12979752199E+02  0.24580524608E+02  0.51100000000E-03 0.  1.
         12    1    4    4    0    0  0.11182003398E+02 -0.17163684919E+02 -0.15347738471E+02  0.25596530158E+02  0.00000000000E+00 0. -1.
</event>
<event>
 8    1  0.2472977E-006  0.9118800E+02  0.7816164E-02  0.1184000E+00
        -11   -1    0    0    0    0  0.00000000000E+00  0.00000000000E+00  0.45593999997E+02  0.45594000000E+02  0.51100000000E-03 0.  1.
         11   -1    0    0    0    0 -0.00000000000E+00 -0.00000000000E+00 -0.45593999997E+02  0.45594000000E+02  0.51100000000E-03 0. -1.
         23    2    1    2    0    0  0.00000000000E+00  0.00000000000E+00  0.35527136788E-14  0.91188000000E+02  0.91188000000E+02 0.  0.
    9900012    2    3    3    0    0 -0.20360741238E+02  0.17705497564E+02  0.25054644179E+02  0.54367087156E+02  0.40000006789E+02 0.  0.
         12    1    3    3    0    0  0.20360741238E+02 -0.17705497564E+02 -0.25054644179E+02  0.36820912844E+02  0.00000000000E+00 0. -1.
         11    1    4    4    0    0  0.12079147214E+01 -0.51496391296E+01  0.67462855904E+01  0.85726431552E+01  0.51100000000E-03 0. -1.
        -11    1    4    4    0    0 -0.17992231747E+02  0.15166632964E+02 -0.21682512188E+01  0.23631514389E+02  0.51100000000E-03 0.  1.
        -12    1    4    4    0    0 -0.35764242121E+01  0.76885037303E+01  0.20476609807E+02  0.22162929611E+02  0.00000000000E+00 0.  1.
</event>
<event>
 8    1  0.2472977E-006  0.9118800E+02  0.7816164E-02  0.1184000E+00
        -11   -1    0    0    0    0  0.00000000000E+00  0.00000000000E+00  0.45593999997E+02  0.45594000000E+02  0.51100000000E-03 0.  1.
         11   -1    0    0    0    0 -0.00000000000E+00 -0.00000000000E+00 -0.45593999997E+02  0.45594000000E+02  0.51100000000E-03 0. -1.
         23    2    1    2    0    0  0.00000000000E+00  0.00000000000E+00  0.88817841970E-15  0.91188000000E+02  0.91188000000E+02 0.  0.
    9900012    2    3    3    0    0  0.32064051075E+02  0.17172697747E+02 -0.57249380778E+01  0.54367084270E+02  0.40000000209E+02 0.  0.
         12    1    3    3    0    0 -0.32064051075E+02 -0.17172697747E+02  0.57249380778E+01  0.36820915730E+02  0.00000000000E+00 0. -1.
         11    1    4    4    0    0  0.24929829152E+02  0.10339861866E+02 -0.12622478080E+02  0.29794900203E+02  0.51100000000E-03 0.  1.
        -11    1    4    4    0    0 -0.41675745860E+01 -0.36234366967E+01  0.73199562051E+01  0.91695000153E+01  0.51100000000E-03 0. -1.
         12    1    4    4    0    0  0.11301796509E+02  0.10456272577E+02 -0.42241620254E+00  0.15402684051E+02  0.00000000000E+00 0. -1.
</event>
<event>
 8    1  0.2472977E-006  0.9118800E+02  0.7816164E-02  0.1184000E+00
        -11   -1    0    0    0    0  0.00000000000E+00  0.00000000000E+00  0.45593999997E+02  0.45594000000E+02  0.51100000000E-03 0. -1.
         11   -1    0    0    0    0 -0.00000000000E+00 -0.00000000000E+00 -0.45593999997E+02  0.45594000000E+02  0.51100000000E-03 0.  1.
         23    2    1    2    0    0  0.00000000000E+00 -0.17763568394E-14  0.00000000000E+00  0.91188000000E+02  0.91188000000E+02 0.  0.
    9900012    2    3    3    0    0  0.19427484556E+02 -0.14996451007E+02 -0.27449192098E+02  0.54367097705E+02  0.40000030839E+02 0.  0.
         12    1    3    3    0    0 -0.19427484556E+02  0.14996451007E+02  0.27449192098E+02  0.36820902295E+02  0.00000000000E+00 0. -1.
         11    1    4    4    0    0  0.19499452514E+02 -0.17905185546E+02 -0.42919262844E+01  0.26818742500E+02  0.51100000000E-03 0. -1.
        -11    1    4    4    0    0  0.30461607158E+01  0.92336036308E+00 -0.23610532798E+02  0.23824125351E+02  0.51100000000E-03 0.  1.
        -12    1    4    4    0    0 -0.31181286743E+01  0.19853741765E+01  0.45326698389E+00  0.37242298544E+01  0.00000000000E+00 0.  1.
</event>
<event>
 8    1  0.2472977E-006  0.9118800E+02  0.7816164E-02  0.1184000E+00
        -11   -1    0    0    0    0  0.00000000000E+00  0.00000000000E+00  0.45593999997E+02  0.45594000000E+02  0.51100000000E-03 0. -1.
         11   -1    0    0    0    0 -0.00000000000E+00 -0.00000000000E+00 -0.45593999997E+02  0.45594000000E+02  0.51100000000E-03 0.  1.
         23    2    1    2    0    0  0.00000000000E+00  0.00000000000E+00  0.17763568394E-14  0.91188000000E+02  0.91188000000E+02 0.  0.
    9900012    2    3    3    0    0  0.22956595435E+02 -0.24489299527E+02 -0.15134353857E+02  0.54367085672E+02  0.40000003407E+02 0.  0.
        -12    1    3    3    0    0 -0.22956595435E+02  0.24489299527E+02  0.15134353857E+02  0.36820914328E+02  0.00000000000E+00 0.  1.
         11    1    4    4    0    0  0.13467733151E+02 -0.23788924374E+02 -0.12668921542E+02  0.30129625494E+02  0.51100000000E-03 0. -1.
        -11    1    4    4    0    0  0.16166260367E+02  0.20358858277E+01 -0.41773169427E+01  0.16820903140E+02  0.51100000000E-03 0.  1.
        -12    1    4    4    0    0 -0.66773980835E+01 -0.27362609804E+01  0.17118846280E+01  0.74165570379E+01  0.00000000000E+00 0.  1.
</event>
<event>
 8    1  0.2472977E-006  0.9118800E+02  0.7816164E-02  0.1184000E+00
        -11   -1    0    0    0    0  0.00000000000E+00  0.00000000000E+00  0.45593999997E+02  0.45594000000E+02  0.51100000000E-03 0.  1.
         11   -1    0    0    0    0 -0.00000000000E+00 -0.00000000000E+00 -0.45593999997E+02  0.45594000000E+02  0.51100000000E-03 0. -1.
         23    2    1    2    0    0  0.00000000000E+00  0.00000000000E+00  0.22204460493E-15  0.91188000000E+02  0.91188000000E+02 0.  0.
    9900012    2    3    3    0    0  0.36066598988E+02  0.73164893897E+01  0.12038858445E+01  0.54367083109E+02  0.39999997564E+02 0.  0.
         12    1    3    3    0    0 -0.36066598988E+02 -0.73164893897E+01 -0.12038858445E+01  0.36820916891E+02  0.00000000000E+00 0. -1.
         11    1    4    4    0    0  0.29390738630E+01  0.73577356325E+01 -0.25650127063E+01  0.83278880428E+01  0.51100000000E-03 0. -1.
        -11    1    4    4    0    0  0.36991350699E+02 -0.63324105290E+01 -0.45726995651E+00  0.37532233423E+02  0.51100000000E-03 0.  1.
        -12    1    4    4    0    0 -0.38638255744E+01  0.62911642862E+01  0.42261685073E+01  0.85069616431E+01  0.00000000000E+00 0.  1.
</event>
<event>
 8    1  0.2472977E-006  0.9118800E+02  0.7816164E-02  0.1184000E+00
        -11   -1    0    0    0    0  0.00000000000E+00  0.00000000000E+00  0.45593999997E+02  0.45594000000E+02  0.51100000000E-03 0. -1.
         11   -1    0    0    0    0 -0.00000000000E+00 -0.00000000000E+00 -0.45593999997E+02  0.45594000000E+02  0.51100000000E-03 0.  1.
         23    2    1    2    0    0 -0.35527136788E-14  0.27755575616E-15  0.35527136788E-14  0.91188000000E+02  0.91188000000E+02 0.  0.
    9900012    2    3    3    0    0  0.22893942948E+02 -0.48652929572E+00 -0.28834202083E+02  0.54367074642E+02  0.39999978262E+02 0.  0.
         12    1    3    3    0    0 -0.22893942948E+02  0.48652929572E+00  0.28834202083E+02  0.36820925358E+02  0.00000000000E+00 0. -1.
         11    1    4    4    0    0 -0.42067708551E+01  0.51916839503E+01  0.62185834510E+01  0.91280492804E+01  0.51100000000E-03 0. -1.
        -11    1    4    4    0    0  0.22779047562E+02 -0.20586372244E+01 -0.26629696123E+02  0.35103613930E+02  0.51100000000E-03 0.  1.
         12    1    4    4    0    0  0.43216662404E+01 -0.36195760215E+01 -0.84230894110E+01  0.10135411432E+02  0.00000000000E+00 0. -1.
</event>
<event>
 8    1  0.2472977E-006  0.9118800E+02  0.7816164E-02  0.1184000E+00
        -11   -1    0    0    0    0  0.00000000000E+00  0.00000000000E+00  0.45593999997E+02  0.45594000000E+02  0.51100000000E-03 0.  1.
         11   -1    0    0    0    0 -0.00000000000E+00 -0.00000000000E+00 -0.45593999997E+02  0.45594000000E+02  0.51100000000E-03 0. -1.
         23    2    1    2    0    0 -0.11102230246E-15  0.35527136788E-14  0.35527136788E-14  0.91188000000E+02  0.91188000000E+02 0.  0.
    9900012    2    3    3    0    0  0.72224999714E+00 -0.22118541623E+02 -0.29428361966E+02  0.54367081807E+02  0.39999994595E+02 0.  0.
        -12    1    3    3    0    0 -0.72224999714E+00  0.22118541623E+02  0.29428361966E+02  0.36820918193E+02  0.00000000000E+00 0.  1.
         11    1    4    4    0    0 -0.60797965340E+01 -0.14833448706E+02  0.21066196666E+01  0.16168889049E+02  0.51100000000E-03 0. -1.
        -11    1    4    4    0    0 -0.23578286331E+01  0.27324899631E+01  0.26844633893E+00  0.36191049943E+01  0.51100000000E-03 0.  1.
        -12    1    4    4    0    0  0.91598751643E+01 -0.10017582880E+02 -0.31803427972E+02  0.34579087763E+02  0.00000000000E+00 0.  1.
</event>
<event>
 8    1  0.2472977E-006  0.9118800E+02  0.7816164E-02  0.1184000E+00
        -11   -1    0    0    0    0  0.00000000000E+00  0.00000000000E+00  0.45593999997E+02  0.45594000000E+02  0.51100000000E-03 0.  1.
         11   -1    0    0    0    0 -0.00000000000E+00 -0.00000000000E+00 -0.45593999997E+02  0.45594000000E+02  0.51100000000E-03 0. -1.
         23    2    1    2    0    0  0.00000000000E+00 -0.35527136788E-14  0.00000000000E+00  0.91188000000E+02  0.91188000000E+02 0.  0.
    9900012    2    3    3    0    0  0.18235122573E+02  0.31760971584E+02  0.38078713815E+01  0.54367097028E+02  0.40000029295E+02 0.  0.
         12    1    3    3    0    0 -0.18235122573E+02 -0.31760971584E+02 -0.38078713815E+01  0.36820902972E+02  0.00000000000E+00 0. -1.
         11    1    4    4    0    0  0.25587544065E+02  0.28353371357E+02 -0.12495753145E+01  0.38212530894E+02  0.51100000000E-03 0. -1.
        -11    1    4    4    0    0 -0.14648453410E+01  0.85074163602E+00 -0.44055476927E+01  0.47199982985E+01  0.51100000000E-03 0.  1.
         12    1    4    4    0    0 -0.58875761511E+01  0.25568585908E+01  0.94629943887E+01  0.11434567836E+02  0.00000000000E+00 0. -1.
</event>
<event>
 8    1  0.2472977E-006  0.9118800E+02  0.7816164E-02  0.1184000E+00
        -11   -1    0    0    0    0  0.00000000000E+00  0.00000000000E+00  0.45593999997E+02  0.45594000000E+02  0.51100000000E-03 0.  1.
         11   -1    0    0    0    0 -0.00000000000E+00 -0.00000000000E+00 -0.45593999997E+02  0.45594000000E+02  0.51100000000E-03 0. -1.
         23    2    1    2    0    0  0.17763568394E-14  0.83266726847E-15  0.00000000000E+00  0.91188000000E+02  0.91188000000E+02 0.  0.
    9900012    2    3    3    0    0 -0.13913841079E+02 -0.47587095894E+00  0.34087490874E+02  0.54367102933E+02  0.40000042755E+02 0.  0.
         12    1    3    3    0    0  0.13913841079E+02  0.47587095894E+00 -0.34087490874E+02  0.36820897067E+02  0.00000000000E+00 0. -1.
         11    1    4    4    0    0 -0.92963510675E+01 -0.14358388233E+01  0.24742602486E+01  0.97265482231E+01  0.51100000000E-03 0. -1.
        -11    1    4    4    0    0 -0.21589234329E+01  0.14261671900E+02  0.58958008957E+01  0.15582576945E+02  0.51100000000E-03 0.  1.
         12    1    4    4    0    0 -0.24585665786E+01 -0.13301704036E+02  0.25717429730E+02  0.29057977765E+02  0.00000000000E+00 0. -1.
</event>
<event>
 8    1  0.2472977E-006  0.9118800E+02  0.7816164E-02  0.1184000E+00
        -11   -1    0    0    0    0  0.00000000000E+00  0.00000000000E+00  0.45593999997E+02  0.45594000000E+02  0.51100000000E-03 0.  1.
         11   -1    0    0    0    0 -0.00000000000E+00 -0.00000000000E+00 -0.45593999997E+02  0.45594000000E+02  0.51100000000E-03 0. -1.
         23    2    1    2    0    0 -0.44408920985E-15  0.35527136788E-14  0.00000000000E+00  0.91188000000E+02  0.91188000000E+02 0.  0.
    9900012    2    3    3    0    0 -0.35196292382E+01 -0.26215643406E+02 -0.25615076347E+02  0.54367083588E+02  0.39999998656E+02 0.  0.
        -12    1    3    3    0    0  0.35196292382E+01  0.26215643406E+02  0.25615076347E+02  0.36820916412E+02  0.00000000000E+00 0.  1.
         11    1    4    4    0    0 -0.14458602547E+02  0.23440162905E+01 -0.16547396834E+02  0.22098912693E+02  0.51100000000E-03 0. -1.
        -11    1    4    4    0    0  0.36174967560E+01 -0.45146043931E+01 -0.24046519595E+01  0.62650049412E+01  0.51100000000E-03 0.  1.
         12    1    4    4    0    0  0.73214765526E+01 -0.24045055303E+02 -0.66630275538E+01  0.26003165954E+02  0.00000000000E+00 0. -1.
</event>
<event>
 8    1  0.2472977E-006  0.9118800E+02  0.7816164E-02  0.1184000E+00
        -11   -1    0    0    0    0  0.00000000000E+00  0.00000000000E+00  0.45593999997E+02  0.45594000000E+02  0.51100000000E-03 0.  1.
         11   -1    0    0    0    0 -0.00000000000E+00 -0.00000000000E+00 -0.45593999997E+02  0.45594000000E+02  0.51100000000E-03 0. -1.
         23    2    1    2    0    0  0.00000000000E+00  0.00000000000E+00  0.00000000000E+00  0.91188000000E+02  0.91188000000E+02 0.  0.
    9900012    2    3    3    0    0 -0.27691490794E+02  0.21219213457E+02  0.11777374216E+02  0.54367078969E+02  0.39999988125E+02 0.  0.
        -12    1    3    3    0    0  0.27691490794E+02 -0.21219213457E+02 -0.11777374216E+02  0.36820921031E+02  0.00000000000E+00 0.  1.
         11    1    4    4    0    0  0.23093723170E+00  0.16545865200E+01 -0.72753465236E+01  0.74646939561E+01  0.51100000000E-03 0. -1.
        -11    1    4    4    0    0 -0.12866170343E+01  0.97302354215E+01  0.15418525858E+02  0.18277412417E+02  0.51100000000E-03 0.  1.
        -12    1    4    4    0    0 -0.26635810992E+02  0.98343915157E+01  0.36341948807E+01  0.28624972596E+02  0.00000000000E+00 0.  1.
</event>
<event>
 8    1  0.2472977E-006  0.9118800E+02  0.7816164E-02  0.1184000E+00
        -11   -1    0    0    0    0  0.00000000000E+00  0.00000000000E+00  0.45593999997E+02  0.45594000000E+02  0.51100000000E-03 0.  1.
         11   -1    0    0    0    0 -0.00000000000E+00 -0.00000000000E+00 -0.45593999997E+02  0.45594000000E+02  0.51100000000E-03 0. -1.
         23    2    1    2    0    0  0.71054273576E-14  0.00000000000E+00  0.19984014443E-14  0.91188000000E+02  0.91188000000E+02 0.  0.
    9900012    2    3    3    0    0 -0.34176909529E+02 -0.13683120068E+02  0.70168037926E+00  0.54367064717E+02  0.39999955636E+02 0.  0.
        -12    1    3    3    0    0  0.34176909529E+02  0.13683120068E+02 -0.70168037926E+00  0.36820935283E+02  0.00000000000E+00 0.  1.
         11    1    4    4    0    0 -0.25281619485E+02 -0.22062449686E+02  0.12242503587E+02  0.35718214741E+02  0.51100000000E-03 0. -1.
        -11    1    4    4    0    0 -0.76042457297E+01  0.60155304536E+01 -0.37333460905E+01  0.10389852407E+02  0.51100000000E-03 0.  1.
         12    1    4    4    0    0 -0.12910443141E+01  0.23637991644E+01 -0.78074771175E+01  0.82589975694E+01  0.00000000000E+00 0. -1.
</event>
<event>
 8    1  0.2472977E-006  0.9118800E+02  0.7816164E-02  0.1184000E+00
        -11   -1    0    0    0    0  0.00000000000E+00  0.00000000000E+00  0.45593999997E+02  0.45594000000E+02  0.51100000000E-03 0. -1.
         11   -1    0    0    0    0 -0.00000000000E+00 -0.00000000000E+00 -0.45593999997E+02  0.45594000000E+02  0.51100000000E-03 0.  1.
         23    2    1    2    0    0  0.71054273576E-14  0.00000000000E+00  0.17763568394E-14  0.91188000000E+02  0.91188000000E+02 0.  0.
    9900012    2    3    3    0    0 -0.35530733953E+02 -0.84191085357E+01 -0.47398418720E+01  0.54367074634E+02  0.39999978244E+02 0.  0.
        -12    1    3    3    0    0  0.35530733953E+02  0.84191085357E+01  0.47398418720E+01  0.36820925366E+02  0.00000000000E+00 0.  1.
         11    1    4    4    0    0 -0.29685779199E+02 -0.15021967736E+02 -0.13321818935E+02  0.35838189983E+02  0.51100000000E-03 0. -1.
        -11    1    4    4    0    0 -0.61802202956E+01  0.35556066458E+01  0.11986938281E+02  0.13947191514E+02  0.51100000000E-03 0.  1.
         12    1    4    4    0    0  0.33526554071E+00  0.30472525543E+01 -0.34049612172E+01  0.45816931371E+01  0.00000000000E+00 0. -1.
</event>
<event>
 8    1  0.2472977E-006  0.9118800E+02  0.7816164E-02  0.1184000E+00
        -11   -1    0    0    0    0  0.00000000000E+00  0.00000000000E+00  0.45593999997E+02  0.45594000000E+02  0.51100000000E-03 0. -1.
         11   -1    0    0    0    0 -0.00000000000E+00 -0.00000000000E+00 -0.45593999997E+02  0.45594000000E+02  0.51100000000E-03 0.  1.
         23    2    1    2    0    0  0.00000000000E+00  0.35527136788E-14  0.00000000000E+00  0.91188000000E+02  0.91188000000E+02 0.  0.
    9900012    2    3    3    0    0  0.17924586702E+02  0.18041759343E+02  0.26626746849E+02  0.54367088327E+02  0.40000009460E+02 0.  0.
        -12    1    3    3    0    0 -0.17924586702E+02 -0.18041759343E+02 -0.26626746849E+02  0.36820911673E+02  0.00000000000E+00 0.  1.
         11    1    4    4    0    0  0.14698188898E+02 -0.52890219698E+01  0.18989381993E+02  0.24588760420E+02  0.51100000000E-03 0. -1.
        -11    1    4    4    0    0 -0.56568461801E+01  0.14179299691E+02  0.75206073118E+00  0.15284568821E+02  0.51100000000E-03 0.  1.
         12    1    4    4    0    0  0.88832439844E+01  0.91514816222E+01  0.68853041251E+01  0.14493759087E+02  0.00000000000E+00 0. -1.
</event>
<event>
 8    1  0.2472977E-006  0.9118800E+02  0.7816164E-02  0.1184000E+00
        -11   -1    0    0    0    0  0.00000000000E+00  0.00000000000E+00  0.45593999997E+02  0.45594000000E+02  0.51100000000E-03 0.  1.
         11   -1    0    0    0    0 -0.00000000000E+00 -0.00000000000E+00 -0.45593999997E+02  0.45594000000E+02  0.51100000000E-03 0. -1.
         23    2    1    2    0    0  0.00000000000E+00  0.00000000000E+00 -0.22204460493E-15  0.91188000000E+02  0.91188000000E+02 0.  0.
    9900012    2    3    3    0    0 -0.13111479922E+02  0.34396037134E+02 -0.88420502328E+00  0.54367080745E+02  0.39999992175E+02 0.  0.
        -12    1    3    3    0    0  0.13111479922E+02 -0.34396037134E+02  0.88420502328E+00  0.36820919255E+02  0.00000000000E+00 0.  1.
         11    1    4    4    0    0  0.73127941477E+01  0.35547528725E+01  0.59107165402E+01  0.10052352785E+02  0.51100000000E-03 0. -1.
        -11    1    4    4    0    0 -0.68031342436E+01 -0.28281625496E+01 -0.22946798637E+01  0.77166504963E+01  0.51100000000E-03 0.  1.
         12    1    4    4    0    0 -0.13621139827E+02  0.33669446811E+02 -0.45002416997E+01  0.36598077464E+02  0.00000000000E+00 0. -1.
</event>
<event>
 8    1  0.2472977E-006  0.9118800E+02  0.7816164E-02  0.1184000E+00
        -11   -1    0    0    0    0  0.00000000000E+00  0.00000000000E+00  0.45593999997E+02  0.45594000000E+02  0.51100000000E-03 0.  1.
         11   -1    0    0    0    0 -0.00000000000E+00 -0.00000000000E+00 -0.45593999997E+02  0.45594000000E+02  0.51100000000E-03 0. -1.
         23    2    1    2    0    0 -0.17763568394E-14 -0.88817841970E-15  0.00000000000E+00  0.91188000000E+02  0.91188000000E+02 0.  0.
    9900012    2    3    3    0    0 -0.14569555709E+02  0.28414013470E+01 -0.33696200884E+02  0.54367089240E+02  0.40000011541E+02 0.  0.
        -12    1    3    3    0    0  0.14569555709E+02 -0.28414013470E+01  0.33696200884E+02  0.36820910760E+02  0.00000000000E+00 0.  1.
         11    1    4    4    0    0  0.51060267410E+00  0.47562665750E+01  0.94687194475E+00  0.48764078546E+01  0.51100000000E-03 0. -1.
        -11    1    4    4    0    0 -0.20755996028E+02  0.88267131054E+01 -0.17848990919E+02  0.28762974680E+02  0.51100000000E-03 0.  1.
         12    1    4    4    0    0  0.56758376453E+01 -0.10741578333E+02 -0.16794081910E+02  0.20727706705E+02  0.00000000000E+00 0. -1.
</event>
<event>
 8    1  0.2472977E-006  0.9118800E+02  0.7816164E-02  0.1184000E+00
        -11   -1    0    0    0    0  0.00000000000E+00  0.00000000000E+00  0.45593999997E+02  0.45594000000E+02  0.51100000000E-03 0. -1.
         11   -1    0    0    0    0 -0.00000000000E+00 -0.00000000000E+00 -0.45593999997E+02  0.45594000000E+02  0.51100000000E-03 0.  1.
         23    2    1    2    0    0  0.00000000000E+00  0.00000000000E+00 -0.88817841970E-15  0.91188000000E+02  0.91188000000E+02 0.  0.
    9900012    2    3    3    0    0 -0.30483467281E+02  0.20224900576E+02  0.41822699747E+01  0.54367085251E+02  0.40000002448E+02 0.  0.
        -12    1    3    3    0    0  0.30483467281E+02 -0.20224900576E+02 -0.41822699747E+01  0.36820914749E+02  0.00000000000E+00 0.  1.
         11    1    4    4    0    0  0.54543644077E-01  0.56268058619E+00  0.91309269177E+01  0.91484103039E+01  0.51100000000E-03 0. -1.
        -11    1    4    4    0    0 -0.71127279811E+01  0.14915099107E+02  0.76397347395E+01  0.18204851767E+02  0.51100000000E-03 0.  1.
        -12    1    4    4    0    0 -0.23425282944E+02  0.47471208829E+01 -0.12588391683E+02  0.27013823180E+02  0.00000000000E+00 0.  1.
</event>
<event>
 8    1  0.2472977E-006  0.9118800E+02  0.7816164E-02  0.1184000E+00
        -11   -1    0    0    0    0  0.00000000000E+00  0.00000000000E+00  0.45593999997E+02  0.45594000000E+02  0.51100000000E-03 0.  1.
         11   -1    0    0    0    0 -0.00000000000E+00 -0.00000000000E+00 -0.45593999997E+02  0.45594000000E+02  0.51100000000E-03 0. -1.
         23    2    1    2    0    0  0.00000000000E+00  0.00000000000E+00 -0.71054273576E-14  0.91188000000E+02  0.91188000000E+02 0.  0.
    9900012    2    3    3    0    0  0.10789727099E+02 -0.50709408061E+01 -0.34837436994E+02  0.54367086543E+02  0.40000005392E+02 0.  0.
        -12    1    3    3    0    0 -0.10789727099E+02  0.50709408061E+01  0.34837436994E+02  0.36820913457E+02  0.00000000000E+00 0.  1.
         11    1    4    4    0    0 -0.57728232627E+01  0.10989608209E+02 -0.13114939431E+02  0.18058200729E+02  0.51100000000E-03 0. -1.
        -11    1    4    4    0    0  0.10792498823E+02  0.77085461039E+00 -0.11493427774E+02  0.15785155366E+02  0.51100000000E-03 0.  1.
        -12    1    4    4    0    0  0.57700515387E+01 -0.16831403626E+02 -0.10229069788E+02  0.20523730448E+02  0.00000000000E+00 0.  1.
</event>
<event>
 8    1  0.2472977E-006  0.9118800E+02  0.7816164E-02  0.1184000E+00
        -11   -1    0    0    0    0  0.00000000000E+00  0.00000000000E+00  0.45593999997E+02  0.45594000000E+02  0.51100000000E-03 0. -1.
         11   -1    0    0    0    0 -0.00000000000E+00 -0.00000000000E+00 -0.45593999997E+02  0.45594000000E+02  0.51100000000E-03 0.  1.
         23    2    1    2    0    0  0.35527136788E-14  0.71054273576E-14  0.35527136788E-14  0.91188000000E+02  0.91188000000E+02 0.  0.
    9900012    2    3    3    0    0 -0.17540268870E+02 -0.26620548921E+02 -0.18424571445E+02  0.54367088960E+02  0.40000010903E+02 0.  0.
         12    1    3    3    0    0  0.17540268870E+02  0.26620548921E+02  0.18424571445E+02  0.36820911040E+02  0.00000000000E+00 0. -1.
         11    1    4    4    0    0 -0.75300466659E+01 -0.11016354348E+02 -0.14611023398E+02  0.19787462468E+02  0.51100000000E-03 0.  1.
        -11    1    4    4    0    0 -0.15744459606E+02 -0.21128555206E+02 -0.20869546838E+01  0.26432162861E+02  0.51100000000E-03 0. -1.
         12    1    4    4    0    0  0.57342374025E+01  0.55243606329E+01 -0.17265933627E+01  0.81474636317E+01  0.00000000000E+00 0. -1.
</event>
<event>
 8    1  0.2472977E-006  0.9118800E+02  0.7816164E-02  0.1184000E+00
        -11   -1    0    0    0    0  0.00000000000E+00  0.00000000000E+00  0.45593999997E+02  0.45594000000E+02  0.51100000000E-03 0.  1.
         11   -1    0    0    0    0 -0.00000000000E+00 -0.00000000000E+00 -0.45593999997E+02  0.45594000000E+02  0.51100000000E-03 0. -1.
         23    2    1    2    0    0  0.44408920985E-15  0.00000000000E+00  0.35527136788E-14  0.91188000000E+02  0.91188000000E+02 0.  0.
    9900012    2    3    3    0    0  0.24881490861E+01  0.30809435734E+02  0.20009206644E+02  0.54367074337E+02  0.39999977566E+02 0.  0.
         12    1    3    3    0    0 -0.24881490861E+01 -0.30809435734E+02 -0.20009206644E+02  0.36820925663E+02  0.00000000000E+00 0. -1.
         11    1    4    4    0    0  0.25911319246E+01 -0.61291873296E+01  0.76405324955E+01  0.10132059961E+02  0.51100000000E-03 0. -1.
        -11    1    4    4    0    0 -0.12544767378E+01  0.27851764778E+02 -0.11521147458E+01  0.27903796907E+02  0.51100000000E-03 0.  1.
        -12    1    4    4    0    0  0.11514938993E+01  0.90868582857E+01  0.13520788895E+02  0.16331217470E+02  0.00000000000E+00 0.  1.
</event>
<event>
 8    1  0.2472977E-006  0.9118800E+02  0.7816164E-02  0.1184000E+00
        -11   -1    0    0    0    0  0.00000000000E+00  0.00000000000E+00  0.45593999997E+02  0.45594000000E+02  0.51100000000E-03 0.  1.
         11   -1    0    0    0    0 -0.00000000000E+00 -0.00000000000E+00 -0.45593999997E+02  0.45594000000E+02  0.51100000000E-03 0. -1.
         23    2    1    2    0    0 -0.44408920985E-15  0.00000000000E+00  0.00000000000E+00  0.91188000000E+02  0.91188000000E+02 0.  0.
    9900012    2    3    3    0    0  0.90704959743E+00 -0.10525441321E+02  0.35272834827E+02  0.54367074825E+02  0.39999978679E+02 0.  0.
         12    1    3    3    0    0 -0.90704959743E+00  0.10525441321E+02 -0.35272834827E+02  0.36820925175E+02  0.00000000000E+00 0. -1.
         11    1    4    4    0    0  0.33691266788E+01 -0.12487988889E+01 -0.47551973696E+01  0.59600684164E+01  0.51100000000E-03 0. -1.
        -11    1    4    4    0    0  0.10077630128E+02 -0.86411330241E+01  0.12882226144E+02  0.18498096108E+02  0.51100000000E-03 0.  1.
         12    1    4    4    0    0 -0.12539707210E+02 -0.63550940828E+00  0.27145806053E+02  0.29908910301E+02  0.00000000000E+00 0. -1.
</event>
<event>
 8    1  0.2472977E-006  0.9118800E+02  0.7816164E-02  0.1184000E+00
        -11   -1    0    0    0    0  0.00000000000E+00  0.00000000000E+00  0.45593999997E+02  0.45594000000E+02  0.51100000000E-03 0.  1.
         11   -1    0    0    0    0 -0.00000000000E+00 -0.00000000000E+00 -0.45593999997E+02  0.45594000000E+02  0.51100000000E-03 0. -1.
         23    2    1    2    0    0 -0.35527136788E-14  0.35527136788E-14  0.23037127761E-14  0.91188000000E+02  0.91188000000E+02 0.  0.
    9900012    2    3    3    0    0 -0.28944889424E+02  0.22758720068E+02  0.11777603326E+00  0.54367084285E+02  0.40000000245E+02 0.  0.
         12    1    3    3    0    0  0.28944889424E+02 -0.22758720068E+02 -0.11777603326E+00  0.36820915715E+02  0.00000000000E+00 0. -1.
         11    1    4    4    0    0  0.26218661306E+01  0.82516576636E+01  0.20590492362E+01  0.88996471965E+01  0.51100000000E-03 0. -1.
        -11    1    4    4    0    0 -0.96640592462E+01  0.15319101679E+02  0.98094886173E+01  0.20598421895E+02  0.51100000000E-03 0.  1.
        -12    1    4    4    0    0 -0.21902696308E+02 -0.81203927483E+00 -0.11750761820E+02  0.24869015194E+02  0.00000000000E+00 0.  1.
</event>
<event>
 8    1  0.2472977E-006  0.9118800E+02  0.7816164E-02  0.1184000E+00
        -11   -1    0    0    0    0  0.00000000000E+00  0.00000000000E+00  0.45593999997E+02  0.45594000000E+02  0.51100000000E-03 0.  1.
         11   -1    0    0    0    0 -0.00000000000E+00 -0.00000000000E+00 -0.45593999997E+02  0.45594000000E+02  0.51100000000E-03 0. -1.
         23    2    1    2    0    0  0.17763568394E-14 -0.35527136788E-14  0.00000000000E+00  0.91188000000E+02  0.91188000000E+02 0.  0.
    9900012    2    3    3    0    0 -0.15599970836E+02  0.25158372245E+02  0.21896978884E+02  0.54367075672E+02  0.39999980610E+02 0.  0.
         12    1    3    3    0    0  0.15599970836E+02 -0.25158372245E+02 -0.21896978884E+02  0.36820924328E+02  0.00000000000E+00 0. -1.
         11    1    4    4    0    0  0.95397007495E+01  0.14972534722E+01  0.14041632099E+02  0.17041569488E+02  0.51100000000E-03 0. -1.
        -11    1    4    4    0    0 -0.58968000343E+01  0.76787064145E+01  0.76022609805E+01  0.12309717914E+02  0.51100000000E-03 0.  1.
         12    1    4    4    0    0 -0.19242871552E+02  0.15982412358E+02  0.25308580437E+00  0.25015788270E+02  0.00000000000E+00 0. -1.
</event>
<event>
 8    1  0.2472977E-006  0.9118800E+02  0.7816164E-02  0.1184000E+00
        -11   -1    0    0    0    0  0.00000000000E+00  0.00000000000E+00  0.45593999997E+02  0.45594000000E+02  0.51100000000E-03 0.  1.
         11   -1    0    0    0    0 -0.00000000000E+00 -0.00000000000E+00 -0.45593999997E+02  0.45594000000E+02  0.51100000000E-03 0. -1.
         23    2    1    2    0    0 -0.35527136788E-14  0.00000000000E+00  0.00000000000E+00  0.91188000000E+02  0.91188000000E+02 0.  0.
    9900012    2    3    3    0    0 -0.24924384413E+02  0.17603762088E+02  0.20607383327E+02  0.54367059957E+02  0.39999944784E+02 0.  0.
        -12    1    3    3    0    0  0.24924384413E+02 -0.17603762088E+02 -0.20607383327E+02  0.36820940043E+02  0.00000000000E+00 0.  1.
         11    1    4    4    0    0  0.42107178004E+01  0.77909941493E+01  0.11493325640E+02  0.14509523382E+02  0.51100000000E-03 0. -1.
        -11    1    4    4    0    0  0.15531531656E+01 -0.24944745275E+01 -0.34095633656E+01  0.45010899268E+01  0.51100000000E-03 0.  1.
        -12    1    4    4    0    0 -0.30688255379E+02  0.12307242466E+02  0.12523621053E+02  0.35356446649E+02  0.00000000000E+00 0.  1.
</event>
<event>
 8    1  0.2472977E-006  0.9118800E+02  0.7816164E-02  0.1184000E+00
        -11   -1    0    0    0    0  0.00000000000E+00  0.00000000000E+00  0.45593999997E+02  0.45594000000E+02  0.51100000000E-03 0.  1.
         11   -1    0    0    0    0 -0.00000000000E+00 -0.00000000000E+00 -0.45593999997E+02  0.45594000000E+02  0.51100000000E-03 0. -1.
         23    2    1    2    0    0  0.88817841970E-15 -0.71054273576E-14  0.35527136788E-14  0.91188000000E+02  0.91188000000E+02 0.  0.
    9900012    2    3    3    0    0  0.12997797160E+01  0.33374457065E+02 -0.15499541713E+02  0.54367087396E+02  0.40000007337E+02 0.  0.
        -12    1    3    3    0    0 -0.12997797160E+01 -0.33374457065E+02  0.15499541713E+02  0.36820912604E+02  0.00000000000E+00 0.  1.
         11    1    4    4    0    0  0.50042768699E+01  0.14032113644E+02 -0.90043154629E+01  0.17407489697E+02  0.51100000000E-03 0. -1.
        -11    1    4    4    0    0 -0.14928359022E+02  0.73073195458E+01 -0.10958792185E+02  0.19908489356E+02  0.51100000000E-03 0.  1.
        -12    1    4    4    0    0  0.11223861868E+02  0.12035023875E+02  0.44635659351E+01  0.17051108344E+02  0.00000000000E+00 0.  1.
</event>
<event>
 8    1  0.2472977E-006  0.9118800E+02  0.7816164E-02  0.1184000E+00
        -11   -1    0    0    0    0  0.00000000000E+00  0.00000000000E+00  0.45593999997E+02  0.45594000000E+02  0.51100000000E-03 0. -1.
         11   -1    0    0    0    0 -0.00000000000E+00 -0.00000000000E+00 -0.45593999997E+02  0.45594000000E+02  0.51100000000E-03 0.  1.
         23    2    1    2    0    0  0.00000000000E+00  0.00000000000E+00  0.00000000000E+00  0.91188000000E+02  0.91188000000E+02 0.  0.
    9900012    2    3    3    0    0 -0.29459692202E+01  0.12850420403E+02  0.34379756568E+02  0.54367086094E+02  0.40000004369E+02 0.  0.
        -12    1    3    3    0    0  0.29459692202E+01 -0.12850420403E+02 -0.34379756568E+02  0.36820913906E+02  0.00000000000E+00 0.  1.
         11    1    4    4    0    0 -0.23659899712E+01  0.57399834975E+01  0.46402259705E+01  0.77509364863E+01  0.51100000000E-03 0. -1.
        -11    1    4    4    0    0 -0.58403172797E+01  0.15154451276E+01  0.36127011674E+02  0.36627405758E+02  0.51100000000E-03 0.  1.
        -12    1    4    4    0    0  0.52603380307E+01  0.55949917782E+01 -0.63874810763E+01  0.99887438498E+01  0.00000000000E+00 0.  1.
</event>
<event>
 8    1  0.2472977E-006  0.9118800E+02  0.7816164E-02  0.1184000E+00
        -11   -1    0    0    0    0  0.00000000000E+00  0.00000000000E+00  0.45593999997E+02  0.45594000000E+02  0.51100000000E-03 0.  1.
         11   -1    0    0    0    0 -0.00000000000E+00 -0.00000000000E+00 -0.45593999997E+02  0.45594000000E+02  0.51100000000E-03 0. -1.
         23    2    1    2    0    0 -0.35527136788E-14 -0.17763568394E-14  0.00000000000E+00  0.91188000000E+02  0.91188000000E+02 0.  0.
    9900012    2    3    3    0    0 -0.17120596734E+02 -0.27784525230E+01 -0.32479900973E+02  0.54367101068E+02  0.40000038504E+02 0.  0.
        -12    1    3    3    0    0  0.17120596734E+02  0.27784525230E+01  0.32479900973E+02  0.36820898932E+02  0.00000000000E+00 0.  1.
         11    1    4    4    0    0  0.62143385442E+01 -0.95036692298E+01 -0.24164042290E+02  0.26699038792E+02  0.51100000000E-03 0. -1.
        -11    1    4    4    0    0 -0.55807921529E+01  0.37091732839E+01 -0.68774375967E+01  0.96022057706E+01  0.51100000000E-03 0.  1.
         12    1    4    4    0    0 -0.17754143126E+02  0.30160434230E+01 -0.14384210867E+01  0.18065856505E+02  0.00000000000E+00 0. -1.
</event>
<event>
 8    1  0.2472977E-006  0.9118800E+02  0.7816164E-02  0.1184000E+00
        -11   -1    0    0    0    0  0.00000000000E+00  0.00000000000E+00  0.45593999997E+02  0.45594000000E+02  0.51100000000E-03 0. -1.
         11   -1    0    0    0    0 -0.00000000000E+00 -0.00000000000E+00 -0.45593999997E+02  0.45594000000E+02  0.51100000000E-03 0.  1.
         23    2    1    2    0    0  0.00000000000E+00 -0.22204460493E-15  0.35527136788E-14  0.91188000000E+02  0.91188000000E+02 0.  0.
    9900012    2    3    3    0    0 -0.25751713248E+02  0.12384272933E+01  0.26288699939E+02  0.54367079562E+02  0.39999989479E+02 0.  0.
        -12    1    3    3    0    0  0.25751713248E+02 -0.12384272933E+01 -0.26288699939E+02  0.36820920438E+02  0.00000000000E+00 0.  1.
         11    1    4    4    0    0 -0.15594773635E+02  0.34719604614E+01  0.83581872902E+01  0.18030828301E+02  0.51100000000E-03 0. -1.
        -11    1    4    4    0    0  0.84094834552E+01  0.65227684147E+01  0.33502555994E+01  0.11157514625E+02  0.51100000000E-03 0.  1.
        -12    1    4    4    0    0 -0.18566423068E+02 -0.87563015829E+01  0.14580257050E+02  0.25178736636E+02  0.00000000000E+00 0.  1.
</event>
<event>
 8    1  0.2472977E-006  0.9118800E+02  0.7816164E-02  0.1184000E+00
        -11   -1    0    0    0    0  0.00000000000E+00  0.00000000000E+00  0.45593999997E+02  0.45594000000E+02  0.51100000000E-03 0.  1.
         11   -1    0    0    0    0 -0.00000000000E+00 -0.00000000000E+00 -0.45593999997E+02  0.45594000000E+02  0.51100000000E-03 0. -1.
         23    2    1    2    0    0  0.44408920985E-15  0.17763568394E-14  0.00000000000E+00  0.91188000000E+02  0.91188000000E+02 0.  0.
    9900012    2    3    3    0    0  0.22727176373E+01  0.11912651780E+02  0.34766419780E+02  0.54367075755E+02  0.39999980799E+02 0.  0.
         12    1    3    3    0    0 -0.22727176373E+01 -0.11912651780E+02 -0.34766419780E+02  0.36820924245E+02  0.00000000000E+00 0. -1.
         11    1    4    4    0    0 -0.62907473516E+01 -0.57598029590E+01  0.36083132866E+01  0.92611423379E+01  0.51100000000E-03 0. -1.
        -11    1    4    4    0    0  0.10418789133E+02 -0.11622806567E+01  0.21360461394E+02  0.23794355939E+02  0.51100000000E-03 0.  1.
        -12    1    4    4    0    0 -0.18553241436E+01  0.18834735396E+02  0.97976450995E+01  0.21311577478E+02  0.00000000000E+00 0.  1.
</event>
<event>
 8    1  0.2472977E-006  0.9118800E+02  0.7816164E-02  0.1184000E+00
        -11   -1    0    0    0    0  0.00000000000E+00  0.00000000000E+00  0.45593999997E+02  0.45594000000E+02  0.51100000000E-03 0. -1.
         11   -1    0    0    0    0 -0.00000000000E+00 -0.00000000000E+00 -0.45593999997E+02  0.45594000000E+02  0.51100000000E-03 0.  1.
         23    2    1    2    0    0 -0.21510571102E-14  0.00000000000E+00  0.00000000000E+00  0.91188000000E+02  0.91188000000E+02 0.  0.
    9900012    2    3    3    0    0 -0.10093005350E+00 -0.82627456444E+01 -0.35881696193E+02  0.54367091888E+02  0.40000017578E+02 0.  0.
         12    1    3    3    0    0  0.10093005350E+00  0.82627456444E+01  0.35881696193E+02  0.36820908112E+02  0.00000000000E+00 0. -1.
         11    1    4    4    0    0  0.31714500691E+01 -0.54168814939E+01  0.51396246382E+01  0.81127333460E+01  0.51100000000E-03 0. -1.
        -11    1    4    4    0    0 -0.11690241947E+02 -0.29626069352E-01 -0.29339531655E+02  0.31582760368E+02  0.51100000000E-03 0.  1.
        -12    1    4    4    0    0  0.84178618241E+01 -0.28162380812E+01 -0.11681789176E+02  0.14671598174E+02  0.00000000000E+00 0.  1.
</event>
<event>
 8    1  0.2472977E-006  0.9118800E+02  0.7816164E-02  0.1184000E+00
        -11   -1    0    0    0    0  0.00000000000E+00  0.00000000000E+00  0.45593999997E+02  0.45594000000E+02  0.51100000000E-03 0. -1.
         11   -1    0    0    0    0 -0.00000000000E+00 -0.00000000000E+00 -0.45593999997E+02  0.45594000000E+02  0.51100000000E-03 0.  1.
         23    2    1    2    0    0  0.00000000000E+00  0.00000000000E+00  0.00000000000E+00  0.91188000000E+02  0.91188000000E+02 0.  0.
    9900012    2    3    3    0    0 -0.23010610188E+02 -0.14710935822E+02  0.24695972509E+02  0.54366934397E+02  0.39999658544E+02 0.  0.
         12    1    3    3    0    0  0.23010610188E+02  0.14710935822E+02 -0.24695972509E+02  0.36821065603E+02  0.00000000000E+00 0. -1.
         11    1    4    4    0    0 -0.23707938925E+02 -0.17834407004E+02  0.21984215046E+02  0.36924763408E+02  0.51100000000E-03 0. -1.
        -11    1    4    4    0    0  0.75240464903E+01  0.54668180391E+01 -0.94988822808E+00  0.93487786886E+01  0.51100000000E-03 0.  1.
        -12    1    4    4    0    0 -0.68267177527E+01 -0.23433468569E+01  0.36616456910E+01  0.80933923007E+01  0.00000000000E+00 0.  1.
</event>
<event>
 8    1  0.2472977E-006  0.9118800E+02  0.7816164E-02  0.1184000E+00
        -11   -1    0    0    0    0  0.00000000000E+00  0.00000000000E+00  0.45593999997E+02  0.45594000000E+02  0.51100000000E-03 0.  1.
         11   -1    0    0    0    0 -0.00000000000E+00 -0.00000000000E+00 -0.45593999997E+02  0.45594000000E+02  0.51100000000E-03 0. -1.
         23    2    1    2    0    0  0.00000000000E+00  0.00000000000E+00  0.00000000000E+00  0.91188000000E+02  0.91188000000E+02 0.  0.
    9900012    2    3    3    0    0  0.13181522363E+02  0.14489934009E+02  0.31178017018E+02  0.54367089303E+02  0.40000011685E+02 0.  0.
         12    1    3    3    0    0 -0.13181522363E+02 -0.14489934009E+02 -0.31178017018E+02  0.36820910697E+02  0.00000000000E+00 0. -1.
         11    1    4    4    0    0  0.12261752951E+02  0.12342486811E+02  0.17090654902E+02  0.24388071907E+02  0.51100000000E-03 0.  1.
        -11    1    4    4    0    0 -0.22145993055E+01 -0.84169219596E+01  0.16539742209E+02  0.18689892936E+02  0.51100000000E-03 0. -1.
         12    1    4    4    0    0  0.31343687181E+01  0.10564369157E+02 -0.24523800938E+01  0.11289124460E+02  0.00000000000E+00 0. -1.
</event>
<event>
 8    1  0.2472977E-006  0.9118800E+02  0.7816164E-02  0.1184000E+00
        -11   -1    0    0    0    0  0.00000000000E+00  0.00000000000E+00  0.45593999997E+02  0.45594000000E+02  0.51100000000E-03 0.  1.
         11   -1    0    0    0    0 -0.00000000000E+00 -0.00000000000E+00 -0.45593999997E+02  0.45594000000E+02  0.51100000000E-03 0. -1.
         23    2    1    2    0    0  0.00000000000E+00  0.71054273576E-14 -0.35527136788E-14  0.91188000000E+02  0.91188000000E+02 0.  0.
    9900012    2    3    3    0    0 -0.25971472344E+01  0.27284797444E+02 -0.24588090288E+02  0.54367088423E+02  0.40000009679E+02 0.  0.
        -12    1    3    3    0    0  0.25971472344E+01 -0.27284797444E+02  0.24588090288E+02  0.36820911577E+02  0.00000000000E+00 0.  1.
         11    1    4    4    0    0  0.37649680382E+01  0.74055225841E+01 -0.20073713990E+02  0.21724887634E+02  0.51100000000E-03 0. -1.
        -11    1    4    4    0    0 -0.47326655364E+01 -0.37053373923E+01 -0.65791262909E+01  0.89113720203E+01  0.51100000000E-03 0.  1.
        -12    1    4    4    0    0 -0.16294497362E+01  0.23584612253E+02  0.20647499936E+01  0.23730828769E+02  0.00000000000E+00 0.  1.
</event>
<event>
 8    1  0.2472977E-006  0.9118800E+02  0.7816164E-02  0.1184000E+00
        -11   -1    0    0    0    0  0.00000000000E+00  0.00000000000E+00  0.45593999997E+02  0.45594000000E+02  0.51100000000E-03 0. -1.
         11   -1    0    0    0    0 -0.00000000000E+00 -0.00000000000E+00 -0.45593999997E+02  0.45594000000E+02  0.51100000000E-03 0.  1.
         23    2    1    2    0    0  0.00000000000E+00 -0.35527136788E-14  0.17763568394E-14  0.91188000000E+02  0.91188000000E+02 0.  0.
    9900012    2    3    3    0    0 -0.27942789672E+02 -0.18949440173E+02 -0.14693479879E+02  0.54367093867E+02  0.40000022088E+02 0.  0.
         12    1    3    3    0    0  0.27942789672E+02  0.18949440173E+02  0.14693479879E+02  0.36820906133E+02  0.00000000000E+00 0. -1.
         11    1    4    4    0    0 -0.14153648069E+02 -0.14813353713E+02  0.72257894331E+01  0.21724944996E+02  0.51100000000E-03 0. -1.
        -11    1    4    4    0    0 -0.12141097656E+01  0.70805788826E+01 -0.82892958584E+01  0.10969096860E+02  0.51100000000E-03 0.  1.
        -12    1    4    4    0    0 -0.12575031837E+02 -0.11216665343E+02 -0.13629973454E+02  0.21673052011E+02  0.00000000000E+00 0.  1.
</event>
<event>
 8    1  0.2472977E-006  0.9118800E+02  0.7816164E-02  0.1184000E+00
        -11   -1    0    0    0    0  0.00000000000E+00  0.00000000000E+00  0.45593999997E+02  0.45594000000E+02  0.51100000000E-03 0.  1.
         11   -1    0    0    0    0 -0.00000000000E+00 -0.00000000000E+00 -0.45593999997E+02  0.45594000000E+02  0.51100000000E-03 0. -1.
         23    2    1    2    0    0  0.00000000000E+00 -0.35527136788E-14 -0.35527136788E-14  0.91188000000E+02  0.91188000000E+02 0.  0.
    9900012    2    3    3    0    0  0.23183371341E+02  0.17788467524E+02  0.22402719135E+02  0.54367080562E+02  0.39999991758E+02 0.  0.
         12    1    3    3    0    0 -0.23183371341E+02 -0.17788467524E+02 -0.22402719135E+02  0.36820919438E+02  0.00000000000E+00 0. -1.
         11    1    4    4    0    0 -0.27024672499E+01 -0.23327849190E+01  0.18422004134E+01  0.40173271387E+01  0.51100000000E-03 0. -1.
        -11    1    4    4    0    0  0.99494454977E+01  0.19620135315E+02  0.25481127750E+02  0.33663467546E+02  0.51100000000E-03 0.  1.
         12    1    4    4    0    0  0.15936393093E+02  0.50111712776E+00 -0.49206090286E+01  0.16686285878E+02  0.00000000000E+00 0. -1.
</event>
<event>
 8    1  0.2472977E-006  0.9118800E+02  0.7816164E-02  0.1184000E+00
        -11   -1    0    0    0    0  0.00000000000E+00  0.00000000000E+00  0.45593999997E+02  0.45594000000E+02  0.51100000000E-03 0. -1.
         11   -1    0    0    0    0 -0.00000000000E+00 -0.00000000000E+00 -0.45593999997E+02  0.45594000000E+02  0.51100000000E-03 0.  1.
         23    2    1    2    0    0  0.88817841970E-15  0.00000000000E+00  0.35527136788E-14  0.91188000000E+02  0.91188000000E+02 0.  0.
    9900012    2    3    3    0    0 -0.67817374270E+01  0.26045697541E+02 -0.25127866629E+02  0.54367081975E+02  0.39999994978E+02 0.  0.
         12    1    3    3    0    0  0.67817374270E+01 -0.26045697541E+02  0.25127866629E+02  0.36820918025E+02  0.00000000000E+00 0. -1.
         11    1    4    4    0    0  0.26481840583E+01  0.16204984760E+02 -0.38920318694E+01  0.16874902140E+02  0.51100000000E-03 0. -1.
        -11    1    4    4    0    0 -0.18877109299E+01  0.17795353878E+02 -0.19372839453E+02  0.26373186780E+02  0.51100000000E-03 0.  1.
         12    1    4    4    0    0 -0.75422105554E+01 -0.79546410973E+01 -0.18629953062E+01  0.11118993055E+02  0.00000000000E+00 0. -1.
</event>
<event>
 8    1  0.2472977E-006  0.9118800E+02  0.7816164E-02  0.1184000E+00
        -11   -1    0    0    0    0  0.00000000000E+00  0.00000000000E+00  0.45593999997E+02  0.45594000000E+02  0.51100000000E-03 0. -1.
         11   -1    0    0    0    0 -0.00000000000E+00 -0.00000000000E+00 -0.45593999997E+02  0.45594000000E+02  0.51100000000E-03 0.  1.
         23    2    1    2    0    0  0.00000000000E+00  0.88817841970E-15 -0.22412627310E-14  0.91188000000E+02  0.91188000000E+02 0.  0.
    9900012    2    3    3    0    0 -0.36648445430E+02  0.35593791565E+01 -0.47228275825E-01  0.54367082536E+02  0.39999996257E+02 0.  0.
         12    1    3    3    0    0  0.36648445430E+02 -0.35593791565E+01  0.47228275825E-01  0.36820917464E+02  0.00000000000E+00 0. -1.
         11    1    4    4    0    0 -0.43884796574E+01  0.43811387479E+01  0.14807978461E+02  0.16053951439E+02  0.51100000000E-03 0. -1.
        -11    1    4    4    0    0 -0.20491694496E+02  0.14472814261E+01 -0.16323454545E+02  0.26238508635E+02  0.51100000000E-03 0.  1.
        -12    1    4    4    0    0 -0.11768271276E+02 -0.22690410175E+01  0.14682478084E+01  0.12074622462E+02  0.00000000000E+00 0.  1.
</event>
<event>
 8    1  0.2472977E-006  0.9118800E+02  0.7816164E-02  0.1184000E+00
        -11   -1    0    0    0    0  0.00000000000E+00  0.00000000000E+00  0.45593999997E+02  0.45594000000E+02  0.51100000000E-03 0. -1.
         11   -1    0    0    0    0 -0.00000000000E+00 -0.00000000000E+00 -0.45593999997E+02  0.45594000000E+02  0.51100000000E-03 0.  1.
         23    2    1    2    0    0  0.00000000000E+00  0.17763568394E-14  0.35527136788E-14  0.91188000000E+02  0.91188000000E+02 0.  0.
    9900012    2    3    3    0    0  0.27670877485E+02  0.10880088391E+02  0.21719262972E+02  0.54367079748E+02  0.39999989901E+02 0.  0.
        -12    1    3    3    0    0 -0.27670877485E+02 -0.10880088391E+02 -0.21719262972E+02  0.36820920252E+02  0.00000000000E+00 0.  1.
         11    1    4    4    0    0  0.89525878617E+01 -0.10928512258E+02  0.11909828344E+02  0.18477695231E+02  0.51100000000E-03 0. -1.
        -11    1    4    4    0    0  0.18802198190E+02  0.10773844995E+02  0.86987105189E+00  0.21687670891E+02  0.51100000000E-03 0.  1.
         12    1    4    4    0    0 -0.83908567399E-01  0.11034755654E+02  0.89395635767E+01  0.14201713626E+02  0.00000000000E+00 0. -1.
</event>
<event>
 8    1  0.2472977E-006  0.9118800E+02  0.7816164E-02  0.1184000E+00
        -11   -1    0    0    0    0  0.00000000000E+00  0.00000000000E+00  0.45593999997E+02  0.45594000000E+02  0.51100000000E-03 0.  1.
         11   -1    0    0    0    0 -0.00000000000E+00 -0.00000000000E+00 -0.45593999997E+02  0.45594000000E+02  0.51100000000E-03 0. -1.
         23    2    1    2    0    0  0.00000000000E+00  0.17763568394E-14 -0.35527136788E-14  0.91188000000E+02  0.91188000000E+02 0.  0.
    9900012    2    3    3    0    0 -0.23981002856E+02  0.83424005293E+01 -0.26666401807E+02  0.54367066689E+02  0.39999960131E+02 0.  0.
        -12    1    3    3    0    0  0.23981002856E+02 -0.83424005293E+01  0.26666401807E+02  0.36820933311E+02  0.00000000000E+00 0.  1.
         11    1    4    4    0    0 -0.15964626832E+02 -0.12371716820E+02 -0.99905762387E+01  0.22533093458E+02  0.51100000000E-03 0. -1.
        -11    1    4    4    0    0 -0.13977583079E+01 -0.25447208151E+01 -0.13293317135E+01  0.31931889045E+01  0.51100000000E-03 0.  1.
        -12    1    4    4    0    0 -0.66186177167E+01  0.23258838164E+02 -0.15346493854E+02  0.28640784326E+02  0.00000000000E+00 0.  1.
</event>
<event>
 8    1  0.2472977E-006  0.9118800E+02  0.7816164E-02  0.1184000E+00
        -11   -1    0    0    0    0  0.00000000000E+00  0.00000000000E+00  0.45593999997E+02  0.45594000000E+02  0.51100000000E-03 0.  1.
         11   -1    0    0    0    0 -0.00000000000E+00 -0.00000000000E+00 -0.45593999997E+02  0.45594000000E+02  0.51100000000E-03 0. -1.
         23    2    1    2    0    0  0.00000000000E+00  0.00000000000E+00  0.00000000000E+00  0.91188000000E+02  0.91188000000E+02 0.  0.
    9900012    2    3    3    0    0 -0.10240647174E+02 -0.34561551184E+02 -0.75105438486E+01  0.54367082797E+02  0.39999996852E+02 0.  0.
        -12    1    3    3    0    0  0.10240647174E+02  0.34561551184E+02  0.75105438486E+01  0.36820917203E+02  0.00000000000E+00 0.  1.
         11    1    4    4    0    0 -0.12873603760E+02 -0.10111510065E+02  0.32847099136E+01  0.16696156116E+02  0.51100000000E-03 0. -1.
        -11    1    4    4    0    0 -0.52687244224E+01 -0.11591374699E+02  0.68445878068E+01  0.14455718832E+02  0.51100000000E-03 0.  1.
        -12    1    4    4    0    0  0.79016810092E+01 -0.12858666420E+02 -0.17639841569E+02  0.23215207849E+02  0.00000000000E+00 0.  1.
</event>
<event>
 8    1  0.2472977E-006  0.9118800E+02  0.7816164E-02  0.1184000E+00
        -11   -1    0    0    0    0  0.00000000000E+00  0.00000000000E+00  0.45593999997E+02  0.45594000000E+02  0.51100000000E-03 0. -1.
         11   -1    0    0    0    0 -0.00000000000E+00 -0.00000000000E+00 -0.45593999997E+02  0.45594000000E+02  0.51100000000E-03 0.  1.
         23    2    1    2    0    0  0.00000000000E+00  0.17763568394E-14  0.00000000000E+00  0.91188000000E+02  0.91188000000E+02 0.  0.
    9900012    2    3    3    0    0 -0.15071261794E+02 -0.13762729665E+02  0.30646744001E+02  0.54367101345E+02  0.40000039135E+02 0.  0.
        -12    1    3    3    0    0  0.15071261794E+02  0.13762729665E+02 -0.30646744001E+02  0.36820898655E+02  0.00000000000E+00 0.  1.
         11    1    4    4    0    0  0.69252675048E+01  0.18201487772E+01  0.16919518063E+02  0.18372326019E+02  0.51100000000E-03 0. -1.
        -11    1    4    4    0    0 -0.66634788248E+01  0.36018517619E+01 -0.53696813711E+00  0.75936566426E+01  0.51100000000E-03 0.  1.
        -12    1    4    4    0    0 -0.15333050474E+02 -0.19184730204E+02  0.14264194076E+02  0.28401118683E+02  0.00000000000E+00 0.  1.
</event>
<event>
 8    1  0.2472977E-006  0.9118800E+02  0.7816164E-02  0.1184000E+00
        -11   -1    0    0    0    0  0.00000000000E+00  0.00000000000E+00  0.45593999997E+02  0.45594000000E+02  0.51100000000E-03 0. -1.
         11   -1    0    0    0    0 -0.00000000000E+00 -0.00000000000E+00 -0.45593999997E+02  0.45594000000E+02  0.51100000000E-03 0.  1.
         23    2    1    2    0    0  0.00000000000E+00  0.17763568394E-14  0.88817841970E-15  0.91188000000E+02  0.91188000000E+02 0.  0.
    9900012    2    3    3    0    0  0.35258608565E+02 -0.86541701885E+01 -0.61412563011E+01  0.54367093322E+02  0.40000020847E+02 0.  0.
        -12    1    3    3    0    0 -0.35258608565E+02  0.86541701885E+01  0.61412563011E+01  0.36820906678E+02  0.00000000000E+00 0.  1.
         11    1    4    4    0    0  0.22782238691E+02 -0.30270103670E+01 -0.54969188560E+01  0.23630685743E+02  0.51100000000E-03 0. -1.
        -11    1    4    4    0    0 -0.36770801430E+01 -0.12594255581E+02  0.24068650477E+00  0.13122275804E+02  0.51100000000E-03 0.  1.
        -12    1    4    4    0    0  0.16153450018E+02  0.69670957597E+01 -0.88502394992E+00  0.17614131775E+02  0.00000000000E+00 0.  1.
</event>
<event>
 8    1  0.2472977E-006  0.9118800E+02  0.7816164E-02  0.1184000E+00
        -11   -1    0    0    0    0  0.00000000000E+00  0.00000000000E+00  0.45593999997E+02  0.45594000000E+02  0.51100000000E-03 0.  1.
         11   -1    0    0    0    0 -0.00000000000E+00 -0.00000000000E+00 -0.45593999997E+02  0.45594000000E+02  0.51100000000E-03 0. -1.
         23    2    1    2    0    0  0.00000000000E+00 -0.88817841970E-15 -0.71054273576E-14  0.91188000000E+02  0.91188000000E+02 0.  0.
    9900012    2    3    3    0    0 -0.11805983298E+02 -0.66290815027E+01 -0.34241093899E+02  0.54367102745E+02  0.40000042329E+02 0.  0.
        -12    1    3    3    0    0  0.11805983298E+02  0.66290815027E+01  0.34241093899E+02  0.36820897255E+02  0.00000000000E+00 0.  1.
         11    1    4    4    0    0  0.45762658046E+00 -0.21865026106E+02 -0.20891504485E+02  0.30244730923E+02  0.51100000000E-03 0. -1.
        -11    1    4    4    0    0 -0.15297645815E+01  0.38795583971E+01 -0.12328251864E+01  0.43486792515E+01  0.51100000000E-03 0.  1.
         12    1    4    4    0    0 -0.10733845297E+02  0.11356386206E+02 -0.12116764228E+02  0.19773692571E+02  0.00000000000E+00 0. -1.
</event>
<event>
 8    1  0.2472977E-006  0.9118800E+02  0.7816164E-02  0.1184000E+00
        -11   -1    0    0    0    0  0.00000000000E+00  0.00000000000E+00  0.45593999997E+02  0.45594000000E+02  0.51100000000E-03 0. -1.
         11   -1    0    0    0    0 -0.00000000000E+00 -0.00000000000E+00 -0.45593999997E+02  0.45594000000E+02  0.51100000000E-03 0.  1.
         23    2    1    2    0    0  0.88817841970E-15  0.00000000000E+00  0.00000000000E+00  0.91188000000E+02  0.91188000000E+02 0.  0.
    9900012    2    3    3    0    0  0.71910094917E+01  0.59758542106E+01  0.35613966439E+02  0.54367135581E+02  0.40000117183E+02 0.  0.
        -12    1    3    3    0    0 -0.71910094917E+01 -0.59758542106E+01 -0.35613966439E+02  0.36820864419E+02  0.00000000000E+00 0.  1.
         11    1    4    4    0    0 -0.60176531009E+01  0.10304031848E+02  0.97694708654E+01  0.15421666007E+02  0.51100000000E-03 0. -1.
        -11    1    4    4    0    0  0.46617820005E+01 -0.10867284293E+02  0.99611299658E+00  0.11866858080E+02  0.51100000000E-03 0.  1.
         12    1    4    4    0    0  0.85468805921E+01  0.65391066554E+01  0.24848382577E+02  0.27078611493E+02  0.00000000000E+00 0. -1.
</event>
<event>
 8    1  0.2472977E-006  0.9118800E+02  0.7816164E-02  0.1184000E+00
        -11   -1    0    0    0    0  0.00000000000E+00  0.00000000000E+00  0.45593999997E+02  0.45594000000E+02  0.51100000000E-03 0.  1.
         11   -1    0    0    0    0 -0.00000000000E+00 -0.00000000000E+00 -0.45593999997E+02  0.45594000000E+02  0.51100000000E-03 0. -1.
         23    2    1    2    0    0 -0.71054273576E-14  0.00000000000E+00  0.17763568394E-14  0.91188000000E+02  0.91188000000E+02 0.  0.
    9900012    2    3    3    0    0  0.22961772872E+02  0.26474166504E+02 -0.11298452027E+02  0.54367088500E+02  0.40000009853E+02 0.  0.
        -12    1    3    3    0    0 -0.22961772872E+02 -0.26474166504E+02  0.11298452027E+02  0.36820911500E+02  0.00000000000E+00 0.  1.
         11    1    4    4    0    0  0.75009499038E+01  0.40873417903E+01 -0.13722090486E+02  0.16163736571E+02  0.51100000000E-03 0. -1.
        -11    1    4    4    0    0 -0.75174661067E+01  0.81859265409E+01  0.71947466757E+00  0.11137294737E+02  0.51100000000E-03 0.  1.
        -12    1    4    4    0    0  0.22978289074E+02  0.14200898173E+02  0.17041637916E+01  0.27066057192E+02  0.00000000000E+00 0.  1.
</event>
<event>
 8    1  0.2472977E-006  0.9118800E+02  0.7816164E-02  0.1184000E+00
        -11   -1    0    0    0    0  0.00000000000E+00  0.00000000000E+00  0.45593999997E+02  0.45594000000E+02  0.51100000000E-03 0. -1.
         11   -1    0    0    0    0 -0.00000000000E+00 -0.00000000000E+00 -0.45593999997E+02  0.45594000000E+02  0.51100000000E-03 0.  1.
         23    2    1    2    0    0  0.35527136788E-14  0.00000000000E+00  0.00000000000E+00  0.91188000000E+02  0.91188000000E+02 0.  0.
    9900012    2    3    3    0    0  0.22638423749E+02  0.87641150790E+01 -0.27685233071E+02  0.54367081039E+02  0.39999992844E+02 0.  0.
         12    1    3    3    0    0 -0.22638423749E+02 -0.87641150790E+01  0.27685233071E+02  0.36820918961E+02  0.00000000000E+00 0. -1.
         11    1    4    4    0    0  0.18896726741E+02  0.81379825424E+01 -0.36843264652E+01  0.20901849276E+02  0.51100000000E-03 0. -1.
        -11    1    4    4    0    0 -0.77713821033E+01 -0.43284831993E+01 -0.16800809968E+02  0.19010454031E+02  0.51100000000E-03 0.  1.
        -12    1    4    4    0    0  0.11513079111E+02  0.49546157359E+01 -0.72000966375E+01  0.14454777733E+02  0.00000000000E+00 0.  1.
</event>
<event>
 8    1  0.2472977E-006  0.9118800E+02  0.7816164E-02  0.1184000E+00
        -11   -1    0    0    0    0  0.00000000000E+00  0.00000000000E+00  0.45593999997E+02  0.45594000000E+02  0.51100000000E-03 0.  1.
         11   -1    0    0    0    0 -0.00000000000E+00 -0.00000000000E+00 -0.45593999997E+02  0.45594000000E+02  0.51100000000E-03 0. -1.
         23    2    1    2    0    0 -0.35527136788E-14  0.00000000000E+00  0.00000000000E+00  0.91188000000E+02  0.91188000000E+02 0.  0.
    9900012    2    3    3    0    0  0.24776754137E+02  0.12074809984E+02  0.24415007224E+02  0.54367066288E+02  0.39999959216E+02 0.  0.
         12    1    3    3    0    0 -0.24776754137E+02 -0.12074809984E+02 -0.24415007224E+02  0.36820933712E+02  0.00000000000E+00 0. -1.
         11    1    4    4    0    0  0.99355955548E+01  0.11923960366E+02  0.26805237762E+01  0.15750622140E+02  0.51100000000E-03 0. -1.
        -11    1    4    4    0    0  0.90906320717E+01 -0.13683393962E+02  0.79187604999E+01  0.18236820718E+02  0.51100000000E-03 0.  1.
        -12    1    4    4    0    0  0.57505265108E+01  0.13834243580E+02  0.13815722948E+02  0.20379623430E+02  0.00000000000E+00 0.  1.
</event>
<event>
 8    1  0.2472977E-006  0.9118800E+02  0.7816164E-02  0.1184000E+00
        -11   -1    0    0    0    0  0.00000000000E+00  0.00000000000E+00  0.45593999997E+02  0.45594000000E+02  0.51100000000E-03 0. -1.
         11   -1    0    0    0    0 -0.00000000000E+00 -0.00000000000E+00 -0.45593999997E+02  0.45594000000E+02  0.51100000000E-03 0.  1.
         23    2    1    2    0    0  0.00000000000E+00  0.00000000000E+00  0.00000000000E+00  0.91188000000E+02  0.91188000000E+02 0.  0.
    9900012    2    3    3    0    0 -0.22005998413E+02 -0.11571433312E+02 -0.27159120498E+02  0.54367083916E+02  0.39999999404E+02 0.  0.
         12    1    3    3    0    0  0.22005998413E+02  0.11571433312E+02  0.27159120498E+02  0.36820916084E+02  0.00000000000E+00 0. -1.
         11    1    4    4    0    0  0.70417657442E+01  0.60822903961E+00  0.28141277291E+01  0.76076095127E+01  0.51100000000E-03 0. -1.
        -11    1    4    4    0    0 -0.29972656396E+01 -0.74096740249E+01 -0.13136374772E+02  0.15376970211E+02  0.51100000000E-03 0.  1.
         12    1    4    4    0    0 -0.26050498517E+02 -0.47699883263E+01 -0.16836873456E+02  0.31382504192E+02  0.00000000000E+00 0. -1.
</event>
<event>
 8    1  0.2472977E-006  0.9118800E+02  0.7816164E-02  0.1184000E+00
        -11   -1    0    0    0    0  0.00000000000E+00  0.00000000000E+00  0.45593999997E+02  0.45594000000E+02  0.51100000000E-03 0. -1.
         11   -1    0    0    0    0 -0.00000000000E+00 -0.00000000000E+00 -0.45593999997E+02  0.45594000000E+02  0.51100000000E-03 0.  1.
         23    2    1    2    0    0  0.00000000000E+00 -0.88817841970E-15  0.71054273576E-14  0.91188000000E+02  0.91188000000E+02 0.  0.
    9900012    2    3    3    0    0 -0.17654848728E+02  0.12033079873E+01  0.32289915355E+02  0.54367078402E+02  0.39999986832E+02 0.  0.
        -12    1    3    3    0    0  0.17654848728E+02 -0.12033079873E+01 -0.32289915355E+02  0.36820921598E+02  0.00000000000E+00 0.  1.
         11    1    4    4    0    0 -0.15942846419E+02  0.12200531136E+00  0.20194283794E+02  0.25729328313E+02  0.51100000000E-03 0. -1.
        -11    1    4    4    0    0  0.72822487860E+01  0.51794668754E+01  0.15742880831E+02  0.18102384418E+02  0.51100000000E-03 0.  1.
        -12    1    4    4    0    0 -0.89942510953E+01 -0.40981641995E+01 -0.36472492703E+01  0.10535365670E+02  0.00000000000E+00 0.  1.
</event>
<event>
 8    1  0.2472977E-006  0.9118800E+02  0.7816164E-02  0.1184000E+00
        -11   -1    0    0    0    0  0.00000000000E+00  0.00000000000E+00  0.45593999997E+02  0.45594000000E+02  0.51100000000E-03 0.  1.
         11   -1    0    0    0    0 -0.00000000000E+00 -0.00000000000E+00 -0.45593999997E+02  0.45594000000E+02  0.51100000000E-03 0. -1.
         23    2    1    2    0    0  0.00000000000E+00  0.00000000000E+00  0.00000000000E+00  0.91188000000E+02  0.91188000000E+02 0.  0.
    9900012    2    3    3    0    0  0.51557725829E+01  0.60358784640E+00  0.36453074316E+02  0.54367177952E+02  0.40000213775E+02 0.  0.
         12    1    3    3    0    0 -0.51557725829E+01 -0.60358784640E+00 -0.36453074316E+02  0.36820822048E+02  0.00000000000E+00 0. -1.
         11    1    4    4    0    0  0.11433194736E+02 -0.55044865252E+01  0.17331346344E+02  0.21480057731E+02  0.51100000000E-03 0.  1.
        -11    1    4    4    0    0  0.44332435542E+01  0.13113178280E+02  0.84014848833E+01  0.16192406909E+02  0.51100000000E-03 0. -1.
         12    1    4    4    0    0 -0.10710665707E+02 -0.70051039080E+01  0.10720243089E+02  0.16694713311E+02  0.00000000000E+00 0. -1.
</event>
<event>
 8    1  0.2472977E-006  0.9118800E+02  0.7816164E-02  0.1184000E+00
        -11   -1    0    0    0    0  0.00000000000E+00  0.00000000000E+00  0.45593999997E+02  0.45594000000E+02  0.51100000000E-03 0.  1.
         11   -1    0    0    0    0 -0.00000000000E+00 -0.00000000000E+00 -0.45593999997E+02  0.45594000000E+02  0.51100000000E-03 0. -1.
         23    2    1    2    0    0 -0.35527136788E-14  0.35527136788E-14  0.00000000000E+00  0.91188000000E+02  0.91188000000E+02 0.  0.
    9900012    2    3    3    0    0  0.16141211347E+02 -0.27903147091E+02 -0.17794813109E+02  0.54367086175E+02  0.40000004553E+02 0.  0.
        -12    1    3    3    0    0 -0.16141211347E+02  0.27903147091E+02  0.17794813109E+02  0.36820913825E+02  0.00000000000E+00 0.  1.
         11    1    4    4    0    0 -0.25846590950E+01 -0.44074550480E+01 -0.12715724132E+02  0.13703859423E+02  0.51100000000E-03 0. -1.
        -11    1    4    4    0    0  0.19511681421E+02 -0.24197352085E+02  0.41627502681E+01  0.31361537747E+02  0.51100000000E-03 0.  1.
        -12    1    4    4    0    0 -0.78581097868E+00  0.70166004193E+00 -0.92418392452E+01  0.93016890048E+01  0.00000000000E+00 0.  1.
</event>
<event>
 8    1  0.2472977E-006  0.9118800E+02  0.7816164E-02  0.1184000E+00
        -11   -1    0    0    0    0  0.00000000000E+00  0.00000000000E+00  0.45593999997E+02  0.45594000000E+02  0.51100000000E-03 0.  1.
         11   -1    0    0    0    0 -0.00000000000E+00 -0.00000000000E+00 -0.45593999997E+02  0.45594000000E+02  0.51100000000E-03 0. -1.
         23    2    1    2    0    0 -0.88817841970E-15  0.00000000000E+00 -0.71054273576E-14  0.91188000000E+02  0.91188000000E+02 0.  0.
    9900012    2    3    3    0    0 -0.69982996256E+01  0.80588279136E+01  0.35240012004E+02  0.54367090844E+02  0.40000015198E+02 0.  0.
         12    1    3    3    0    0  0.69982996256E+01 -0.80588279136E+01 -0.35240012004E+02  0.36820909156E+02  0.00000000000E+00 0. -1.
         11    1    4    4    0    0  0.13264149017E+02  0.12310687460E+02  0.21777585089E+02  0.28315258916E+02  0.51100000000E-03 0. -1.
        -11    1    4    4    0    0 -0.38315398847E+01 -0.20262059731E+01 -0.51593170894E+00  0.43649048470E+01  0.51100000000E-03 0.  1.
         12    1    4    4    0    0 -0.16430908758E+02 -0.22256535735E+01  0.13978358624E+02  0.21686927082E+02  0.00000000000E+00 0. -1.
</event>
<event>
 8    1  0.2472977E-006  0.9118800E+02  0.7816164E-02  0.1184000E+00
        -11   -1    0    0    0    0  0.00000000000E+00  0.00000000000E+00  0.45593999997E+02  0.45594000000E+02  0.51100000000E-03 0. -1.
         11   -1    0    0    0    0 -0.00000000000E+00 -0.00000000000E+00 -0.45593999997E+02  0.45594000000E+02  0.51100000000E-03 0.  1.
         23    2    1    2    0    0  0.00000000000E+00  0.17763568394E-14  0.17763568394E-14  0.91188000000E+02  0.91188000000E+02 0.  0.
    9900012    2    3    3    0    0 -0.35497068773E+02  0.84964605780E+01  0.48525268717E+01  0.54367098994E+02  0.40000033777E+02 0.  0.
        -12    1    3    3    0    0  0.35497068773E+02 -0.84964605780E+01 -0.48525268717E+01  0.36820901006E+02  0.00000000000E+00 0.  1.
         11    1    4    4    0    0  0.27325590669E+00  0.55738909814E+01  0.13930124131E+02  0.15006374913E+02  0.51100000000E-03 0. -1.
        -11    1    4    4    0    0 -0.15805485012E+02 -0.26384601444E+01 -0.95055715858E+01  0.18631444384E+02  0.51100000000E-03 0.  1.
         12    1    4    4    0    0 -0.19964839668E+02  0.55610297410E+01  0.42797432694E+00  0.20729279698E+02  0.00000000000E+00 0. -1.
</event>
<event>
 8    1  0.2472977E-006  0.9118800E+02  0.7816164E-02  0.1184000E+00
        -11   -1    0    0    0    0  0.00000000000E+00  0.00000000000E+00  0.45593999997E+02  0.45594000000E+02  0.51100000000E-03 0.  1.
         11   -1    0    0    0    0 -0.00000000000E+00 -0.00000000000E+00 -0.45593999997E+02  0.45594000000E+02  0.51100000000E-03 0. -1.
         23    2    1    2    0    0  0.00000000000E+00 -0.88817841970E-15  0.00000000000E+00  0.91188000000E+02  0.91188000000E+02 0.  0.
    9900012    2    3    3    0    0  0.20558880521E+02  0.68229932247E+01  0.29775102697E+02  0.54367115363E+02  0.40000071093E+02 0.  0.
         12    1    3    3    0    0 -0.20558880521E+02 -0.68229932247E+01 -0.29775102697E+02  0.36820884637E+02  0.00000000000E+00 0. -1.
         11    1    4    4    0    0  0.96058466638E+01 -0.52716762282E+01  0.62519698670E+01  0.12615466217E+02  0.51100000000E-03 0. -1.
        -11    1    4    4    0    0  0.57059823610E+01 -0.23670404309E+01 -0.59044556163E+01  0.85453912427E+01  0.51100000000E-03 0.  1.
        -12    1    4    4    0    0  0.52470514963E+01  0.14461709884E+02  0.29427588447E+02  0.33206257904E+02  0.00000000000E+00 0.  1.
</event>
<event>
 8    1  0.2472977E-006  0.9118800E+02  0.7816164E-02  0.1184000E+00
        -11   -1    0    0    0    0  0.00000000000E+00  0.00000000000E+00  0.45593999997E+02  0.45594000000E+02  0.51100000000E-03 0.  1.
         11   -1    0    0    0    0 -0.00000000000E+00 -0.00000000000E+00 -0.45593999997E+02  0.45594000000E+02  0.51100000000E-03 0. -1.
         23    2    1    2    0    0  0.00000000000E+00  0.71054273576E-14 -0.88817841970E-15  0.91188000000E+02  0.91188000000E+02 0.  0.
    9900012    2    3    3    0    0 -0.78125568705E+01 -0.35425382899E+02  0.63076083853E+01  0.54367085808E+02  0.40000003717E+02 0.  0.
        -12    1    3    3    0    0  0.78125568705E+01  0.35425382899E+02 -0.63076083853E+01  0.36820914192E+02  0.00000000000E+00 0.  1.
         11    1    4    4    0    0  0.29429758248E+01 -0.14687166106E+02  0.17538373182E+02  0.23064442092E+02  0.51100000000E-03 0.  1.
        -11    1    4    4    0    0  0.47737448813E+01 -0.29811632897E+01 -0.20726153126E+01  0.59976419739E+01  0.51100000000E-03 0. -1.
        -12    1    4    4    0    0 -0.15529277577E+02 -0.17757053504E+02 -0.91581494837E+01  0.25305001742E+02  0.00000000000E+00 0.  1.
</event>
<event>
 8    1  0.2472977E-006  0.9118800E+02  0.7816164E-02  0.1184000E+00
        -11   -1    0    0    0    0  0.00000000000E+00  0.00000000000E+00  0.45593999997E+02  0.45594000000E+02  0.51100000000E-03 0.  1.
         11   -1    0    0    0    0 -0.00000000000E+00 -0.00000000000E+00 -0.45593999997E+02  0.45594000000E+02  0.51100000000E-03 0. -1.
         23    2    1    2    0    0  0.17763568394E-14 -0.35527136788E-14 -0.35527136788E-14  0.91188000000E+02  0.91188000000E+02 0.  0.
    9900012    2    3    3    0    0  0.15957893110E+02  0.27082782207E+02  0.19174081902E+02  0.54367124652E+02  0.40000092270E+02 0.  0.
         12    1    3    3    0    0 -0.15957893110E+02 -0.27082782207E+02 -0.19174081902E+02  0.36820875348E+02  0.00000000000E+00 0. -1.
         11    1    4    4    0    0 -0.79059114752E+01  0.14065079742E+02 -0.17603111498E+01  0.16230483666E+02  0.51100000000E-03 0. -1.
        -11    1    4    4    0    0  0.56922881733E+01  0.68920662710E+00 -0.22903815324E+01  0.61743824183E+01  0.51100000000E-03 0.  1.
        -12    1    4    4    0    0  0.18171516412E+02  0.12328495837E+02  0.23224774584E+02  0.31962258569E+02  0.00000000000E+00 0.  1.
</event>
<event>
 8    1  0.2472977E-006  0.9118800E+02  0.7816164E-02  0.1184000E+00
        -11   -1    0    0    0    0  0.00000000000E+00  0.00000000000E+00  0.45593999997E+02  0.45594000000E+02  0.51100000000E-03 0.  1.
         11   -1    0    0    0    0 -0.00000000000E+00 -0.00000000000E+00 -0.45593999997E+02  0.45594000000E+02  0.51100000000E-03 0. -1.
         23    2    1    2    0    0 -0.35527136788E-14 -0.35527136788E-14  0.00000000000E+00  0.91188000000E+02  0.91188000000E+02 0.  0.
    9900012    2    3    3    0    0 -0.18797010314E+02 -0.90629074871E+01 -0.30336690060E+02  0.54367100328E+02  0.40000036817E+02 0.  0.
        -12    1    3    3    0    0  0.18797010314E+02  0.90629074871E+01  0.30336690060E+02  0.36820899672E+02  0.00000000000E+00 0.  1.
         11    1    4    4    0    0  0.11015339473E+01  0.26800440960E+01 -0.16455885413E+02  0.16709044807E+02  0.51100000000E-03 0. -1.
        -11    1    4    4    0    0 -0.15347642154E+01  0.51590930244E+01  0.42096285155E+01  0.68332067531E+01  0.51100000000E-03 0.  1.
         12    1    4    4    0    0 -0.18363780046E+02 -0.16902044608E+02 -0.18090433163E+02  0.30824848767E+02  0.00000000000E+00 0. -1.
</event>
<event>
 8    1  0.2472977E-006  0.9118800E+02  0.7816164E-02  0.1184000E+00
        -11   -1    0    0    0    0  0.00000000000E+00  0.00000000000E+00  0.45593999997E+02  0.45594000000E+02  0.51100000000E-03 0.  1.
         11   -1    0    0    0    0 -0.00000000000E+00 -0.00000000000E+00 -0.45593999997E+02  0.45594000000E+02  0.51100000000E-03 0. -1.
         23    2    1    2    0    0  0.35527136788E-14  0.17763568394E-14  0.00000000000E+00  0.91188000000E+02  0.91188000000E+02 0.  0.
    9900012    2    3    3    0    0  0.30237959259E+02 -0.10648185317E+02  0.18112475607E+02  0.54367084703E+02  0.40000001196E+02 0.  0.
        -12    1    3    3    0    0 -0.30237959259E+02  0.10648185317E+02 -0.18112475607E+02  0.36820915297E+02  0.00000000000E+00 0.  1.
         11    1    4    4    0    0  0.20671361792E+02  0.97306804928E+01 -0.61814197191E+00  0.22855490389E+02  0.51100000000E-03 0. -1.
        -11    1    4    4    0    0  0.38969584332E+01 -0.10704573858E+02  0.16544602210E+02  0.20087260865E+02  0.51100000000E-03 0.  1.
        -12    1    4    4    0    0  0.56696390342E+01 -0.96742919514E+01  0.21860153698E+01  0.11424333448E+02  0.00000000000E+00 0.  1.
</event>
<event>
 8    1  0.2472977E-006  0.9118800E+02  0.7816164E-02  0.1184000E+00
        -11   -1    0    0    0    0  0.00000000000E+00  0.00000000000E+00  0.45593999997E+02  0.45594000000E+02  0.51100000000E-03 0.  1.
         11   -1    0    0    0    0 -0.00000000000E+00 -0.00000000000E+00 -0.45593999997E+02  0.45594000000E+02  0.51100000000E-03 0. -1.
         23    2    1    2    0    0  0.00000000000E+00 -0.17763568394E-14 -0.35527136788E-14  0.91188000000E+02  0.91188000000E+02 0.  0.
    9900012    2    3    3    0    0 -0.18901839733E+02  0.12359990555E+02  0.29081455983E+02  0.54367082115E+02  0.39999995298E+02 0.  0.
         12    1    3    3    0    0  0.18901839733E+02 -0.12359990555E+02 -0.29081455983E+02  0.36820917885E+02  0.00000000000E+00 0. -1.
         11    1    4    4    0    0 -0.13981715848E+02 -0.11345142299E+02  0.54658746260E+01  0.18816918386E+02  0.51100000000E-03 0. -1.
        -11    1    4    4    0    0 -0.62982692618E+00  0.36677910047E+01  0.10698268215E+02  0.11327061220E+02  0.51100000000E-03 0.  1.
        -12    1    4    4    0    0 -0.42902969584E+01  0.20037341849E+02  0.12917313141E+02  0.24223102509E+02  0.00000000000E+00 0.  1.
</event>
<event>
 8    1  0.2472977E-006  0.9118800E+02  0.7816164E-02  0.1184000E+00
        -11   -1    0    0    0    0  0.00000000000E+00  0.00000000000E+00  0.45593999997E+02  0.45594000000E+02  0.51100000000E-03 0.  1.
         11   -1    0    0    0    0 -0.00000000000E+00 -0.00000000000E+00 -0.45593999997E+02  0.45594000000E+02  0.51100000000E-03 0. -1.
         23    2    1    2    0    0 -0.17763568394E-14 -0.11102230246E-15  0.71054273576E-14  0.91188000000E+02  0.91188000000E+02 0.  0.
    9900012    2    3    3    0    0 -0.14926810561E+02 -0.90679309193E+00  0.33647425289E+02  0.54367066066E+02  0.39999958710E+02 0.  0.
         12    1    3    3    0    0  0.14926810561E+02  0.90679309193E+00 -0.33647425289E+02  0.36820933934E+02  0.00000000000E+00 0. -1.
         11    1    4    4    0    0  0.28746438750E+01  0.14245394943E+02  0.16225758719E+02  0.21782334603E+02  0.51100000000E-03 0. -1.
        -11    1    4    4    0    0 -0.50138722235E+01  0.13114736055E+01  0.83994952369E+01  0.98696706221E+01  0.51100000000E-03 0.  1.
         12    1    4    4    0    0 -0.12787582212E+02 -0.16463661640E+02  0.90221713329E+01  0.22715060841E+02  0.00000000000E+00 0. -1.
</event>
<event>
 8    1  0.2472977E-006  0.9118800E+02  0.7816164E-02  0.1184000E+00
        -11   -1    0    0    0    0  0.00000000000E+00  0.00000000000E+00  0.45593999997E+02  0.45594000000E+02  0.51100000000E-03 0. -1.
         11   -1    0    0    0    0 -0.00000000000E+00 -0.00000000000E+00 -0.45593999997E+02  0.45594000000E+02  0.51100000000E-03 0.  1.
         23    2    1    2    0    0  0.00000000000E+00  0.00000000000E+00  0.00000000000E+00  0.91188000000E+02  0.91188000000E+02 0.  0.
    9900012    2    3    3    0    0  0.26109245543E+01 -0.69996845067E+00 -0.36721558799E+02  0.54367085244E+02  0.40000002430E+02 0.  0.
         12    1    3    3    0    0 -0.26109245543E+01  0.69996845067E+00  0.36721558799E+02  0.36820914756E+02  0.00000000000E+00 0. -1.
         11    1    4    4    0    0  0.38021602004E+01  0.15286448115E+02 -0.72162062559E+01  0.17326440811E+02  0.51100000000E-03 0. -1.
        -11    1    4    4    0    0 -0.39413078348E+01  0.18182329277E+01 -0.49191967248E+01  0.65603639462E+01  0.51100000000E-03 0.  1.
         12    1    4    4    0    0  0.27500721887E+01 -0.17804649494E+02 -0.24586155818E+02  0.30480280487E+02  0.00000000000E+00 0. -1.
</event>
<event>
 8    1  0.2472977E-006  0.9118800E+02  0.7816164E-02  0.1184000E+00
        -11   -1    0    0    0    0  0.00000000000E+00  0.00000000000E+00  0.45593999997E+02  0.45594000000E+02  0.51100000000E-03 0.  1.
         11   -1    0    0    0    0 -0.00000000000E+00 -0.00000000000E+00 -0.45593999997E+02  0.45594000000E+02  0.51100000000E-03 0. -1.
         23    2    1    2    0    0  0.00000000000E+00  0.88817841970E-15  0.00000000000E+00  0.91188000000E+02  0.91188000000E+02 0.  0.
    9900012    2    3    3    0    0 -0.36118717396E+02  0.63359967363E+01 -0.33276758060E+01  0.54367081662E+02  0.39999994266E+02 0.  0.
        -12    1    3    3    0    0  0.36118717396E+02 -0.63359967363E+01  0.33276758060E+01  0.36820918338E+02  0.00000000000E+00 0.  1.
         11    1    4    4    0    0 -0.19408732316E+02  0.12477254884E+02 -0.11599818979E+02  0.25825115298E+02  0.51100000000E-03 0. -1.
        -11    1    4    4    0    0 -0.45504372801E+01  0.64742310026E+01 -0.20911821390E+01  0.81850589194E+01  0.51100000000E-03 0.  1.
        -12    1    4    4    0    0 -0.12159547800E+02 -0.12615489150E+02  0.10363325312E+02  0.20356907445E+02  0.00000000000E+00 0.  1.
</event>
<event>
 8    1  0.2472977E-006  0.9118800E+02  0.7816164E-02  0.1184000E+00
        -11   -1    0    0    0    0  0.00000000000E+00  0.00000000000E+00  0.45593999997E+02  0.45594000000E+02  0.51100000000E-03 0.  1.
         11   -1    0    0    0    0 -0.00000000000E+00 -0.00000000000E+00 -0.45593999997E+02  0.45594000000E+02  0.51100000000E-03 0. -1.
         23    2    1    2    0    0  0.71054273576E-14 -0.26645352591E-14  0.00000000000E+00  0.91188000000E+02  0.91188000000E+02 0.  0.
    9900012    2    3    3    0    0 -0.35279408155E+02  0.53871401709E+01 -0.90621296679E+01  0.54367080496E+02  0.39999991607E+02 0.  0.
        -12    1    3    3    0    0  0.35279408155E+02 -0.53871401709E+01  0.90621296679E+01  0.36820919504E+02  0.00000000000E+00 0.  1.
         11    1    4    4    0    0 -0.88509371783E+01 -0.40671558457E+00  0.67559674414E+01  0.11142154317E+02  0.51100000000E-03 0.  1.
        -11    1    4    4    0    0 -0.12351841801E+01 -0.10236896075E+02 -0.30888089998E+01  0.10763849800E+02  0.51100000000E-03 0. -1.
        -12    1    4    4    0    0 -0.25193286797E+02  0.16030751831E+02 -0.12729288109E+02  0.32461076379E+02  0.00000000000E+00 0.  1.
</event>
<event>
 8    1  0.2472977E-006  0.9118800E+02  0.7816164E-02  0.1184000E+00
        -11   -1    0    0    0    0  0.00000000000E+00  0.00000000000E+00  0.45593999997E+02  0.45594000000E+02  0.51100000000E-03 0.  1.
         11   -1    0    0    0    0 -0.00000000000E+00 -0.00000000000E+00 -0.45593999997E+02  0.45594000000E+02  0.51100000000E-03 0. -1.
         23    2    1    2    0    0  0.35527136788E-14  0.00000000000E+00  0.00000000000E+00  0.91188000000E+02  0.91188000000E+02 0.  0.
    9900012    2    3    3    0    0 -0.23344038908E+02 -0.23932936504E+02 -0.15428888783E+02  0.54367079163E+02  0.39999988568E+02 0.  0.
        -12    1    3    3    0    0  0.23344038908E+02  0.23932936504E+02  0.15428888783E+02  0.36820920837E+02  0.00000000000E+00 0.  1.
         11    1    4    4    0    0 -0.24803394456E+02 -0.11631350146E+02 -0.97683968697E+01  0.29084673979E+02  0.51100000000E-03 0.  1.
        -11    1    4    4    0    0 -0.65993541324E+01 -0.14715381051E+02 -0.26283684718E+01  0.16340203045E+02  0.51100000000E-03 0. -1.
         12    1    4    4    0    0  0.80587096810E+01  0.24137946938E+01 -0.30321234414E+01  0.89422021399E+01  0.00000000000E+00 0. -1.
</event>
<event>
 8    1  0.2472977E-006  0.9118800E+02  0.7816164E-02  0.1184000E+00
        -11   -1    0    0    0    0  0.00000000000E+00  0.00000000000E+00  0.45593999997E+02  0.45594000000E+02  0.51100000000E-03 0. -1.
         11   -1    0    0    0    0 -0.00000000000E+00 -0.00000000000E+00 -0.45593999997E+02  0.45594000000E+02  0.51100000000E-03 0.  1.
         23    2    1    2    0    0  0.00000000000E+00  0.00000000000E+00  0.71054273576E-14  0.91188000000E+02  0.91188000000E+02 0.  0.
    9900012    2    3    3    0    0  0.81166378394E+01  0.88863121836E+01  0.34798472751E+02  0.54367081219E+02  0.39999993256E+02 0.  0.
        -12    1    3    3    0    0 -0.81166378394E+01 -0.88863121836E+01 -0.34798472751E+02  0.36820918781E+02  0.00000000000E+00 0.  1.
         11    1    4    4    0    0  0.21272926333E+02  0.67839754119E+01  0.15872032653E+02  0.27394910804E+02  0.51100000000E-03 0. -1.
        -11    1    4    4    0    0  0.11746856776E+01  0.24955648591E+01 -0.52562866427E+00  0.28078490274E+01  0.51100000000E-03 0.  1.
        -12    1    4    4    0    0 -0.14330974171E+02 -0.39322808737E+00  0.19452068762E+02  0.24164321388E+02  0.00000000000E+00 0.  1.
</event>
<event>
 8    1  0.2472977E-006  0.9118800E+02  0.7816164E-02  0.1184000E+00
        -11   -1    0    0    0    0  0.00000000000E+00  0.00000000000E+00  0.45593999997E+02  0.45594000000E+02  0.51100000000E-03 0. -1.
         11   -1    0    0    0    0 -0.00000000000E+00 -0.00000000000E+00 -0.45593999997E+02  0.45594000000E+02  0.51100000000E-03 0.  1.
         23    2    1    2    0    0  0.00000000000E+00 -0.44408920985E-15  0.00000000000E+00  0.91188000000E+02  0.91188000000E+02 0.  0.
    9900012    2    3    3    0    0 -0.36320272662E+02 -0.27002762436E+01 -0.54153332844E+01  0.54367088379E+02  0.40000009578E+02 0.  0.
        -12    1    3    3    0    0  0.36320272662E+02  0.27002762436E+01  0.54153332844E+01  0.36820911621E+02  0.00000000000E+00 0.  1.
         11    1    4    4    0    0 -0.28010624322E+02 -0.59452266939E+01  0.94949301918E+01  0.30167772456E+02  0.51100000000E-03 0. -1.
        -11    1    4    4    0    0 -0.11180651711E+02 -0.26832610821E+01 -0.55860679963E+01  0.12783231933E+02  0.51100000000E-03 0.  1.
         12    1    4    4    0    0  0.28710033713E+01  0.59282115323E+01 -0.93241954800E+01  0.11416083991E+02  0.00000000000E+00 0. -1.
</event>
<event>
 8    1  0.2472977E-006  0.9118800E+02  0.7816164E-02  0.1184000E+00
        -11   -1    0    0    0    0  0.00000000000E+00  0.00000000000E+00  0.45593999997E+02  0.45594000000E+02  0.51100000000E-03 0. -1.
         11   -1    0    0    0    0 -0.00000000000E+00 -0.00000000000E+00 -0.45593999997E+02  0.45594000000E+02  0.51100000000E-03 0.  1.
         23    2    1    2    0    0 -0.35527136788E-14  0.00000000000E+00 -0.35527136788E-14  0.91188000000E+02  0.91188000000E+02 0.  0.
    9900012    2    3    3    0    0  0.18768833535E+02 -0.24415974636E+01  0.31584002568E+02  0.54367085717E+02  0.40000003509E+02 0.  0.
        -12    1    3    3    0    0 -0.18768833535E+02  0.24415974636E+01 -0.31584002568E+02  0.36820914283E+02  0.00000000000E+00 0.  1.
         11    1    4    4    0    0  0.18919443360E+02 -0.13288906891E+02  0.35705027428E+02  0.42536917699E+02  0.51100000000E-03 0. -1.
        -11    1    4    4    0    0  0.68065176354E+00  0.65120374346E+01 -0.15749111975E+01  0.67342604578E+01  0.51100000000E-03 0.  1.
         12    1    4    4    0    0 -0.83126158900E+00  0.43352719925E+01 -0.25461136630E+01  0.50959075603E+01  0.00000000000E+00 0. -1.
</event>
<event>
 8    1  0.2472977E-006  0.9118800E+02  0.7816164E-02  0.1184000E+00
        -11   -1    0    0    0    0  0.00000000000E+00  0.00000000000E+00  0.45593999997E+02  0.45594000000E+02  0.51100000000E-03 0.  1.
         11   -1    0    0    0    0 -0.00000000000E+00 -0.00000000000E+00 -0.45593999997E+02  0.45594000000E+02  0.51100000000E-03 0. -1.
         23    2    1    2    0    0  0.35527136788E-14  0.00000000000E+00  0.35527136788E-14  0.91188000000E+02  0.91188000000E+02 0.  0.
    9900012    2    3    3    0    0  0.22101297027E+02 -0.22350795410E+02  0.19176928998E+02  0.54367082147E+02  0.39999995371E+02 0.  0.
         12    1    3    3    0    0 -0.22101297027E+02  0.22350795410E+02 -0.19176928998E+02  0.36820917853E+02  0.00000000000E+00 0. -1.
         11    1    4    4    0    0 -0.83545908390E+01 -0.97731198188E+01  0.22039365675E+01  0.13044937552E+02  0.51100000000E-03 0. -1.
        -11    1    4    4    0    0  0.19486373620E+02 -0.14637548372E+02  0.17725051572E+02  0.30135594115E+02  0.51100000000E-03 0.  1.
         12    1    4    4    0    0  0.10969514247E+02  0.20598727810E+01 -0.75205914153E+00  0.11186550480E+02  0.00000000000E+00 0. -1.
</event>
<event>
 8    1  0.2472977E-006  0.9118800E+02  0.7816164E-02  0.1184000E+00
        -11   -1    0    0    0    0  0.00000000000E+00  0.00000000000E+00  0.45593999997E+02  0.45594000000E+02  0.51100000000E-03 0. -1.
         11   -1    0    0    0    0 -0.00000000000E+00 -0.00000000000E+00 -0.45593999997E+02  0.45594000000E+02  0.51100000000E-03 0.  1.
         23    2    1    2    0    0 -0.17763568394E-14  0.00000000000E+00  0.88817841970E-15  0.91188000000E+02  0.91188000000E+02 0.  0.
    9900012    2    3    3    0    0 -0.14595681002E+02  0.33729047290E+02 -0.22576588815E+01  0.54367088026E+02  0.40000008772E+02 0.  0.
         12    1    3    3    0    0  0.14595681002E+02 -0.33729047290E+02  0.22576588815E+01  0.36820911974E+02  0.00000000000E+00 0. -1.
         11    1    4    4    0    0 -0.13450502592E+02  0.23192747510E+02  0.64198888914E+01  0.27568723777E+02  0.51100000000E-03 0. -1.
        -11    1    4    4    0    0  0.72447602218E+01  0.52870546840E+01 -0.13166635037E+02  0.15931094638E+02  0.51100000000E-03 0.  1.
        -12    1    4    4    0    0 -0.83899386320E+01  0.52492450959E+01  0.44890872645E+01  0.10867269611E+02  0.00000000000E+00 0.  1.
</event>
<event>
 8    1  0.2472977E-006  0.9118800E+02  0.7816164E-02  0.1184000E+00
        -11   -1    0    0    0    0  0.00000000000E+00  0.00000000000E+00  0.45593999997E+02  0.45594000000E+02  0.51100000000E-03 0. -1.
         11   -1    0    0    0    0 -0.00000000000E+00 -0.00000000000E+00 -0.45593999997E+02  0.45594000000E+02  0.51100000000E-03 0.  1.
         23    2    1    2    0    0  0.00000000000E+00 -0.88817841970E-15 -0.35527136788E-14  0.91188000000E+02  0.91188000000E+02 0.  0.
    9900012    2    3    3    0    0  0.22008792088E+02 -0.59690609312E+01 -0.28909598406E+02  0.54367061696E+02  0.39999948749E+02 0.  0.
         12    1    3    3    0    0 -0.22008792088E+02  0.59690609312E+01  0.28909598406E+02  0.36820938304E+02  0.00000000000E+00 0. -1.
         11    1    4    4    0    0  0.38615125997E+01  0.86905296642E+01 -0.71813622613E+01  0.11916734015E+02  0.51100000000E-03 0. -1.
        -11    1    4    4    0    0  0.10741378858E+02 -0.22763784488E+02 -0.17634896207E+02  0.30733640664E+02  0.51100000000E-03 0.  1.
        -12    1    4    4    0    0  0.74059006301E+01  0.81041938928E+01 -0.40933399381E+01  0.11716687017E+02  0.00000000000E+00 0.  1.
</event>
<event>
 8    1  0.2472977E-006  0.9118800E+02  0.7816164E-02  0.1184000E+00
        -11   -1    0    0    0    0  0.00000000000E+00  0.00000000000E+00  0.45593999997E+02  0.45594000000E+02  0.51100000000E-03 0.  1.
         11   -1    0    0    0    0 -0.00000000000E+00 -0.00000000000E+00 -0.45593999997E+02  0.45594000000E+02  0.51100000000E-03 0. -1.
         23    2    1    2    0    0  0.00000000000E+00  0.00000000000E+00  0.00000000000E+00  0.91188000000E+02  0.91188000000E+02 0.  0.
    9900012    2    3    3    0    0 -0.18793497190E+02  0.24503059253E+02 -0.20054537167E+02  0.54367083249E+02  0.39999997884E+02 0.  0.
        -12    1    3    3    0    0  0.18793497190E+02 -0.24503059253E+02  0.20054537167E+02  0.36820916751E+02  0.00000000000E+00 0.  1.
         11    1    4    4    0    0 -0.29748781910E+01 -0.26653180893E+01 -0.12191535339E+02  0.12829160337E+02  0.51100000000E-03 0. -1.
        -11    1    4    4    0    0 -0.11964401280E+02  0.17779253277E+02  0.78579907534E+01  0.22825353536E+02  0.51100000000E-03 0.  1.
        -12    1    4    4    0    0 -0.38542177186E+01  0.93891240644E+01 -0.15720992582E+02  0.18712569377E+02  0.00000000000E+00 0.  1.
</event>
<event>
 8    1  0.2472977E-006  0.9118800E+02  0.7816164E-02  0.1184000E+00
        -11   -1    0    0    0    0  0.00000000000E+00  0.00000000000E+00  0.45593999997E+02  0.45594000000E+02  0.51100000000E-03 0.  1.
         11   -1    0    0    0    0 -0.00000000000E+00 -0.00000000000E+00 -0.45593999997E+02  0.45594000000E+02  0.51100000000E-03 0. -1.
         23    2    1    2    0    0  0.00000000000E+00 -0.13322676296E-14 -0.35527136788E-14  0.91188000000E+02  0.91188000000E+02 0.  0.
    9900012    2    3    3    0    0  0.24092838622E+02  0.37207670614E+01  0.27594759393E+02  0.54367085748E+02  0.40000003580E+02 0.  0.
         12    1    3    3    0    0 -0.24092838622E+02 -0.37207670614E+01 -0.27594759393E+02  0.36820914252E+02  0.00000000000E+00 0. -1.
         11    1    4    4    0    0  0.15696871266E+02 -0.10224557447E+02 -0.33839980177E+01  0.19036406840E+02  0.51100000000E-03 0. -1.
        -11    1    4    4    0    0  0.73437055354E+01  0.99369251474E+01  0.26439197585E+02  0.29183962403E+02  0.51100000000E-03 0.  1.
         12    1    4    4    0    0  0.10522618202E+01  0.40083993611E+01  0.45395598258E+01  0.61467165046E+01  0.00000000000E+00 0. -1.
</event>
<event>
 8    1  0.2472977E-006  0.9118800E+02  0.7816164E-02  0.1184000E+00
        -11   -1    0    0    0    0  0.00000000000E+00  0.00000000000E+00  0.45593999997E+02  0.45594000000E+02  0.51100000000E-03 0. -1.
         11   -1    0    0    0    0 -0.00000000000E+00 -0.00000000000E+00 -0.45593999997E+02  0.45594000000E+02  0.51100000000E-03 0.  1.
         23    2    1    2    0    0 -0.66613381478E-15 -0.35527136788E-14  0.00000000000E+00  0.91188000000E+02  0.91188000000E+02 0.  0.
    9900012    2    3    3    0    0 -0.18824752962E+01 -0.14853746289E+02 -0.33639271622E+02  0.54367108004E+02  0.40000054318E+02 0.  0.
         12    1    3    3    0    0  0.18824752962E+01  0.14853746289E+02  0.33639271622E+02  0.36820891996E+02  0.00000000000E+00 0. -1.
         11    1    4    4    0    0 -0.74542950877E+01  0.41956532959E+01 -0.16555690051E+02  0.18634937488E+02  0.51100000000E-03 0. -1.
        -11    1    4    4    0    0 -0.28542742995E+00  0.40442040709E+01 -0.10133329670E+02  0.10914276240E+02  0.51100000000E-03 0.  1.
         12    1    4    4    0    0  0.58572472215E+01 -0.23093603656E+02 -0.69502519007E+01  0.24817894276E+02  0.00000000000E+00 0. -1.
</event>
<event>
 8    1  0.2472977E-006  0.9118800E+02  0.7816164E-02  0.1184000E+00
        -11   -1    0    0    0    0  0.00000000000E+00  0.00000000000E+00  0.45593999997E+02  0.45594000000E+02  0.51100000000E-03 0.  1.
         11   -1    0    0    0    0 -0.00000000000E+00 -0.00000000000E+00 -0.45593999997E+02  0.45594000000E+02  0.51100000000E-03 0. -1.
         23    2    1    2    0    0  0.00000000000E+00  0.00000000000E+00  0.00000000000E+00  0.91188000000E+02  0.91188000000E+02 0.  0.
    9900012    2    3    3    0    0 -0.10915026453E+02 -0.25019143032E+02  0.24712041191E+02  0.54367077954E+02  0.39999985811E+02 0.  0.
         12    1    3    3    0    0  0.10915026453E+02  0.25019143032E+02 -0.24712041191E+02  0.36820922046E+02  0.00000000000E+00 0. -1.
         11    1    4    4    0    0  0.26977190310E+01  0.22432052334E+01  0.12250571670E+02  0.12743082994E+02  0.51100000000E-03 0. -1.
        -11    1    4    4    0    0  0.50379415284E+01 -0.14954174406E+02  0.10989641978E+02  0.19229675454E+02  0.51100000000E-03 0.  1.
         12    1    4    4    0    0 -0.18650687013E+02 -0.12308173859E+02  0.14718275428E+01  0.22394319505E+02  0.00000000000E+00 0. -1.
</event>
<event>
 8    1  0.2472977E-006  0.9118800E+02  0.7816164E-02  0.1184000E+00
        -11   -1    0    0    0    0  0.00000000000E+00  0.00000000000E+00  0.45593999997E+02  0.45594000000E+02  0.51100000000E-03 0.  1.
         11   -1    0    0    0    0 -0.00000000000E+00 -0.00000000000E+00 -0.45593999997E+02  0.45594000000E+02  0.51100000000E-03 0. -1.
         23    2    1    2    0    0 -0.17763568394E-14  0.35527136788E-14  0.00000000000E+00  0.91188000000E+02  0.91188000000E+02 0.  0.
    9900012    2    3    3    0    0  0.11624356245E+02  0.16910495733E+02  0.30572682342E+02  0.54367089777E+02  0.40000012764E+02 0.  0.
         12    1    3    3    0    0 -0.11624356245E+02 -0.16910495733E+02 -0.30572682342E+02  0.36820910223E+02  0.00000000000E+00 0. -1.
         11    1    4    4    0    0 -0.39333235418E+01  0.14214981294E+01  0.10822191530E+02  0.11602220512E+02  0.51100000000E-03 0. -1.
        -11    1    4    4    0    0  0.13069839085E+02 -0.38127708577E+01  0.18889272435E+02  0.23284383795E+02  0.51100000000E-03 0.  1.
         12    1    4    4    0    0  0.24878407024E+01  0.19301768461E+02  0.86121837722E+00  0.19480485471E+02  0.00000000000E+00 0. -1.
</event>
<event>
 8    1  0.2472977E-006  0.9118800E+02  0.7816164E-02  0.1184000E+00
        -11   -1    0    0    0    0  0.00000000000E+00  0.00000000000E+00  0.45593999997E+02  0.45594000000E+02  0.51100000000E-03 0. -1.
         11   -1    0    0    0    0 -0.00000000000E+00 -0.00000000000E+00 -0.45593999997E+02  0.45594000000E+02  0.51100000000E-03 0.  1.
         23    2    1    2    0    0  0.71054273576E-14  0.00000000000E+00  0.35527136788E-14  0.91188000000E+02  0.91188000000E+02 0.  0.
    9900012    2    3    3    0    0  0.17831759932E+02  0.20902058090E+02  0.24513508115E+02  0.54367085090E+02  0.40000002080E+02 0.  0.
        -12    1    3    3    0    0 -0.17831759932E+02 -0.20902058090E+02 -0.24513508115E+02  0.36820914910E+02  0.00000000000E+00 0.  1.
         11    1    4    4    0    0 -0.60888046542E+01 -0.53875435311E+01  0.11158728636E+01  0.82063597244E+01  0.51100000000E-03 0. -1.
        -11    1    4    4    0    0  0.10087498076E+02  0.27868073070E+01  0.13648539956E+02  0.17199027751E+02  0.51100000000E-03 0.  1.
         12    1    4    4    0    0  0.13833066510E+02  0.23502794314E+02  0.97490952962E+01  0.28961697615E+02  0.00000000000E+00 0. -1.
</event>
<event>
 8    1  0.2472977E-006  0.9118800E+02  0.7816164E-02  0.1184000E+00
        -11   -1    0    0    0    0  0.00000000000E+00  0.00000000000E+00  0.45593999997E+02  0.45594000000E+02  0.51100000000E-03 0.  1.
         11   -1    0    0    0    0 -0.00000000000E+00 -0.00000000000E+00 -0.45593999997E+02  0.45594000000E+02  0.51100000000E-03 0. -1.
         23    2    1    2    0    0  0.00000000000E+00  0.00000000000E+00  0.35527136788E-14  0.91188000000E+02  0.91188000000E+02 0.  0.
    9900012    2    3    3    0    0  0.52992846623E+01 -0.18191413270E+02 -0.31571576624E+02  0.54367158277E+02  0.40000168924E+02 0.  0.
        -12    1    3    3    0    0 -0.52992846623E+01  0.18191413270E+02  0.31571576624E+02  0.36820841723E+02  0.00000000000E+00 0.  1.
         11    1    4    4    0    0  0.58227115148E+01  0.61038961401E+00 -0.12235525401E+02  0.13564093297E+02  0.51100000000E-03 0. -1.
        -11    1    4    4    0    0 -0.63482352170E+01 -0.25844047707E+02 -0.12567674648E+02  0.29430619065E+02  0.51100000000E-03 0.  1.
        -12    1    4    4    0    0  0.58248083645E+01  0.70422448230E+01 -0.67683765754E+01  0.11372445915E+02  0.00000000000E+00 0.  1.
</event>
<event>
 8    1  0.2472977E-006  0.9118800E+02  0.7816164E-02  0.1184000E+00
        -11   -1    0    0    0    0  0.00000000000E+00  0.00000000000E+00  0.45593999997E+02  0.45594000000E+02  0.51100000000E-03 0. -1.
         11   -1    0    0    0    0 -0.00000000000E+00 -0.00000000000E+00 -0.45593999997E+02  0.45594000000E+02  0.51100000000E-03 0.  1.
         23    2    1    2    0    0  0.00000000000E+00  0.00000000000E+00  0.00000000000E+00  0.91188000000E+02  0.91188000000E+02 0.  0.
    9900012    2    3    3    0    0  0.67539120119E+01  0.36120519336E+02 -0.23393643307E+01  0.54367083797E+02  0.39999999131E+02 0.  0.
        -12    1    3    3    0    0 -0.67539120119E+01 -0.36120519336E+02  0.23393643307E+01  0.36820916203E+02  0.00000000000E+00 0.  1.
         11    1    4    4    0    0  0.12841903896E+01  0.29249044240E+02 -0.22243603580E+01  0.29361599295E+02  0.51100000000E-03 0. -1.
        -11    1    4    4    0    0 -0.53732146432E+01 -0.29421380690E+01 -0.66024252680E+01  0.90066437533E+01  0.51100000000E-03 0.  1.
         12    1    4    4    0    0  0.10842936266E+02  0.98136131651E+01  0.64874212953E+01  0.15998840748E+02  0.00000000000E+00 0. -1.
</event>
<event>
 8    1  0.2472977E-006  0.9118800E+02  0.7816164E-02  0.1184000E+00
        -11   -1    0    0    0    0  0.00000000000E+00  0.00000000000E+00  0.45593999997E+02  0.45594000000E+02  0.51100000000E-03 0. -1.
         11   -1    0    0    0    0 -0.00000000000E+00 -0.00000000000E+00 -0.45593999997E+02  0.45594000000E+02  0.51100000000E-03 0.  1.
         23    2    1    2    0    0  0.17763568394E-14 -0.71054273576E-14  0.00000000000E+00  0.91188000000E+02  0.91188000000E+02 0.  0.
    9900012    2    3    3    0    0  0.53468585289E+01 -0.33924225589E+02  0.13279276748E+02  0.54367066159E+02  0.39999958923E+02 0.  0.
        -12    1    3    3    0    0 -0.53468585289E+01  0.33924225589E+02 -0.13279276748E+02  0.36820933841E+02  0.00000000000E+00 0.  1.
         11    1    4    4    0    0 -0.96565342272E+01 -0.68292837174E+01 -0.13477578824E+00  0.11828183891E+02  0.51100000000E-03 0. -1.
        -11    1    4    4    0    0  0.16488375388E+02 -0.21897722667E+02 -0.70524463698E+00  0.27420323689E+02  0.51100000000E-03 0.  1.
         12    1    4    4    0    0 -0.14849826322E+01 -0.51972192050E+01  0.14119297173E+02  0.15118558580E+02  0.00000000000E+00 0. -1.
</event>
<event>
 8    1  0.2472977E-006  0.9118800E+02  0.7816164E-02  0.1184000E+00
        -11   -1    0    0    0    0  0.00000000000E+00  0.00000000000E+00  0.45593999997E+02  0.45594000000E+02  0.51100000000E-03 0.  1.
         11   -1    0    0    0    0 -0.00000000000E+00 -0.00000000000E+00 -0.45593999997E+02  0.45594000000E+02  0.51100000000E-03 0. -1.
         23    2    1    2    0    0  0.35527136788E-14  0.00000000000E+00  0.35527136788E-14  0.91188000000E+02  0.91188000000E+02 0.  0.
    9900012    2    3    3    0    0 -0.28691504236E+02  0.19711267797E+02 -0.12001791016E+02  0.54367089079E+02  0.40000011173E+02 0.  0.
         12    1    3    3    0    0  0.28691504236E+02 -0.19711267797E+02  0.12001791016E+02  0.36820910921E+02  0.00000000000E+00 0. -1.
         11    1    4    4    0    0  0.19251574617E+01 -0.28966184641E+01  0.30762966907E+01  0.46432996209E+01  0.51100000000E-03 0. -1.
        -11    1    4    4    0    0 -0.67121918594E+01 -0.18736430616E+01  0.62862720908E+01  0.93851624887E+01  0.51100000000E-03 0.  1.
        -12    1    4    4    0    0 -0.23904469838E+02  0.24481529322E+02 -0.21364359797E+02  0.40338626969E+02  0.00000000000E+00 0.  1.
</event>
<event>
 8    1  0.2472977E-006  0.9118800E+02  0.7816164E-02  0.1184000E+00
        -11   -1    0    0    0    0  0.00000000000E+00  0.00000000000E+00  0.45593999997E+02  0.45594000000E+02  0.51100000000E-03 0.  1.
         11   -1    0    0    0    0 -0.00000000000E+00 -0.00000000000E+00 -0.45593999997E+02  0.45594000000E+02  0.51100000000E-03 0. -1.
         23    2    1    2    0    0  0.00000000000E+00  0.00000000000E+00  0.00000000000E+00  0.91188000000E+02  0.91188000000E+02 0.  0.
    9900012    2    3    3    0    0 -0.12052641617E+02 -0.10213828201E+02 -0.33259444765E+02  0.54367093948E+02  0.40000022272E+02 0.  0.
        -12    1    3    3    0    0  0.12052641617E+02  0.10213828201E+02  0.33259444765E+02  0.36820906052E+02  0.00000000000E+00 0.  1.
         11    1    4    4    0    0  0.10051856957E+01 -0.10776403054E+02 -0.22299171714E+02  0.24786978849E+02  0.51100000000E-03 0. -1.
        -11    1    4    4    0    0 -0.62905029281E+01  0.10417203779E+02 -0.12595995972E+02  0.17514213555E+02  0.51100000000E-03 0.  1.
        -12    1    4    4    0    0 -0.67673243843E+01 -0.98546289256E+01  0.16357229215E+01  0.12065901544E+02  0.00000000000E+00 0.  1.
</event>
<event>
 8    1  0.2472977E-006  0.9118800E+02  0.7816164E-02  0.1184000E+00
        -11   -1    0    0    0    0  0.00000000000E+00  0.00000000000E+00  0.45593999997E+02  0.45594000000E+02  0.51100000000E-03 0.  1.
         11   -1    0    0    0    0 -0.00000000000E+00 -0.00000000000E+00 -0.45593999997E+02  0.45594000000E+02  0.51100000000E-03 0. -1.
         23    2    1    2    0    0  0.00000000000E+00  0.00000000000E+00 -0.88817841970E-15  0.91188000000E+02  0.91188000000E+02 0.  0.
    9900012    2    3    3    0    0 -0.32602017239E+02  0.16620446452E+02 -0.40802872244E+01  0.54367088656E+02  0.40000010210E+02 0.  0.
        -12    1    3    3    0    0  0.32602017239E+02 -0.16620446452E+02  0.40802872244E+01  0.36820911344E+02  0.00000000000E+00 0.  1.
         11    1    4    4    0    0 -0.22643019749E+02  0.49402880392E+01 -0.13680520637E+02  0.26912254354E+02  0.51100000000E-03 0. -1.
        -11    1    4    4    0    0 -0.22480712276E+01 -0.23244972655E+01  0.10943575161E+02  0.11411351776E+02  0.51100000000E-03 0.  1.
        -12    1    4    4    0    0 -0.77109262625E+01  0.14004655679E+02 -0.13433417493E+01  0.16043482526E+02  0.00000000000E+00 0.  1.
</event>
<event>
 8    1  0.2472977E-006  0.9118800E+02  0.7816164E-02  0.1184000E+00
        -11   -1    0    0    0    0  0.00000000000E+00  0.00000000000E+00  0.45593999997E+02  0.45594000000E+02  0.51100000000E-03 0.  1.
         11   -1    0    0    0    0 -0.00000000000E+00 -0.00000000000E+00 -0.45593999997E+02  0.45594000000E+02  0.51100000000E-03 0. -1.
         23    2    1    2    0    0  0.00000000000E+00  0.00000000000E+00  0.00000000000E+00  0.91188000000E+02  0.91188000000E+02 0.  0.
    9900012    2    3    3    0    0  0.19547458196E+02  0.23930606618E+02  0.20025117147E+02  0.54367049825E+02  0.39999921685E+02 0.  0.
         12    1    3    3    0    0 -0.19547458196E+02 -0.23930606618E+02 -0.20025117147E+02  0.36820950175E+02  0.00000000000E+00 0. -1.
         11    1    4    4    0    0  0.93666167426E+01  0.21231698370E+02  0.21616319741E+02  0.31714094726E+02  0.51100000000E-03 0. -1.
        -11    1    4    4    0    0  0.15245524343E+02  0.46346362636E+01  0.21309679873E+01  0.16076283482E+02  0.51100000000E-03 0.  1.
         12    1    4    4    0    0 -0.50646828890E+01 -0.19357280156E+01 -0.37221705806E+01  0.65766716162E+01  0.00000000000E+00 0. -1.
</event>
<event>
 8    1  0.2472977E-006  0.9118800E+02  0.7816164E-02  0.1184000E+00
        -11   -1    0    0    0    0  0.00000000000E+00  0.00000000000E+00  0.45593999997E+02  0.45594000000E+02  0.51100000000E-03 0. -1.
         11   -1    0    0    0    0 -0.00000000000E+00 -0.00000000000E+00 -0.45593999997E+02  0.45594000000E+02  0.51100000000E-03 0.  1.
         23    2    1    2    0    0  0.00000000000E+00 -0.44408920985E-15 -0.71054273576E-14  0.91188000000E+02  0.91188000000E+02 0.  0.
    9900012    2    3    3    0    0  0.15289735918E+02 -0.30973724855E+01 -0.33352889898E+02  0.54367014064E+02  0.39999840161E+02 0.  0.
         12    1    3    3    0    0 -0.15289735918E+02  0.30973724855E+01  0.33352889898E+02  0.36820985936E+02  0.00000000000E+00 0. -1.
         11    1    4    4    0    0 -0.26960898271E+01  0.78545803716E+01  0.13571580468E+01  0.84145832574E+01  0.51100000000E-03 0.  1.
        -11    1    4    4    0    0 -0.24970468340E+01  0.37592637326E+01 -0.82237663407E+01  0.93807057192E+01  0.51100000000E-03 0. -1.
        -12    1    4    4    0    0  0.20482872579E+02 -0.14711216590E+02 -0.26486281604E+02  0.36571725087E+02  0.00000000000E+00 0.  1.
</event>
<event>
 8    1  0.2472977E-006  0.9118800E+02  0.7816164E-02  0.1184000E+00
        -11   -1    0    0    0    0  0.00000000000E+00  0.00000000000E+00  0.45593999997E+02  0.45594000000E+02  0.51100000000E-03 0.  1.
         11   -1    0    0    0    0 -0.00000000000E+00 -0.00000000000E+00 -0.45593999997E+02  0.45594000000E+02  0.51100000000E-03 0. -1.
         23    2    1    2    0    0 -0.44408920985E-15  0.71054273576E-14  0.00000000000E+00  0.91188000000E+02  0.91188000000E+02 0.  0.
    9900012    2    3    3    0    0 -0.27815148315E+01  0.32623484100E+02  0.16844912566E+02  0.54367087207E+02  0.40000006906E+02 0.  0.
         12    1    3    3    0    0  0.27815148315E+01 -0.32623484100E+02 -0.16844912566E+02  0.36820912793E+02  0.00000000000E+00 0. -1.
         11    1    4    4    0    0 -0.90397223974E+00  0.38281654427E+01  0.43949941676E+01  0.58981344900E+01  0.51100000000E-03 0. -1.
        -11    1    4    4    0    0 -0.39613981731E+01  0.25446655024E+02  0.24648921191E+02  0.35648201127E+02  0.51100000000E-03 0.  1.
         12    1    4    4    0    0  0.20838555813E+01  0.33486636325E+01 -0.12199002793E+02  0.12820751591E+02  0.00000000000E+00 0. -1.
</event>
<event>
 8    1  0.2472977E-006  0.9118800E+02  0.7816164E-02  0.1184000E+00
        -11   -1    0    0    0    0  0.00000000000E+00  0.00000000000E+00  0.45593999997E+02  0.45594000000E+02  0.51100000000E-03 0.  1.
         11   -1    0    0    0    0 -0.00000000000E+00 -0.00000000000E+00 -0.45593999997E+02  0.45594000000E+02  0.51100000000E-03 0. -1.
         23    2    1    2    0    0  0.00000000000E+00  0.71054273576E-14 -0.88817841970E-15  0.91188000000E+02  0.91188000000E+02 0.  0.
    9900012    2    3    3    0    0  0.10052971873E+02  0.35094933401E+02 -0.48021852723E+01  0.54367114930E+02  0.40000070107E+02 0.  0.
        -12    1    3    3    0    0 -0.10052971873E+02 -0.35094933401E+02  0.48021852723E+01  0.36820885070E+02  0.00000000000E+00 0.  1.
         11    1    4    4    0    0  0.21940260741E+01  0.20460258635E+02  0.13440678279E+02  0.24578196978E+02  0.51100000000E-03 0. -1.
        -11    1    4    4    0    0  0.42698479598E+01 -0.23118581421E+01 -0.32453465939E+00  0.48663757228E+01  0.51100000000E-03 0.  1.
         12    1    4    4    0    0  0.35890978394E+01  0.16946532908E+02 -0.17918328892E+02  0.24922542230E+02  0.00000000000E+00 0. -1.
</event>
<event>
 8    1  0.2472977E-006  0.9118800E+02  0.7816164E-02  0.1184000E+00
        -11   -1    0    0    0    0  0.00000000000E+00  0.00000000000E+00  0.45593999997E+02  0.45594000000E+02  0.51100000000E-03 0. -1.
         11   -1    0    0    0    0 -0.00000000000E+00 -0.00000000000E+00 -0.45593999997E+02  0.45594000000E+02  0.51100000000E-03 0.  1.
         23    2    1    2    0    0  0.00000000000E+00 -0.17763568394E-14  0.88817841970E-15  0.91188000000E+02  0.91188000000E+02 0.  0.
    9900012    2    3    3    0    0  0.33765697505E+02  0.14030634408E+02  0.43357380918E+01  0.54367086721E+02  0.40000005799E+02 0.  0.
         12    1    3    3    0    0 -0.33765697505E+02 -0.14030634408E+02 -0.43357380918E+01  0.36820913279E+02  0.00000000000E+00 0. -1.
         11    1    4    4    0    0  0.17209357356E+02  0.14450624308E+02 -0.86322873042E+01  0.24072783551E+02  0.51100000000E-03 0.  1.
        -11    1    4    4    0    0  0.57916447830E+01 -0.10834582025E+02  0.72285024272E+01  0.14254212169E+02  0.51100000000E-03 0. -1.
         12    1    4    4    0    0  0.10764695366E+02  0.10414592125E+02  0.57395229689E+01  0.16040091002E+02  0.00000000000E+00 0. -1.
</event>
<event>
 8    1  0.2472977E-006  0.9118800E+02  0.7816164E-02  0.1184000E+00
        -11   -1    0    0    0    0  0.00000000000E+00  0.00000000000E+00  0.45593999997E+02  0.45594000000E+02  0.51100000000E-03 0.  1.
         11   -1    0    0    0    0 -0.00000000000E+00 -0.00000000000E+00 -0.45593999997E+02  0.45594000000E+02  0.51100000000E-03 0. -1.
         23    2    1    2    0    0  0.00000000000E+00 -0.71054273576E-14  0.17763568394E-14  0.91188000000E+02  0.91188000000E+02 0.  0.
    9900012    2    3    3    0    0  0.62884908113E+01  0.33152346213E+02  0.14736214803E+02  0.54367092857E+02  0.40000019786E+02 0.  0.
        -12    1    3    3    0    0 -0.62884908113E+01 -0.33152346213E+02 -0.14736214803E+02  0.36820907143E+02  0.00000000000E+00 0.  1.
         11    1    4    4    0    0 -0.14536241170E+01  0.31593628569E+02  0.17554850590E+02  0.36172408943E+02  0.51100000000E-03 0. -1.
        -11    1    4    4    0    0  0.10848817723E+02  0.59962379595E+01 -0.30761696763E+01  0.12771630115E+02  0.51100000000E-03 0.  1.
        -12    1    4    4    0    0 -0.31067027946E+01 -0.44375203155E+01  0.25753388908E+00  0.54230537992E+01  0.00000000000E+00 0.  1.
</event>
<event>
 8    1  0.2472977E-006  0.9118800E+02  0.7816164E-02  0.1184000E+00
        -11   -1    0    0    0    0  0.00000000000E+00  0.00000000000E+00  0.45593999997E+02  0.45594000000E+02  0.51100000000E-03 0. -1.
         11   -1    0    0    0    0 -0.00000000000E+00 -0.00000000000E+00 -0.45593999997E+02  0.45594000000E+02  0.51100000000E-03 0.  1.
         23    2    1    2    0    0  0.00000000000E+00  0.88817841970E-15 -0.17763568394E-14  0.91188000000E+02  0.91188000000E+02 0.  0.
    9900012    2    3    3    0    0 -0.36237653358E+02 -0.40698560409E+01  0.51037684095E+01  0.54367086091E+02  0.40000004362E+02 0.  0.
         12    1    3    3    0    0  0.36237653358E+02  0.40698560409E+01 -0.51037684095E+01  0.36820913909E+02  0.00000000000E+00 0. -1.
         11    1    4    4    0    0 -0.27176289397E+02 -0.85890851536E+01  0.11517332621E+02  0.30740397527E+02  0.51100000000E-03 0. -1.
        -11    1    4    4    0    0  0.16407800282E+01  0.20869976997E+01 -0.11303864779E+02  0.11611420142E+02  0.51100000000E-03 0.  1.
         12    1    4    4    0    0 -0.10702143989E+02  0.24322314129E+01  0.48903005681E+01  0.12015268422E+02  0.00000000000E+00 0. -1.
</event>
<event>
 8    1  0.2472977E-006  0.9118800E+02  0.7816164E-02  0.1184000E+00
        -11   -1    0    0    0    0  0.00000000000E+00  0.00000000000E+00  0.45593999997E+02  0.45594000000E+02  0.51100000000E-03 0. -1.
         11   -1    0    0    0    0 -0.00000000000E+00 -0.00000000000E+00 -0.45593999997E+02  0.45594000000E+02  0.51100000000E-03 0.  1.
         23    2    1    2    0    0  0.00000000000E+00  0.27755575616E-15  0.00000000000E+00  0.91188000000E+02  0.91188000000E+02 0.  0.
    9900012    2    3    3    0    0 -0.32771614143E+02 -0.45428636774E-01  0.16786886357E+02  0.54367077811E+02  0.39999985486E+02 0.  0.
        -12    1    3    3    0    0  0.32771614143E+02  0.45428636774E-01 -0.16786886357E+02  0.36820922189E+02  0.00000000000E+00 0.  1.
         11    1    4    4    0    0 -0.37198276158E+02  0.42714507833E+01  0.17517473660E+02  0.41337863087E+02  0.51100000000E-03 0. -1.
        -11    1    4    4    0    0 -0.31890223980E+00 -0.21697206398E+01 -0.55284527253E+01  0.59475352954E+01  0.51100000000E-03 0.  1.
         12    1    4    4    0    0  0.47455642546E+01 -0.21471587802E+01  0.47978654218E+01  0.70816794285E+01  0.00000000000E+00 0. -1.
</event>
<event>
 8    1  0.2472977E-006  0.9118800E+02  0.7816164E-02  0.1184000E+00
        -11   -1    0    0    0    0  0.00000000000E+00  0.00000000000E+00  0.45593999997E+02  0.45594000000E+02  0.51100000000E-03 0.  1.
         11   -1    0    0    0    0 -0.00000000000E+00 -0.00000000000E+00 -0.45593999997E+02  0.45594000000E+02  0.51100000000E-03 0. -1.
         23    2    1    2    0    0  0.00000000000E+00  0.00000000000E+00  0.22204460493E-14  0.91188000000E+02  0.91188000000E+02 0.  0.
    9900012    2    3    3    0    0  0.31583769005E+02  0.18727214388E+02  0.27452650268E+01  0.54367088776E+02  0.40000010482E+02 0.  0.
         12    1    3    3    0    0 -0.31583769005E+02 -0.18727214388E+02 -0.27452650268E+01  0.36820911224E+02  0.00000000000E+00 0. -1.
         11    1    4    4    0    0  0.56517813995E+00  0.18958924985E+02 -0.81118453863E+01  0.20629161368E+02  0.51100000000E-03 0. -1.
        -11    1    4    4    0    0  0.13471865240E+02  0.33892382593E+01  0.62852098064E+01  0.15247358840E+02  0.51100000000E-03 0.  1.
         12    1    4    4    0    0  0.17546725625E+02 -0.36209488567E+01  0.45719006067E+01  0.18490568567E+02  0.00000000000E+00 0. -1.
</event>
<event>
 8    1  0.2472977E-006  0.9118800E+02  0.7816164E-02  0.1184000E+00
        -11   -1    0    0    0    0  0.00000000000E+00  0.00000000000E+00  0.45593999997E+02  0.45594000000E+02  0.51100000000E-03 0. -1.
         11   -1    0    0    0    0 -0.00000000000E+00 -0.00000000000E+00 -0.45593999997E+02  0.45594000000E+02  0.51100000000E-03 0.  1.
         23    2    1    2    0    0 -0.35527136788E-14 -0.35527136788E-14 -0.88817841970E-15  0.91188000000E+02  0.91188000000E+02 0.  0.
    9900012    2    3    3    0    0 -0.31012637636E+02  0.18795930890E+02  0.63804273272E+01  0.54367074373E+02  0.39999977649E+02 0.  0.
        -12    1    3    3    0    0  0.31012637636E+02 -0.18795930890E+02 -0.63804273272E+01  0.36820925627E+02  0.00000000000E+00 0.  1.
         11    1    4    4    0    0 -0.16730834027E+02  0.11432829955E+02  0.96958415145E+01  0.22464188188E+02  0.51100000000E-03 0. -1.
        -11    1    4    4    0    0 -0.18923315331E+01  0.48912154103E+01 -0.14256231588E+02  0.15190294472E+02  0.51100000000E-03 0.  1.
        -12    1    4    4    0    0 -0.12389472076E+02  0.24718855239E+01  0.10940817400E+02  0.16712591712E+02  0.00000000000E+00 0.  1.
</event>
<event>
 8    1  0.2472977E-006  0.9118800E+02  0.7816164E-02  0.1184000E+00
        -11   -1    0    0    0    0  0.00000000000E+00  0.00000000000E+00  0.45593999997E+02  0.45594000000E+02  0.51100000000E-03 0. -1.
         11   -1    0    0    0    0 -0.00000000000E+00 -0.00000000000E+00 -0.45593999997E+02  0.45594000000E+02  0.51100000000E-03 0.  1.
         23    2    1    2    0    0 -0.17763568394E-14  0.00000000000E+00  0.71054273576E-14  0.91188000000E+02  0.91188000000E+02 0.  0.
    9900012    2    3    3    0    0 -0.14319870611E+02  0.12433683398E+02  0.31561351933E+02  0.54367161973E+02  0.40000177350E+02 0.  0.
        -12    1    3    3    0    0  0.14319870611E+02 -0.12433683398E+02 -0.31561351933E+02  0.36820838027E+02  0.00000000000E+00 0.  1.
         11    1    4    4    0    0 -0.46617187624E+01 -0.33861054699E+01  0.16603474158E+02  0.17574774151E+02  0.51100000000E-03 0. -1.
        -11    1    4    4    0    0  0.33445472178E+01  0.80474783981E+01 -0.62540191260E+01  0.10726633216E+02  0.51100000000E-03 0.  1.
        -12    1    4    4    0    0 -0.13002699067E+02  0.77723104697E+01  0.21211896901E+02  0.26065754606E+02  0.00000000000E+00 0.  1.
</event>
<event>
 8    1  0.2472977E-006  0.9118800E+02  0.7816164E-02  0.1184000E+00
        -11   -1    0    0    0    0  0.00000000000E+00  0.00000000000E+00  0.45593999997E+02  0.45594000000E+02  0.51100000000E-03 0.  1.
         11   -1    0    0    0    0 -0.00000000000E+00 -0.00000000000E+00 -0.45593999997E+02  0.45594000000E+02  0.51100000000E-03 0. -1.
         23    2    1    2    0    0  0.00000000000E+00  0.00000000000E+00 -0.35527136788E-14  0.91188000000E+02  0.91188000000E+02 0.  0.
    9900012    2    3    3    0    0 -0.19705257400E+02 -0.19127885096E+02  0.24527660870E+02  0.54367091466E+02  0.40000016616E+02 0.  0.
         12    1    3    3    0    0  0.19705257400E+02  0.19127885096E+02 -0.24527660870E+02  0.36820908534E+02  0.00000000000E+00 0. -1.
         11    1    4    4    0    0  0.68352050024E+01 -0.58946619444E+01  0.32224709955E+01  0.95839128983E+01  0.51100000000E-03 0. -1.
        -11    1    4    4    0    0 -0.75790581105E+00 -0.13056821585E+01  0.15768737922E+02  0.15840843507E+02  0.51100000000E-03 0.  1.
         12    1    4    4    0    0 -0.25782556592E+02 -0.11927540993E+02  0.55364519531E+01  0.28942335061E+02  0.00000000000E+00 0. -1.
</event>
<event>
 8    1  0.2472977E-006  0.9118800E+02  0.7816164E-02  0.1184000E+00
        -11   -1    0    0    0    0  0.00000000000E+00  0.00000000000E+00  0.45593999997E+02  0.45594000000E+02  0.51100000000E-03 0.  1.
         11   -1    0    0    0    0 -0.00000000000E+00 -0.00000000000E+00 -0.45593999997E+02  0.45594000000E+02  0.51100000000E-03 0. -1.
         23    2    1    2    0    0  0.88817841970E-15  0.17763568394E-14  0.00000000000E+00  0.91188000000E+02  0.91188000000E+02 0.  0.
    9900012    2    3    3    0    0  0.78845687617E+01  0.86399072215E+01  0.34913703524E+02  0.54367066889E+02  0.39999960588E+02 0.  0.
         12    1    3    3    0    0 -0.78845687617E+01 -0.86399072215E+01 -0.34913703524E+02  0.36820933111E+02  0.00000000000E+00 0. -1.
         11    1    4    4    0    0  0.24360863759E+01  0.13412188170E+02  0.32669117225E+01  0.14017632496E+02  0.51100000000E-03 0.  1.
        -11    1    4    4    0    0  0.14532295737E+00  0.95736552718E+01  0.14459202384E+02  0.17341987426E+02  0.51100000000E-03 0. -1.
        -12    1    4    4    0    0  0.53031594283E+01 -0.14345936220E+02  0.17187589418E+02  0.23007446967E+02  0.00000000000E+00 0.  1.
</event>
<event>
 8    1  0.2472977E-006  0.9118800E+02  0.7816164E-02  0.1184000E+00
        -11   -1    0    0    0    0  0.00000000000E+00  0.00000000000E+00  0.45593999997E+02  0.45594000000E+02  0.51100000000E-03 0.  1.
         11   -1    0    0    0    0 -0.00000000000E+00 -0.00000000000E+00 -0.45593999997E+02  0.45594000000E+02  0.51100000000E-03 0. -1.
         23    2    1    2    0    0  0.00000000000E+00 -0.71054273576E-14 -0.44408920985E-14  0.91188000000E+02  0.91188000000E+02 0.  0.
    9900012    2    3    3    0    0  0.20417550107E+02  0.29901687206E+02  0.66927203067E+01  0.54367085356E+02  0.40000002686E+02 0.  0.
         12    1    3    3    0    0 -0.20417550107E+02 -0.29901687206E+02 -0.66927203067E+01  0.36820914644E+02  0.00000000000E+00 0. -1.
         11    1    4    4    0    0  0.88788432766E+01  0.12882525940E+02 -0.10305389967E+02  0.18734844412E+02  0.51100000000E-03 0. -1.
        -11    1    4    4    0    0  0.20394377852E+01  0.11130794953E+02 -0.38701641439E+01  0.11959601729E+02  0.51100000000E-03 0.  1.
         12    1    4    4    0    0  0.94992690448E+01  0.58883663132E+01  0.20868274417E+02  0.23672639215E+02  0.00000000000E+00 0. -1.
</event>
<event>
 8    1  0.2472977E-006  0.9118800E+02  0.7816164E-02  0.1184000E+00
        -11   -1    0    0    0    0  0.00000000000E+00  0.00000000000E+00  0.45593999997E+02  0.45594000000E+02  0.51100000000E-03 0.  1.
         11   -1    0    0    0    0 -0.00000000000E+00 -0.00000000000E+00 -0.45593999997E+02  0.45594000000E+02  0.51100000000E-03 0. -1.
         23    2    1    2    0    0  0.00000000000E+00 -0.35527136788E-14  0.00000000000E+00  0.91188000000E+02  0.91188000000E+02 0.  0.
    9900012    2    3    3    0    0  0.10550884227E+01 -0.66734577968E+01  0.36195737053E+02  0.54367087038E+02  0.40000006520E+02 0.  0.
         12    1    3    3    0    0 -0.10550884227E+01  0.66734577968E+01 -0.36195737053E+02  0.36820912962E+02  0.00000000000E+00 0. -1.
         11    1    4    4    0    0  0.34165830521E+00  0.24407703775E+01 -0.31435531307E+01  0.39944983390E+01  0.51100000000E-03 0. -1.
        -11    1    4    4    0    0  0.80882446619E+00 -0.18284007446E+02  0.36401132943E+02  0.40743117273E+02  0.51100000000E-03 0.  1.
        -12    1    4    4    0    0 -0.95394348734E-01  0.91697792715E+01  0.29381572412E+01  0.96294714260E+01  0.00000000000E+00 0.  1.
</event>
<event>
 8    1  0.2472977E-006  0.9118800E+02  0.7816164E-02  0.1184000E+00
        -11   -1    0    0    0    0  0.00000000000E+00  0.00000000000E+00  0.45593999997E+02  0.45594000000E+02  0.51100000000E-03 0. -1.
         11   -1    0    0    0    0 -0.00000000000E+00 -0.00000000000E+00 -0.45593999997E+02  0.45594000000E+02  0.51100000000E-03 0.  1.
         23    2    1    2    0    0  0.00000000000E+00  0.88817841970E-15  0.00000000000E+00  0.91188000000E+02  0.91188000000E+02 0.  0.
    9900012    2    3    3    0    0 -0.18669498559E+02 -0.18133808931E+01  0.31685046544E+02  0.54367072510E+02  0.39999973401E+02 0.  0.
        -12    1    3    3    0    0  0.18669498559E+02  0.18133808931E+01 -0.31685046544E+02  0.36820927490E+02  0.00000000000E+00 0.  1.
         11    1    4    4    0    0 -0.25954266269E+02  0.47231735286E+01  0.34729897751E+02  0.43613049696E+02  0.51100000000E-03 0. -1.
        -11    1    4    4    0    0  0.44769294464E+01 -0.25820708328E+01 -0.28460801794E+01  0.59000135341E+01  0.51100000000E-03 0.  1.
         12    1    4    4    0    0  0.28078382633E+01 -0.39544835889E+01 -0.19877102714E+00  0.48540092799E+01  0.00000000000E+00 0. -1.
</event>
<event>
 8    1  0.2472977E-006  0.9118800E+02  0.7816164E-02  0.1184000E+00
        -11   -1    0    0    0    0  0.00000000000E+00  0.00000000000E+00  0.45593999997E+02  0.45594000000E+02  0.51100000000E-03 0.  1.
         11   -1    0    0    0    0 -0.00000000000E+00 -0.00000000000E+00 -0.45593999997E+02  0.45594000000E+02  0.51100000000E-03 0. -1.
         23    2    1    2    0    0  0.00000000000E+00  0.17763568394E-14 -0.35527136788E-14  0.91188000000E+02  0.91188000000E+02 0.  0.
    9900012    2    3    3    0    0 -0.30674564587E+02  0.15738031781E+02  0.12929264600E+02  0.54367076057E+02  0.39999981487E+02 0.  0.
         12    1    3    3    0    0  0.30674564587E+02 -0.15738031781E+02 -0.12929264600E+02  0.36820923943E+02  0.00000000000E+00 0. -1.
         11    1    4    4    0    0 -0.36450469148E+01  0.16206544399E+02  0.96840483233E+01  0.19228084683E+02  0.51100000000E-03 0. -1.
        -11    1    4    4    0    0 -0.22434583669E+02 -0.32544833642E+01 -0.68678899046E+01  0.23686918718E+02  0.51100000000E-03 0.  1.
        -12    1    4    4    0    0 -0.45949340036E+01  0.27859707459E+01  0.10113106181E+02  0.11452072656E+02  0.00000000000E+00 0.  1.
</event>
<event>
 8    1  0.2472977E-006  0.9118800E+02  0.7816164E-02  0.1184000E+00
        -11   -1    0    0    0    0  0.00000000000E+00  0.00000000000E+00  0.45593999997E+02  0.45594000000E+02  0.51100000000E-03 0. -1.
         11   -1    0    0    0    0 -0.00000000000E+00 -0.00000000000E+00 -0.45593999997E+02  0.45594000000E+02  0.51100000000E-03 0.  1.
         23    2    1    2    0    0  0.00000000000E+00  0.00000000000E+00 -0.17763568394E-14  0.91188000000E+02  0.91188000000E+02 0.  0.
    9900012    2    3    3    0    0  0.91969455097E+01  0.34314083718E+02  0.96818182774E+01  0.54367112541E+02  0.40000064660E+02 0.  0.
        -12    1    3    3    0    0 -0.91969455097E+01 -0.34314083718E+02 -0.96818182774E+01  0.36820887459E+02  0.00000000000E+00 0.  1.
         11    1    4    4    0    0 -0.51346219455E+01  0.65465985583E+01  0.37863913532E+01  0.91410642131E+01  0.51100000000E-03 0. -1.
        -11    1    4    4    0    0 -0.22781856866E+01 -0.46063732664E+01 -0.50745913752E+01  0.72222075973E+01  0.51100000000E-03 0.  1.
         12    1    4    4    0    0  0.16609753142E+02  0.32373858426E+02  0.10970018299E+02  0.38003840731E+02  0.00000000000E+00 0. -1.
</event>
<event>
 8    1  0.2472977E-006  0.9118800E+02  0.7816164E-02  0.1184000E+00
        -11   -1    0    0    0    0  0.00000000000E+00  0.00000000000E+00  0.45593999997E+02  0.45594000000E+02  0.51100000000E-03 0. -1.
         11   -1    0    0    0    0 -0.00000000000E+00 -0.00000000000E+00 -0.45593999997E+02  0.45594000000E+02  0.51100000000E-03 0.  1.
         23    2    1    2    0    0  0.17763568394E-14  0.88817841970E-15  0.00000000000E+00  0.91188000000E+02  0.91188000000E+02 0.  0.
    9900012    2    3    3    0    0  0.15177970691E+02  0.77216350785E+01 -0.32646375108E+02  0.54367078634E+02  0.39999987361E+02 0.  0.
         12    1    3    3    0    0 -0.15177970691E+02 -0.77216350785E+01  0.32646375108E+02  0.36820921366E+02  0.00000000000E+00 0. -1.
         11    1    4    4    0    0  0.20953579017E+01 -0.72241196417E+01 -0.83062992035E+00  0.75675871756E+01  0.51100000000E-03 0. -1.
        -11    1    4    4    0    0  0.77947591620E+01  0.21146743222E+01 -0.31915092322E+02  0.32921166991E+02  0.51100000000E-03 0.  1.
        -12    1    4    4    0    0  0.52878536274E+01  0.12831080398E+02  0.99347133998E-01  0.13878324467E+02  0.00000000000E+00 0.  1.
</event>
<event>
 8    1  0.2472977E-006  0.9118800E+02  0.7816164E-02  0.1184000E+00
        -11   -1    0    0    0    0  0.00000000000E+00  0.00000000000E+00  0.45593999997E+02  0.45594000000E+02  0.51100000000E-03 0.  1.
         11   -1    0    0    0    0 -0.00000000000E+00 -0.00000000000E+00 -0.45593999997E+02  0.45594000000E+02  0.51100000000E-03 0. -1.
         23    2    1    2    0    0 -0.22204460493E-14  0.00000000000E+00 -0.66613381478E-15  0.91188000000E+02  0.91188000000E+02 0.  0.
    9900012    2    3    3    0    0  0.13610096282E+01  0.36750639232E+02  0.18214688722E+01  0.54367087735E+02  0.40000008110E+02 0.  0.
        -12    1    3    3    0    0 -0.13610096282E+01 -0.36750639232E+02 -0.18214688722E+01  0.36820912265E+02  0.00000000000E+00 0.  1.
         11    1    4    4    0    0  0.15344700719E+02  0.26041274439E+02 -0.93258616580E+01  0.31631938140E+02  0.51100000000E-03 0. -1.
        -11    1    4    4    0    0 -0.15097421236E+02  0.10908628913E+02  0.10075000902E+02  0.21176306481E+02  0.51100000000E-03 0.  1.
         12    1    4    4    0    0  0.11137301454E+01 -0.19926411968E+00  0.10723296279E+01  0.15588431150E+01  0.00000000000E+00 0. -1.
</event>
<event>
 8    1  0.2472977E-006  0.9118800E+02  0.7816164E-02  0.1184000E+00
        -11   -1    0    0    0    0  0.00000000000E+00  0.00000000000E+00  0.45593999997E+02  0.45594000000E+02  0.51100000000E-03 0. -1.
         11   -1    0    0    0    0 -0.00000000000E+00 -0.00000000000E+00 -0.45593999997E+02  0.45594000000E+02  0.51100000000E-03 0.  1.
         23    2    1    2    0    0  0.00000000000E+00 -0.88817841970E-15  0.13322676296E-14  0.91188000000E+02  0.91188000000E+02 0.  0.
    9900012    2    3    3    0    0 -0.36393875347E+02 -0.55644001416E+01  0.55083340558E+00  0.54367080278E+02  0.39999991110E+02 0.  0.
        -12    1    3    3    0    0  0.36393875347E+02  0.55644001416E+01 -0.55083340558E+00  0.36820919722E+02  0.00000000000E+00 0.  1.
         11    1    4    4    0    0 -0.11243994135E+02 -0.19800719804E+01  0.16040463226E+02  0.19688690914E+02  0.51100000000E-03 0. -1.
        -11    1    4    4    0    0  0.13556440132E+01 -0.16573458352E+01  0.19464035120E+01  0.28936227813E+01  0.51100000000E-03 0.  1.
        -12    1    4    4    0    0 -0.26505525226E+02 -0.19269823260E+01 -0.17436033332E+02  0.31784766583E+02  0.00000000000E+00 0.  1.
</event>
<event>
 8    1  0.2472977E-006  0.9118800E+02  0.7816164E-02  0.1184000E+00
        -11   -1    0    0    0    0  0.00000000000E+00  0.00000000000E+00  0.45593999997E+02  0.45594000000E+02  0.51100000000E-03 0.  1.
         11   -1    0    0    0    0 -0.00000000000E+00 -0.00000000000E+00 -0.45593999997E+02  0.45594000000E+02  0.51100000000E-03 0. -1.
         23    2    1    2    0    0 -0.35527136788E-14  0.00000000000E+00  0.17763568394E-14  0.91188000000E+02  0.91188000000E+02 0.  0.
    9900012    2    3    3    0    0 -0.31988838749E+02 -0.14778113444E+02  0.10681676577E+02  0.54367127442E+02  0.40000098629E+02 0.  0.
         12    1    3    3    0    0  0.31988838749E+02  0.14778113444E+02 -0.10681676577E+02  0.36820872558E+02  0.00000000000E+00 0. -1.
         11    1    4    4    0    0 -0.20888851105E+02 -0.53263469844E+01 -0.35872278293E+01  0.21853655906E+02  0.51100000000E-03 0. -1.
        -11    1    4    4    0    0  0.63284950561E+01 -0.55188880966E+01 -0.16805538252E+01  0.85634243686E+01  0.51100000000E-03 0.  1.
        -12    1    4    4    0    0 -0.17428482700E+02 -0.39328783632E+01  0.15949458231E+02  0.23950047167E+02  0.00000000000E+00 0.  1.
</event>
<event>
 8    1  0.2472977E-006  0.9118800E+02  0.7816164E-02  0.1184000E+00
        -11   -1    0    0    0    0  0.00000000000E+00  0.00000000000E+00  0.45593999997E+02  0.45594000000E+02  0.51100000000E-03 0. -1.
         11   -1    0    0    0    0 -0.00000000000E+00 -0.00000000000E+00 -0.45593999997E+02  0.45594000000E+02  0.51100000000E-03 0.  1.
         23    2    1    2    0    0  0.00000000000E+00  0.00000000000E+00 -0.35527136788E-14  0.91188000000E+02  0.91188000000E+02 0.  0.
    9900012    2    3    3    0    0 -0.24494566537E+02  0.30427722818E+01 -0.27322850646E+02  0.54367076324E+02  0.39999982095E+02 0.  0.
         12    1    3    3    0    0  0.24494566537E+02 -0.30427722818E+01  0.27322850646E+02  0.36820923676E+02  0.00000000000E+00 0. -1.
         11    1    4    4    0    0 -0.11366146054E+02 -0.12212366542E+02 -0.23386467524E+02  0.28727304715E+02  0.51100000000E-03 0. -1.
        -11    1    4    4    0    0 -0.11490033579E+02  0.30323377662E+01  0.18344731659E+01  0.12024193779E+02  0.51100000000E-03 0.  1.
         12    1    4    4    0    0 -0.16383869037E+01  0.12222801058E+02 -0.57708562878E+01  0.13615577830E+02  0.00000000000E+00 0. -1.
</event>
<event>
 8    1  0.2472977E-006  0.9118800E+02  0.7816164E-02  0.1184000E+00
        -11   -1    0    0    0    0  0.00000000000E+00  0.00000000000E+00  0.45593999997E+02  0.45594000000E+02  0.51100000000E-03 0. -1.
         11   -1    0    0    0    0 -0.00000000000E+00 -0.00000000000E+00 -0.45593999997E+02  0.45594000000E+02  0.51100000000E-03 0.  1.
         23    2    1    2    0    0  0.00000000000E+00 -0.35527136788E-14  0.35527136788E-14  0.91188000000E+02  0.91188000000E+02 0.  0.
    9900012    2    3    3    0    0  0.19860328378E+02 -0.26484427511E+02  0.16122059206E+02  0.54367104616E+02  0.40000046593E+02 0.  0.
        -12    1    3    3    0    0 -0.19860328378E+02  0.26484427511E+02 -0.16122059206E+02  0.36820895384E+02  0.00000000000E+00 0.  1.
         11    1    4    4    0    0  0.12407431207E+02  0.50403699932E+01  0.14381568442E+02  0.19651442439E+02  0.51100000000E-03 0. -1.
        -11    1    4    4    0    0  0.60733842688E+01 -0.16590530159E+02 -0.48691516904E+01  0.18325946793E+02  0.51100000000E-03 0.  1.
         12    1    4    4    0    0  0.13795129028E+01 -0.14934267345E+02  0.66096424538E+01  0.16389715383E+02  0.00000000000E+00 0. -1.
</event>
<event>
 8    1  0.2472977E-006  0.9118800E+02  0.7816164E-02  0.1184000E+00
        -11   -1    0    0    0    0  0.00000000000E+00  0.00000000000E+00  0.45593999997E+02  0.45594000000E+02  0.51100000000E-03 0. -1.
         11   -1    0    0    0    0 -0.00000000000E+00 -0.00000000000E+00 -0.45593999997E+02  0.45594000000E+02  0.51100000000E-03 0.  1.
         23    2    1    2    0    0  0.00000000000E+00  0.35527136788E-14  0.00000000000E+00  0.91188000000E+02  0.91188000000E+02 0.  0.
    9900012    2    3    3    0    0 -0.32759799559E+02  0.16301884394E+02 -0.41017925459E+01  0.54367073830E+02  0.39999976410E+02 0.  0.
         12    1    3    3    0    0  0.32759799559E+02 -0.16301884394E+02  0.41017925459E+01  0.36820926170E+02  0.00000000000E+00 0. -1.
         11    1    4    4    0    0 -0.25476460009E+02  0.56986820901E+01 -0.59863674290E+01  0.26783606691E+02  0.51100000000E-03 0.  1.
        -11    1    4    4    0    0 -0.29529796631E+01  0.14726899228E+02  0.95971477316E+01  0.17824334338E+02  0.51100000000E-03 0. -1.
         12    1    4    4    0    0 -0.43303598869E+01 -0.41236969236E+01 -0.77125728485E+01  0.97591328001E+01  0.00000000000E+00 0. -1.
</event>
<event>
 8    1  0.2472977E-006  0.9118800E+02  0.7816164E-02  0.1184000E+00
        -11   -1    0    0    0    0  0.00000000000E+00  0.00000000000E+00  0.45593999997E+02  0.45594000000E+02  0.51100000000E-03 0.  1.
         11   -1    0    0    0    0 -0.00000000000E+00 -0.00000000000E+00 -0.45593999997E+02  0.45594000000E+02  0.51100000000E-03 0. -1.
         23    2    1    2    0    0  0.00000000000E+00 -0.35527136788E-14  0.00000000000E+00  0.91188000000E+02  0.91188000000E+02 0.  0.
    9900012    2    3    3    0    0  0.15746672658E+02 -0.10928047755E+02 -0.31438795213E+02  0.54367112287E+02  0.40000064080E+02 0.  0.
         12    1    3    3    0    0 -0.15746672658E+02  0.10928047755E+02  0.31438795213E+02  0.36820887713E+02  0.00000000000E+00 0. -1.
         11    1    4    4    0    0  0.13607519327E+02  0.11793660427E+02 -0.18269373483E+02  0.25651998289E+02  0.51100000000E-03 0. -1.
        -11    1    4    4    0    0 -0.38321986173E+01 -0.66132567877E+01 -0.11057220319E+01  0.77229225722E+01  0.51100000000E-03 0.  1.
         12    1    4    4    0    0  0.59713519483E+01 -0.16108451395E+02 -0.12063699699E+02  0.20992191425E+02  0.00000000000E+00 0. -1.
</event>
<event>
 8    1  0.2472977E-006  0.9118800E+02  0.7816164E-02  0.1184000E+00
        -11   -1    0    0    0    0  0.00000000000E+00  0.00000000000E+00  0.45593999997E+02  0.45594000000E+02  0.51100000000E-03 0. -1.
         11   -1    0    0    0    0 -0.00000000000E+00 -0.00000000000E+00 -0.45593999997E+02  0.45594000000E+02  0.51100000000E-03 0.  1.
         23    2    1    2    0    0  0.00000000000E+00  0.00000000000E+00  0.00000000000E+00  0.91188000000E+02  0.91188000000E+02 0.  0.
    9900012    2    3    3    0    0  0.53885986806E+01 -0.89333997944E+01 -0.35312006581E+02  0.54367076106E+02  0.39999981599E+02 0.  0.
         12    1    3    3    0    0 -0.53885986806E+01  0.89333997944E+01  0.35312006581E+02  0.36820923894E+02  0.00000000000E+00 0. -1.
         11    1    4    4    0    0 -0.43833673593E+01  0.61082991843E+01 -0.48409617413E+01  0.89420433444E+01  0.51100000000E-03 0. -1.
        -11    1    4    4    0    0  0.79332309820E+01 -0.17926524775E+02 -0.56950405743E+01  0.20413964135E+02  0.51100000000E-03 0.  1.
        -12    1    4    4    0    0  0.18387350579E+01  0.28848257959E+01 -0.24776004265E+02  0.25011068626E+02  0.00000000000E+00 0.  1.
</event>
<event>
 8    1  0.2472977E-006  0.9118800E+02  0.7816164E-02  0.1184000E+00
        -11   -1    0    0    0    0  0.00000000000E+00  0.00000000000E+00  0.45593999997E+02  0.45594000000E+02  0.51100000000E-03 0. -1.
         11   -1    0    0    0    0 -0.00000000000E+00 -0.00000000000E+00 -0.45593999997E+02  0.45594000000E+02  0.51100000000E-03 0.  1.
         23    2    1    2    0    0  0.17763568394E-14  0.00000000000E+00  0.00000000000E+00  0.91188000000E+02  0.91188000000E+02 0.  0.
    9900012    2    3    3    0    0 -0.10189592135E+02  0.15285068912E+02  0.31911042650E+02  0.54367139574E+02  0.40000126286E+02 0.  0.
        -12    1    3    3    0    0  0.10189592135E+02 -0.15285068912E+02 -0.31911042650E+02  0.36820860426E+02  0.00000000000E+00 0.  1.
         11    1    4    4    0    0 -0.14144342176E+02  0.11349280726E+02  0.15422894287E+01  0.18200199052E+02  0.51100000000E-03 0. -1.
        -11    1    4    4    0    0  0.30651146246E+01  0.88835925494E+01  0.29631532897E+02  0.31086023971E+02  0.51100000000E-03 0.  1.
        -12    1    4    4    0    0  0.88963541634E+00 -0.49478043631E+01  0.73722032373E+00  0.50809165507E+01  0.00000000000E+00 0.  1.
</event>
<event>
 8    1  0.2472977E-006  0.9118800E+02  0.7816164E-02  0.1184000E+00
        -11   -1    0    0    0    0  0.00000000000E+00  0.00000000000E+00  0.45593999997E+02  0.45594000000E+02  0.51100000000E-03 0.  1.
         11   -1    0    0    0    0 -0.00000000000E+00 -0.00000000000E+00 -0.45593999997E+02  0.45594000000E+02  0.51100000000E-03 0. -1.
         23    2    1    2    0    0 -0.13322676296E-14  0.10658141036E-13  0.00000000000E+00  0.91188000000E+02  0.91188000000E+02 0.  0.
    9900012    2    3    3    0    0  0.35756820629E+01 -0.30794763751E+02  0.19866454906E+02  0.54367095513E+02  0.40000025842E+02 0.  0.
         12    1    3    3    0    0 -0.35756820629E+01  0.30794763751E+02 -0.19866454906E+02  0.36820904487E+02  0.00000000000E+00 0. -1.
         11    1    4    4    0    0  0.31044532803E+01 -0.17304447938E+02 -0.52377753122E+01  0.18344368048E+02  0.51100000000E-03 0. -1.
        -11    1    4    4    0    0 -0.23738846940E+01 -0.57489078848E+01 -0.28758170979E+01  0.68524152421E+01  0.51100000000E-03 0.  1.
        -12    1    4    4    0    0  0.28451134766E+01 -0.77414079283E+01  0.27980047316E+02  0.29170312224E+02  0.00000000000E+00 0.  1.
</event>
<event>
 8    1  0.2472977E-006  0.9118800E+02  0.7816164E-02  0.1184000E+00
        -11   -1    0    0    0    0  0.00000000000E+00  0.00000000000E+00  0.45593999997E+02  0.45594000000E+02  0.51100000000E-03 0.  1.
         11   -1    0    0    0    0 -0.00000000000E+00 -0.00000000000E+00 -0.45593999997E+02  0.45594000000E+02  0.51100000000E-03 0. -1.
         23    2    1    2    0    0  0.00000000000E+00  0.00000000000E+00  0.00000000000E+00  0.91188000000E+02  0.91188000000E+02 0.  0.
    9900012    2    3    3    0    0  0.15449328601E+02  0.15421488498E+02  0.29652572670E+02  0.54367093877E+02  0.40000022112E+02 0.  0.
         12    1    3    3    0    0 -0.15449328601E+02 -0.15421488498E+02 -0.29652572670E+02  0.36820906123E+02  0.00000000000E+00 0. -1.
         11    1    4    4    0    0 -0.56592915590E+01  0.40477888782E+00 -0.17638684230E+01  0.59416040740E+01  0.51100000000E-03 0. -1.
        -11    1    4    4    0    0  0.11353869239E+02  0.21496840999E+02  0.16157541019E+02  0.29190591835E+02  0.51100000000E-03 0.  1.
        -12    1    4    4    0    0  0.97547509215E+01 -0.64801313895E+01  0.15258900074E+02  0.19234897968E+02  0.00000000000E+00 0.  1.
</event>
<event>
 8    1  0.2472977E-006  0.9118800E+02  0.7816164E-02  0.1184000E+00
        -11   -1    0    0    0    0  0.00000000000E+00  0.00000000000E+00  0.45593999997E+02  0.45594000000E+02  0.51100000000E-03 0. -1.
         11   -1    0    0    0    0 -0.00000000000E+00 -0.00000000000E+00 -0.45593999997E+02  0.45594000000E+02  0.51100000000E-03 0.  1.
         23    2    1    2    0    0  0.00000000000E+00  0.22204460493E-15  0.00000000000E+00  0.91188000000E+02  0.91188000000E+02 0.  0.
    9900012    2    3    3    0    0 -0.18337310508E+02  0.18208730643E+01 -0.31878051054E+02  0.54367045716E+02  0.39999912319E+02 0.  0.
        -12    1    3    3    0    0  0.18337310508E+02 -0.18208730643E+01  0.31878051054E+02  0.36820954284E+02  0.00000000000E+00 0.  1.
         11    1    4    4    0    0 -0.28477413699E+02 -0.56170916759E+01 -0.27740312787E+02  0.40150214989E+02  0.51100000000E-03 0. -1.
        -11    1    4    4    0    0  0.63479341632E+01  0.68541492002E+01 -0.44875721422E+01  0.10364069345E+02  0.51100000000E-03 0.  1.
         12    1    4    4    0    0  0.37921690285E+01  0.58381553998E+00  0.34983387554E+00  0.38527613819E+01  0.00000000000E+00 0. -1.
</event>
<event>
 8    1  0.2472977E-006  0.9118800E+02  0.7816164E-02  0.1184000E+00
        -11   -1    0    0    0    0  0.00000000000E+00  0.00000000000E+00  0.45593999997E+02  0.45594000000E+02  0.51100000000E-03 0. -1.
         11   -1    0    0    0    0 -0.00000000000E+00 -0.00000000000E+00 -0.45593999997E+02  0.45594000000E+02  0.51100000000E-03 0.  1.
         23    2    1    2    0    0 -0.71054273576E-14 -0.44408920985E-15  0.17763568394E-14  0.91188000000E+02  0.91188000000E+02 0.  0.
    9900012    2    3    3    0    0  0.35150994237E+02  0.38543854800E+01 -0.10263058899E+02  0.54367094780E+02  0.40000024169E+02 0.  0.
         12    1    3    3    0    0 -0.35150994237E+02 -0.38543854800E+01  0.10263058899E+02  0.36820905220E+02  0.00000000000E+00 0. -1.
         11    1    4    4    0    0  0.28665633594E+01  0.73564433372E+00 -0.79665950468E+01  0.84985289891E+01  0.51100000000E-03 0. -1.
        -11    1    4    4    0    0  0.35700939721E+02  0.57211114515E+01 -0.95880841854E+01  0.37406143503E+02  0.51100000000E-03 0.  1.
         12    1    4    4    0    0 -0.34165088430E+01 -0.26023703052E+01  0.72916203336E+01  0.84624222873E+01  0.00000000000E+00 0. -1.
</event>
<event>
 8    1  0.2472977E-006  0.9118800E+02  0.7816164E-02  0.1184000E+00
        -11   -1    0    0    0    0  0.00000000000E+00  0.00000000000E+00  0.45593999997E+02  0.45594000000E+02  0.51100000000E-03 0.  1.
         11   -1    0    0    0    0 -0.00000000000E+00 -0.00000000000E+00 -0.45593999997E+02  0.45594000000E+02  0.51100000000E-03 0. -1.
         23    2    1    2    0    0  0.00000000000E+00 -0.88817841970E-15  0.00000000000E+00  0.91188000000E+02  0.91188000000E+02 0.  0.
    9900012    2    3    3    0    0 -0.31702708392E+02 -0.61924358548E+01  0.17674053559E+02  0.54367079990E+02  0.39999990453E+02 0.  0.
        -12    1    3    3    0    0  0.31702708392E+02  0.61924358548E+01 -0.17674053559E+02  0.36820920010E+02  0.00000000000E+00 0.  1.
         11    1    4    4    0    0 -0.22373987303E+02 -0.19225957666E+02  0.12132408993E+02  0.31897148842E+02  0.51100000000E-03 0. -1.
        -11    1    4    4    0    0  0.33216545840E+01  0.11352899750E+01 -0.13839947716E+01  0.37732895849E+01  0.51100000000E-03 0.  1.
        -12    1    4    4    0    0 -0.12650375673E+02  0.11898231836E+02  0.69256393381E+01  0.18696641563E+02  0.00000000000E+00 0.  1.
</event>
<event>
 8    1  0.2472977E-006  0.9118800E+02  0.7816164E-02  0.1184000E+00
        -11   -1    0    0    0    0  0.00000000000E+00  0.00000000000E+00  0.45593999997E+02  0.45594000000E+02  0.51100000000E-03 0.  1.
         11   -1    0    0    0    0 -0.00000000000E+00 -0.00000000000E+00 -0.45593999997E+02  0.45594000000E+02  0.51100000000E-03 0. -1.
         23    2    1    2    0    0  0.35527136788E-14 -0.53290705182E-14  0.00000000000E+00  0.91188000000E+02  0.91188000000E+02 0.  0.
    9900012    2    3    3    0    0 -0.20983546378E+02  0.12775175357E+02 -0.27427736326E+02  0.54366877747E+02  0.39999529397E+02 0.  0.
        -12    1    3    3    0    0  0.20983546378E+02 -0.12775175357E+02  0.27427736326E+02  0.36821122253E+02  0.00000000000E+00 0.  1.
         11    1    4    4    0    0 -0.12054454222E+02 -0.39946145776E+01 -0.11571792857E+02  0.17180605414E+02  0.51100000000E-03 0. -1.
        -11    1    4    4    0    0 -0.38538275330E+01 -0.62104088616E+01  0.20771185825E+01  0.75983936953E+01  0.51100000000E-03 0.  1.
        -12    1    4    4    0    0 -0.50752646227E+01  0.22980198796E+02 -0.17933062052E+02  0.29587878637E+02  0.00000000000E+00 0.  1.
</event>
<event>
 8    1  0.2472977E-006  0.9118800E+02  0.7816164E-02  0.1184000E+00
        -11   -1    0    0    0    0  0.00000000000E+00  0.00000000000E+00  0.45593999997E+02  0.45594000000E+02  0.51100000000E-03 0. -1.
         11   -1    0    0    0    0 -0.00000000000E+00 -0.00000000000E+00 -0.45593999997E+02  0.45594000000E+02  0.51100000000E-03 0.  1.
         23    2    1    2    0    0  0.17763568394E-14  0.00000000000E+00 -0.17763568394E-14  0.91188000000E+02  0.91188000000E+02 0.  0.
    9900012    2    3    3    0    0 -0.15191108199E+02  0.31425452059E+02 -0.11723943127E+02  0.54367086813E+02  0.40000006009E+02 0.  0.
         12    1    3    3    0    0  0.15191108199E+02 -0.31425452059E+02  0.11723943127E+02  0.36820913187E+02  0.00000000000E+00 0. -1.
         11    1    4    4    0    0  0.26909957906E+01  0.15916103864E+01 -0.10208108800E+02  0.10676149470E+02  0.51100000000E-03 0. -1.
        -11    1    4    4    0    0  0.56401310337E+01  0.65852826365E+01 -0.56681038244E+01  0.10358785001E+02  0.51100000000E-03 0.  1.
         12    1    4    4    0    0 -0.23522235024E+02  0.23248559036E+02  0.41522694976E+01  0.33332152342E+02  0.00000000000E+00 0. -1.
</event>
<event>
 8    1  0.2472977E-006  0.9118800E+02  0.7816164E-02  0.1184000E+00
        -11   -1    0    0    0    0  0.00000000000E+00  0.00000000000E+00  0.45593999997E+02  0.45594000000E+02  0.51100000000E-03 0. -1.
         11   -1    0    0    0    0 -0.00000000000E+00 -0.00000000000E+00 -0.45593999997E+02  0.45594000000E+02  0.51100000000E-03 0.  1.
         23    2    1    2    0    0  0.35527136788E-14  0.38857805862E-15  0.00000000000E+00  0.91188000000E+02  0.91188000000E+02 0.  0.
    9900012    2    3    3    0    0 -0.14287597922E+02  0.33665074338E+00 -0.33934207150E+02  0.54367092855E+02  0.40000019781E+02 0.  0.
         12    1    3    3    0    0  0.14287597922E+02 -0.33665074338E+00  0.33934207150E+02  0.36820907145E+02  0.00000000000E+00 0. -1.
         11    1    4    4    0    0  0.69643127477E+01  0.20765789466E+01 -0.27118198061E+01  0.77567905148E+01  0.51100000000E-03 0. -1.
        -11    1    4    4    0    0  0.28075626079E+01 -0.77096232880E+01 -0.14652194597E+02  0.16793079105E+02  0.51100000000E-03 0.  1.
         12    1    4    4    0    0 -0.24059473277E+02  0.59696950848E+01 -0.16570192747E+02  0.29817223235E+02  0.00000000000E+00 0. -1.
</event>
<event>
 8    1  0.2472977E-006  0.9118800E+02  0.7816164E-02  0.1184000E+00
        -11   -1    0    0    0    0  0.00000000000E+00  0.00000000000E+00  0.45593999997E+02  0.45594000000E+02  0.51100000000E-03 0.  1.
         11   -1    0    0    0    0 -0.00000000000E+00 -0.00000000000E+00 -0.45593999997E+02  0.45594000000E+02  0.51100000000E-03 0. -1.
         23    2    1    2    0    0  0.00000000000E+00  0.00000000000E+00 -0.88817841970E-15  0.91188000000E+02  0.91188000000E+02 0.  0.
    9900012    2    3    3    0    0  0.36453005160E+02  0.45516885396E+01  0.24980979468E+01  0.54367082751E+02  0.39999996747E+02 0.  0.
        -12    1    3    3    0    0 -0.36453005160E+02 -0.45516885396E+01 -0.24980979468E+01  0.36820917249E+02  0.00000000000E+00 0.  1.
         11    1    4    4    0    0  0.26398628870E+02  0.20193565438E+01 -0.53442466094E+01  0.27009746003E+02  0.51100000000E-03 0. -1.
        -11    1    4    4    0    0  0.15969807334E+02  0.32454959241E+01 -0.14049727438E+01  0.16356709289E+02  0.51100000000E-03 0.  1.
        -12    1    4    4    0    0 -0.59154310449E+01 -0.71316392834E+00  0.92473173000E+01  0.11000627459E+02  0.00000000000E+00 0.  1.
</event>
<event>
 8    1  0.2472977E-006  0.9118800E+02  0.7816164E-02  0.1184000E+00
        -11   -1    0    0    0    0  0.00000000000E+00  0.00000000000E+00  0.45593999997E+02  0.45594000000E+02  0.51100000000E-03 0.  1.
         11   -1    0    0    0    0 -0.00000000000E+00 -0.00000000000E+00 -0.45593999997E+02  0.45594000000E+02  0.51100000000E-03 0. -1.
         23    2    1    2    0    0  0.00000000000E+00  0.35527136788E-14 -0.88817841970E-15  0.91188000000E+02  0.91188000000E+02 0.  0.
    9900012    2    3    3    0    0 -0.32049433703E+02  0.16699844219E+02 -0.70517930797E+01  0.54367098554E+02  0.40000032773E+02 0.  0.
        -12    1    3    3    0    0  0.32049433703E+02 -0.16699844219E+02  0.70517930797E+01  0.36820901446E+02  0.00000000000E+00 0.  1.
         11    1    4    4    0    0 -0.16970787469E+02  0.41521680082E+00  0.13074346633E+02  0.21427052351E+02  0.51100000000E-03 0.  1.
        -11    1    4    4    0    0 -0.13393300128E+02  0.61498663283E+01 -0.71255981372E+01  0.16369957033E+02  0.51100000000E-03 0. -1.
        -12    1    4    4    0    0 -0.16853461062E+01  0.10134761090E+02 -0.13000541575E+02  0.16570089170E+02  0.00000000000E+00 0.  1.
</event>
<event>
 8    1  0.2472977E-006  0.9118800E+02  0.7816164E-02  0.1184000E+00
        -11   -1    0    0    0    0  0.00000000000E+00  0.00000000000E+00  0.45593999997E+02  0.45594000000E+02  0.51100000000E-03 0. -1.
         11   -1    0    0    0    0 -0.00000000000E+00 -0.00000000000E+00 -0.45593999997E+02  0.45594000000E+02  0.51100000000E-03 0.  1.
         23    2    1    2    0    0 -0.17763568394E-14  0.00000000000E+00  0.71054273576E-14  0.91188000000E+02  0.91188000000E+02 0.  0.
    9900012    2    3    3    0    0  0.10097594856E+02 -0.57696107026E+01  0.34936062347E+02  0.54367105364E+02  0.40000048297E+02 0.  0.
        -12    1    3    3    0    0 -0.10097594856E+02  0.57696107026E+01 -0.34936062347E+02  0.36820894636E+02  0.00000000000E+00 0.  1.
         11    1    4    4    0    0  0.17067446237E+02 -0.80206779145E+01  0.13951641158E+02  0.23457989823E+02  0.51100000000E-03 0. -1.
        -11    1    4    4    0    0 -0.34023057476E+01 -0.87391399203E+01  0.36218539797E+01  0.10053162560E+02  0.51100000000E-03 0.  1.
        -12    1    4    4    0    0 -0.35675456336E+01  0.10990207132E+02  0.17362567208E+02  0.20855952981E+02  0.00000000000E+00 0.  1.
</event>
<event>
 8    1  0.2472977E-006  0.9118800E+02  0.7816164E-02  0.1184000E+00
        -11   -1    0    0    0    0  0.00000000000E+00  0.00000000000E+00  0.45593999997E+02  0.45594000000E+02  0.51100000000E-03 0. -1.
         11   -1    0    0    0    0 -0.00000000000E+00 -0.00000000000E+00 -0.45593999997E+02  0.45594000000E+02  0.51100000000E-03 0.  1.
         23    2    1    2    0    0  0.00000000000E+00 -0.35527136788E-14  0.00000000000E+00  0.91188000000E+02  0.91188000000E+02 0.  0.
    9900012    2    3    3    0    0  0.22838484444E+02  0.21550387904E+02 -0.19229049880E+02  0.54367191348E+02  0.40000244315E+02 0.  0.
         12    1    3    3    0    0 -0.22838484444E+02 -0.21550387904E+02  0.19229049880E+02  0.36820808652E+02  0.00000000000E+00 0. -1.
         11    1    4    4    0    0  0.72341471281E+01  0.10438153965E+02  0.56343736789E+01  0.13893671577E+02  0.51100000000E-03 0. -1.
        -11    1    4    4    0    0 -0.69940170425E+01  0.46716378394E+01 -0.58282454641E+01  0.10232737656E+02  0.51100000000E-03 0.  1.
        -12    1    4    4    0    0  0.22598354358E+02  0.64405960999E+01 -0.19035178095E+02  0.30240782115E+02  0.00000000000E+00 0.  1.
</event>
<event>
 8    1  0.2472977E-006  0.9118800E+02  0.7816164E-02  0.1184000E+00
        -11   -1    0    0    0    0  0.00000000000E+00  0.00000000000E+00  0.45593999997E+02  0.45594000000E+02  0.51100000000E-03 0.  1.
         11   -1    0    0    0    0 -0.00000000000E+00 -0.00000000000E+00 -0.45593999997E+02  0.45594000000E+02  0.51100000000E-03 0. -1.
         23    2    1    2    0    0 -0.35527136788E-14  0.35527136788E-14  0.17763568394E-14  0.91188000000E+02  0.91188000000E+02 0.  0.
    9900012    2    3    3    0    0 -0.22028528402E+02  0.24947948402E+02  0.15751973853E+02  0.54367070173E+02  0.39999968074E+02 0.  0.
         12    1    3    3    0    0  0.22028528402E+02 -0.24947948402E+02 -0.15751973853E+02  0.36820929827E+02  0.00000000000E+00 0. -1.
         11    1    4    4    0    0 -0.82470834018E+01  0.15909039130E+01 -0.71969736634E+01  0.11060822305E+02  0.51100000000E-03 0. -1.
        -11    1    4    4    0    0 -0.20027164188E+02  0.22960242487E+02  0.19057920233E+02  0.35936949847E+02  0.51100000000E-03 0.  1.
        -12    1    4    4    0    0  0.62457191878E+01  0.39680200249E+00  0.38910272834E+01  0.73692980210E+01  0.00000000000E+00 0.  1.
</event>
<event>
 8    1  0.2472977E-006  0.9118800E+02  0.7816164E-02  0.1184000E+00
        -11   -1    0    0    0    0  0.00000000000E+00  0.00000000000E+00  0.45593999997E+02  0.45594000000E+02  0.51100000000E-03 0. -1.
         11   -1    0    0    0    0 -0.00000000000E+00 -0.00000000000E+00 -0.45593999997E+02  0.45594000000E+02  0.51100000000E-03 0.  1.
         23    2    1    2    0    0  0.35527136788E-14 -0.17763568394E-14  0.71054273576E-14  0.91188000000E+02  0.91188000000E+02 0.  0.
    9900012    2    3    3    0    0 -0.18551892267E+02  0.70710105055E+01 -0.31009796903E+02  0.54367090176E+02  0.40000013675E+02 0.  0.
         12    1    3    3    0    0  0.18551892267E+02 -0.70710105055E+01  0.31009796903E+02  0.36820909824E+02  0.00000000000E+00 0. -1.
         11    1    4    4    0    0 -0.23133542719E+02  0.37256264591E+01 -0.11286243919E+02  0.26008083231E+02  0.51100000000E-03 0.  1.
        -11    1    4    4    0    0 -0.52333868478E+01 -0.35204005129E+01 -0.13887441560E+01  0.64583409837E+01  0.51100000000E-03 0. -1.
        -12    1    4    4    0    0  0.98150373002E+01  0.68657845592E+01 -0.18334808828E+02  0.21900665962E+02  0.00000000000E+00 0.  1.
</event>
<event>
 8    1  0.2472977E-006  0.9118800E+02  0.7816164E-02  0.1184000E+00
        -11   -1    0    0    0    0  0.00000000000E+00  0.00000000000E+00  0.45593999997E+02  0.45594000000E+02  0.51100000000E-03 0.  1.
         11   -1    0    0    0    0 -0.00000000000E+00 -0.00000000000E+00 -0.45593999997E+02  0.45594000000E+02  0.51100000000E-03 0. -1.
         23    2    1    2    0    0  0.17763568394E-14  0.00000000000E+00 -0.71054273576E-14  0.91188000000E+02  0.91188000000E+02 0.  0.
    9900012    2    3    3    0    0  0.13267008081E+02 -0.92315416815E+01 -0.33083912171E+02  0.54367080542E+02  0.39999991711E+02 0.  0.
        -12    1    3    3    0    0 -0.13267008081E+02  0.92315416815E+01  0.33083912171E+02  0.36820919458E+02  0.00000000000E+00 0.  1.
         11    1    4    4    0    0  0.76911769474E+01  0.33431542796E+01 -0.17683515445E+02  0.19571346456E+02  0.51100000000E-03 0. -1.
        -11    1    4    4    0    0  0.10599437396E+02  0.30579940336E+01 -0.14675825340E+02  0.18359718143E+02  0.51100000000E-03 0.  1.
        -12    1    4    4    0    0 -0.50236062623E+01 -0.15632689995E+02 -0.72457138593E+00  0.16436015942E+02  0.00000000000E+00 0.  1.
</event>
<event>
 8    1  0.2472977E-006  0.9118800E+02  0.7816164E-02  0.1184000E+00
        -11   -1    0    0    0    0  0.00000000000E+00  0.00000000000E+00  0.45593999997E+02  0.45594000000E+02  0.51100000000E-03 0.  1.
         11   -1    0    0    0    0 -0.00000000000E+00 -0.00000000000E+00 -0.45593999997E+02  0.45594000000E+02  0.51100000000E-03 0. -1.
         23    2    1    2    0    0  0.88817841970E-15  0.00000000000E+00  0.00000000000E+00  0.91188000000E+02  0.91188000000E+02 0.  0.
    9900012    2    3    3    0    0  0.70636524735E+01 -0.17506916120E+02 -0.31613194843E+02  0.54367063205E+02  0.39999952188E+02 0.  0.
        -12    1    3    3    0    0 -0.70636524735E+01  0.17506916120E+02  0.31613194843E+02  0.36820936795E+02  0.00000000000E+00 0.  1.
         11    1    4    4    0    0  0.12484148093E+02 -0.58425538977E+01 -0.40311378908E+01  0.14361039747E+02  0.51100000000E-03 0. -1.
        -11    1    4    4    0    0 -0.48886806308E+01  0.62860420793E+01 -0.17928645955E+02  0.19617590815E+02  0.51100000000E-03 0.  1.
        -12    1    4    4    0    0 -0.53181498860E+00 -0.17950404302E+02 -0.96534109967E+01  0.20388432643E+02  0.00000000000E+00 0.  1.
</event>
<event>
 8    1  0.2472977E-006  0.9118800E+02  0.7816164E-02  0.1184000E+00
        -11   -1    0    0    0    0  0.00000000000E+00  0.00000000000E+00  0.45593999997E+02  0.45594000000E+02  0.51100000000E-03 0.  1.
         11   -1    0    0    0    0 -0.00000000000E+00 -0.00000000000E+00 -0.45593999997E+02  0.45594000000E+02  0.51100000000E-03 0. -1.
         23    2    1    2    0    0  0.00000000000E+00 -0.71054273576E-14  0.35527136788E-14  0.91188000000E+02  0.91188000000E+02 0.  0.
    9900012    2    3    3    0    0  0.21331093428E+01  0.29258173077E+02 -0.22252843940E+02  0.54367083245E+02  0.39999997874E+02 0.  0.
         12    1    3    3    0    0 -0.21331093428E+01 -0.29258173077E+02  0.22252843940E+02  0.36820916755E+02  0.00000000000E+00 0. -1.
         11    1    4    4    0    0  0.57376001962E+01 -0.77832695020E+01 -0.26508160659E+01  0.10026273796E+02  0.51100000000E-03 0. -1.
        -11    1    4    4    0    0 -0.16778834485E+01 -0.29812561240E+00  0.64414815762E+00  0.18218394160E+01  0.51100000000E-03 0.  1.
        -12    1    4    4    0    0 -0.19266074048E+01  0.37339568191E+02 -0.20246176032E+02  0.42518970033E+02  0.00000000000E+00 0.  1.
</event>
<event>
 8    1  0.2472977E-006  0.9118800E+02  0.7816164E-02  0.1184000E+00
        -11   -1    0    0    0    0  0.00000000000E+00  0.00000000000E+00  0.45593999997E+02  0.45594000000E+02  0.51100000000E-03 0.  1.
         11   -1    0    0    0    0 -0.00000000000E+00 -0.00000000000E+00 -0.45593999997E+02  0.45594000000E+02  0.51100000000E-03 0. -1.
         23    2    1    2    0    0  0.17763568394E-14  0.00000000000E+00  0.88817841970E-15  0.91188000000E+02  0.91188000000E+02 0.  0.
    9900012    2    3    3    0    0  0.15106605579E+02  0.33166345061E+02  0.52502063978E+01  0.54367073286E+02  0.39999975170E+02 0.  0.
         12    1    3    3    0    0 -0.15106605579E+02 -0.33166345061E+02 -0.52502063978E+01  0.36820926714E+02  0.00000000000E+00 0. -1.
         11    1    4    4    0    0  0.90486888372E+01  0.28291592204E+01 -0.96085843798E+01  0.13498437154E+02  0.51100000000E-03 0. -1.
        -11    1    4    4    0    0 -0.16692192613E+01  0.18857374018E+01  0.10822358218E+02  0.11111513675E+02  0.51100000000E-03 0.  1.
        -12    1    4    4    0    0  0.77271360030E+01  0.28451448439E+02  0.40364325595E+01  0.29757122457E+02  0.00000000000E+00 0.  1.
</event>
